/*--------------------------------*- C++ -*----------------------------------*\
  =========                 |
  \\      /  F ield         | OpenFOAM: The Open Source CFD Toolbox
   \\    /   O peration     | Website:  https://openfoam.org
    \\  /    A nd           | Version:  7
     \\/     M anipulation  |
\*---------------------------------------------------------------------------*/
FoamFile
{
    version     2.0;
    format      ascii;
    class       volScalarField;
    location    "0.105";
    object      rho;
}
// * * * * * * * * * * * * * * * * * * * * * * * * * * * * * * * * * * * * * //

dimensions      [1 -3 0 0 0 0 0];

internalField   nonuniform List<scalar> 
48560
(
0.395764
0.395864
0.395932
0.395975
0.395998
0.396005
0.396
0.395986
0.395963
0.395935
0.3959
0.395861
0.395818
0.395771
0.39572
0.395665
0.395606
0.395542
0.395472
0.395398
0.395317
0.395229
0.395134
0.39503
0.394917
0.394795
0.394658
0.394473
0.394203
0.393907
0.39357
0.393174
0.392699
0.392086
0.391254
0.390308
0.389202
0.388024
0.386817
0.385803
0.384659
0.383385
0.381875
0.379876
0.377312
0.374008
0.37067
0.369451
0.371652
0.377137
0.39397
0.456579
0.478821
0.504482
0.525056
0.544198
0.559968
0.576124
0.589022
0.602435
0.611734
0.621263
0.623464
0.624892
0.62469
0.622236
0.620684
0.619322
0.617188
0.61538
0.613317
0.610978
0.608007
0.604282
0.599226
0.592351
0.582754
0.567766
0.53977
0.501116
0.501343
0.512875
0.508142
0.50671
0.499978
0.4966
0.494406
0.496177
0.498696
0.505879
0.51455
0.523124
0.531221
0.538779
0.545493
0.551377
0.556286
0.56024
0.563025
0.564144
0.395716
0.395815
0.395872
0.395902
0.395904
0.395888
0.395854
0.395809
0.395752
0.395687
0.395614
0.395535
0.395448
0.395352
0.395247
0.395133
0.395007
0.39487
0.394721
0.394561
0.394387
0.394199
0.393994
0.393772
0.393528
0.39326
0.392956
0.392553
0.391892
0.391129
0.390272
0.389288
0.388214
0.38704
0.385878
0.384647
0.383423
0.382061
0.380626
0.378952
0.377037
0.374954
0.37266
0.370593
0.370048
0.372288
0.375491
0.37961
0.382742
0.391638
0.413438
0.458053
0.478985
0.506138
0.524846
0.545498
0.560704
0.577696
0.590566
0.604395
0.614127
0.623413
0.62602
0.628242
0.628055
0.625264
0.625263
0.624311
0.622798
0.621659
0.619786
0.617893
0.614943
0.611379
0.605988
0.598769
0.587536
0.569657
0.544784
0.526713
0.523834
0.520819
0.517752
0.514189
0.510577
0.510226
0.510312
0.511973
0.514684
0.519682
0.524893
0.531623
0.537883
0.544415
0.549895
0.554995
0.558783
0.561755
0.563569
0.564166
0.395065
0.395161
0.395191
0.395196
0.395153
0.395097
0.395008
0.394912
0.394795
0.394672
0.394528
0.39437
0.394189
0.393991
0.393769
0.393525
0.393252
0.392948
0.392602
0.392238
0.391836
0.391406
0.390936
0.390434
0.389892
0.389317
0.388703
0.387983
0.386965
0.386002
0.384906
0.383823
0.382595
0.381315
0.379871
0.378292
0.376652
0.374878
0.373121
0.371307
0.370068
0.36987
0.37139
0.374121
0.378182
0.381167
0.384419
0.387193
0.392469
0.403494
0.426082
0.458981
0.482016
0.507835
0.526543
0.546614
0.562262
0.578771
0.592199
0.60573
0.616044
0.624706
0.627985
0.630095
0.629996
0.628038
0.629029
0.627671
0.62702
0.625701
0.624342
0.622246
0.619437
0.615447
0.6098
0.601646
0.589223
0.57001
0.546083
0.531063
0.527346
0.52408
0.519414
0.515324
0.51187
0.511864
0.511948
0.513725
0.516587
0.521471
0.52688
0.53315
0.539125
0.545188
0.550534
0.555492
0.559304
0.562118
0.563707
0.564183
0.393166
0.393245
0.393203
0.393145
0.392996
0.392845
0.39263
0.39242
0.392153
0.391879
0.391548
0.391206
0.390814
0.39041
0.389966
0.389514
0.389036
0.388557
0.388067
0.387561
0.387036
0.386493
0.385916
0.385313
0.384677
0.384012
0.383308
0.382537
0.381394
0.38018
0.378845
0.377464
0.37598
0.374517
0.372958
0.371496
0.370334
0.369678
0.370331
0.371277
0.373608
0.375977
0.378823
0.381522
0.383861
0.385471
0.387544
0.390688
0.397106
0.41035
0.432585
0.460847
0.483087
0.507357
0.526046
0.545844
0.561845
0.578387
0.592263
0.605877
0.616639
0.625232
0.629187
0.631232
0.63119
0.63001
0.631096
0.629379
0.629218
0.627296
0.626018
0.623167
0.62012
0.615231
0.608996
0.599608
0.586207
0.567547
0.548934
0.537348
0.531686
0.527093
0.522568
0.520003
0.518797
0.519139
0.519469
0.521179
0.523758
0.527767
0.532346
0.53777
0.543056
0.548407
0.553047
0.557173
0.560257
0.562495
0.563798
0.564189
0.389464
0.389475
0.389374
0.389234
0.389016
0.388781
0.388494
0.388203
0.387863
0.387512
0.387111
0.386697
0.386238
0.385763
0.385247
0.384715
0.384142
0.383549
0.382916
0.382255
0.381552
0.380813
0.380051
0.379274
0.378478
0.377667
0.376835
0.376008
0.37477
0.373573
0.372393
0.371415
0.370673
0.370537
0.370778
0.371576
0.372888
0.37457
0.376148
0.37831
0.380348
0.382209
0.383785
0.38505
0.386187
0.387604
0.389876
0.394086
0.40223
0.416394
0.437317
0.462661
0.48443
0.507164
0.526123
0.54523
0.561626
0.577875
0.592134
0.605606
0.616538
0.624883
0.629196
0.631205
0.631329
0.630765
0.631537
0.630088
0.629972
0.628002
0.62673
0.62367
0.620523
0.615264
0.60869
0.598574
0.584712
0.566804
0.551136
0.541201
0.534875
0.52933
0.525097
0.522859
0.522226
0.522502
0.522971
0.524589
0.527153
0.530918
0.535233
0.540102
0.544961
0.549827
0.554207
0.558012
0.5608
0.562706
0.563818
0.564156
0.385148
0.385112
0.384987
0.384774
0.384502
0.384176
0.383812
0.383418
0.382984
0.382515
0.382001
0.381453
0.38086
0.380239
0.379577
0.378893
0.378175
0.37744
0.376682
0.375927
0.375179
0.374468
0.373793
0.37317
0.372623
0.372211
0.371992
0.372301
0.372055
0.372496
0.372844
0.373717
0.374564
0.375575
0.376734
0.378104
0.379476
0.38079
0.382
0.383191
0.384117
0.384945
0.385648
0.386451
0.387543
0.389176
0.392109
0.397403
0.406615
0.420938
0.440534
0.463838
0.484983
0.506465
0.525243
0.543956
0.560399
0.576611
0.590964
0.604457
0.615368
0.623676
0.628186
0.630327
0.630659
0.630385
0.63081
0.629737
0.629369
0.62748
0.625963
0.622783
0.619328
0.613726
0.606631
0.595983
0.582326
0.566493
0.553456
0.54418
0.537504
0.531955
0.528453
0.526859
0.526605
0.526735
0.527296
0.528786
0.531171
0.53451
0.538452
0.542844
0.547301
0.551637
0.555492
0.558775
0.5612
0.562839
0.563813
0.564116
0.380837
0.380685
0.380525
0.380194
0.379867
0.379438
0.379025
0.378543
0.378056
0.377515
0.376966
0.37639
0.375823
0.375267
0.374757
0.374315
0.373981
0.373772
0.373616
0.373599
0.373674
0.373896
0.374221
0.374684
0.375238
0.37588
0.376538
0.377433
0.377674
0.378764
0.379196
0.380296
0.380797
0.38179
0.382342
0.383208
0.383675
0.384359
0.384734
0.385281
0.385606
0.386143
0.386712
0.387582
0.388823
0.39097
0.394611
0.400762
0.410462
0.424523
0.442858
0.464696
0.485106
0.505617
0.524153
0.542434
0.558901
0.574976
0.589404
0.602788
0.613635
0.621842
0.626526
0.628858
0.629462
0.629343
0.629631
0.628886
0.628384
0.626697
0.625023
0.621888
0.618181
0.612396
0.604875
0.594012
0.580762
0.566632
0.555228
0.546371
0.539619
0.534314
0.531299
0.530062
0.529936
0.530024
0.530651
0.53204
0.534303
0.537355
0.540987
0.544988
0.549051
0.55299
0.556496
0.559395
0.561521
0.562943
0.563806
0.56408
0.378011
0.377913
0.377871
0.377652
0.377508
0.377262
0.377111
0.376923
0.376849
0.376775
0.376806
0.376856
0.377003
0.377178
0.377435
0.37771
0.378026
0.378341
0.378766
0.379199
0.379707
0.380216
0.380762
0.381293
0.381826
0.382328
0.382814
0.383468
0.383298
0.384055
0.384082
0.384644
0.384665
0.385105
0.38515
0.385498
0.385568
0.385877
0.386018
0.386348
0.386629
0.387141
0.387745
0.388798
0.390367
0.393029
0.397249
0.403922
0.413742
0.427313
0.444507
0.465216
0.484796
0.50445
0.522663
0.540568
0.556989
0.572951
0.587395
0.600679
0.611452
0.619612
0.624464
0.627017
0.627858
0.627866
0.628099
0.627559
0.626985
0.625429
0.623606
0.620445
0.616457
0.61045
0.602588
0.591834
0.579455
0.567006
0.556686
0.548217
0.541691
0.53687
0.534321
0.533378
0.533277
0.533371
0.53397
0.535258
0.537336
0.540112
0.543414
0.547035
0.550716
0.554239
0.557355
0.559913
0.561783
0.563028
0.563795
0.564045
0.37886
0.379307
0.379723
0.380056
0.380392
0.380679
0.381004
0.381312
0.381683
0.382055
0.38249
0.382909
0.383364
0.383784
0.384215
0.384594
0.384967
0.385285
0.385592
0.385837
0.386066
0.386233
0.386383
0.386478
0.386559
0.386596
0.386635
0.38675
0.38634
0.386589
0.386452
0.386605
0.386523
0.386673
0.386627
0.386773
0.386761
0.386947
0.387041
0.387347
0.38764
0.388227
0.388979
0.390278
0.392186
0.39528
0.399907
0.406842
0.416548
0.429521
0.445694
0.465405
0.48417
0.503074
0.520912
0.538469
0.554808
0.570645
0.585075
0.598232
0.608941
0.617085
0.622137
0.624941
0.626029
0.626158
0.626388
0.625995
0.625422
0.623972
0.62207
0.618892
0.614703
0.608552
0.600536
0.590095
0.578619
0.567434
0.557932
0.549899
0.543731
0.539358
0.537121
0.536335
0.536243
0.536356
0.536912
0.538122
0.54002
0.542566
0.545566
0.54886
0.552178
0.555341
0.558105
0.560359
0.562002
0.563097
0.563784
0.564013
0.383264
0.384275
0.385082
0.385881
0.386508
0.387114
0.387601
0.388075
0.388479
0.388884
0.389258
0.389618
0.389932
0.390197
0.390405
0.390545
0.390625
0.390632
0.390584
0.390469
0.390314
0.390106
0.389877
0.389615
0.389353
0.389079
0.388835
0.388671
0.388224
0.388207
0.387972
0.387983
0.387853
0.387923
0.387867
0.387973
0.387957
0.388105
0.388196
0.388497
0.388847
0.389519
0.390447
0.391975
0.394201
0.397612
0.402506
0.409515
0.418972
0.431313
0.44656
0.465306
0.48326
0.501462
0.518897
0.536125
0.552355
0.568067
0.582457
0.595491
0.606152
0.614316
0.619587
0.622664
0.624011
0.624277
0.624513
0.624224
0.623683
0.622308
0.620354
0.617139
0.612787
0.606545
0.598553
0.588632
0.578121
0.567955
0.559126
0.551585
0.545839
0.541886
0.53988
0.539183
0.539084
0.539197
0.539695
0.540809
0.542523
0.54484
0.547546
0.550521
0.553493
0.556314
0.558758
0.560746
0.56219
0.563157
0.563772
0.563983
0.388421
0.389718
0.390702
0.391708
0.392413
0.393105
0.39355
0.393987
0.394249
0.394529
0.394704
0.394911
0.395023
0.39512
0.39511
0.395054
0.394896
0.394682
0.394383
0.394035
0.393627
0.393186
0.392715
0.392236
0.391757
0.391292
0.390867
0.390552
0.39002
0.389809
0.389492
0.389381
0.389211
0.389203
0.389144
0.389207
0.389205
0.389316
0.389432
0.389735
0.390169
0.390937
0.392058
0.393803
0.396305
0.399948
0.40501
0.411967
0.421109
0.432813
0.447204
0.464982
0.482124
0.499638
0.516645
0.53355
0.549649
0.565236
0.579567
0.592481
0.603111
0.611328
0.616842
0.620218
0.62186
0.622291
0.622532
0.622329
0.621848
0.620543
0.618575
0.615341
0.610902
0.604664
0.59685
0.58753
0.577907
0.568589
0.560359
0.553317
0.547974
0.544343
0.542483
0.541827
0.54172
0.541823
0.542265
0.543276
0.544818
0.546913
0.549345
0.552018
0.55467
0.557176
0.559332
0.561082
0.562353
0.563209
0.563761
0.563955
0.39223
0.393689
0.394851
0.396014
0.396853
0.397641
0.398134
0.398581
0.398803
0.399019
0.399098
0.399221
0.399254
0.399293
0.39921
0.39909
0.398845
0.398542
0.398121
0.397641
0.397071
0.396454
0.395793
0.395109
0.39442
0.393742
0.393108
0.392608
0.39189
0.391465
0.391016
0.390756
0.390517
0.390424
0.390349
0.390372
0.390378
0.390467
0.390614
0.390948
0.391485
0.392378
0.393701
0.39566
0.398406
0.402233
0.407391
0.414236
0.423034
0.434117
0.447703
0.464486
0.480795
0.497605
0.514154
0.530731
0.546682
0.562145
0.576406
0.58921
0.599824
0.608117
0.613891
0.617594
0.61957
0.6202
0.620472
0.620341
0.619933
0.618696
0.616746
0.613516
0.609057
0.602918
0.595413
0.58675
0.577945
0.569349
0.561685
0.555128
0.550147
0.546759
0.544981
0.544327
0.544202
0.544284
0.544665
0.545561
0.546935
0.548811
0.550984
0.553368
0.555723
0.557939
0.559838
0.561377
0.562497
0.563256
0.563752
0.56393
0.394686
0.396306
0.397711
0.399097
0.400202
0.401214
0.401933
0.40254
0.402899
0.403185
0.403307
0.403426
0.403477
0.403544
0.403509
0.403413
0.403171
0.402832
0.40233
0.401722
0.400992
0.400208
0.399318
0.398395
0.39743
0.396477
0.39556
0.394818
0.393851
0.393199
0.392577
0.39216
0.391826
0.391638
0.391528
0.391515
0.391526
0.391595
0.391762
0.392126
0.392756
0.393772
0.395279
0.397434
0.400408
0.404413
0.409645
0.41636
0.424815
0.435302
0.448117
0.463873
0.47931
0.495376
0.511424
0.527654
0.543443
0.558786
0.572974
0.58568
0.59629
0.604673
0.610718
0.614775
0.617136
0.618018
0.618354
0.618286
0.617966
0.616811
0.614916
0.611731
0.607334
0.601388
0.594285
0.586276
0.578178
0.570244
0.563124
0.557017
0.552339
0.549114
0.547361
0.546675
0.546521
0.546577
0.546894
0.547671
0.548882
0.550542
0.552471
0.554583
0.556665
0.558616
0.560285
0.561637
0.562625
0.563298
0.563744
0.563907
0.396477
0.398264
0.399922
0.401572
0.403011
0.40435
0.405427
0.406346
0.406997
0.407494
0.407782
0.407985
0.408082
0.408181
0.408201
0.408143
0.407938
0.40759
0.407061
0.406377
0.40553
0.404533
0.403393
0.402161
0.400863
0.399559
0.398303
0.397269
0.395968
0.395002
0.394114
0.39346
0.392976
0.392655
0.392507
0.39245
0.39247
0.392517
0.392701
0.393088
0.393808
0.394961
0.396691
0.39911
0.402336
0.406485
0.411746
0.418361
0.426506
0.436432
0.448476
0.463183
0.477697
0.492955
0.508439
0.524287
0.539895
0.555124
0.56924
0.581864
0.592486
0.600972
0.607294
0.611724
0.614527
0.615738
0.616193
0.616185
0.615965
0.614913
0.613115
0.610027
0.60577
0.600098
0.593454
0.586081
0.578602
0.571287
0.564684
0.558984
0.554551
0.551423
0.549644
0.54889
0.548689
0.548716
0.548965
0.54962
0.550668
0.552121
0.553819
0.555677
0.557507
0.559217
0.560683
0.561868
0.562739
0.563336
0.563737
0.563888
0.397956
0.399879
0.401741
0.403628
0.405378
0.407061
0.408537
0.409856
0.410911
0.411757
0.412338
0.412734
0.412945
0.413076
0.413154
0.413184
0.413081
0.412817
0.412338
0.411633
0.410677
0.409488
0.408081
0.406505
0.40481
0.403066
0.401351
0.399875
0.398174
0.396829
0.395658
0.394736
0.394095
0.393604
0.393385
0.393273
0.393291
0.393317
0.393497
0.393887
0.394648
0.395876
0.397734
0.400331
0.403808
0.408249
0.413735
0.42029
0.42815
0.437567
0.448825
0.462476
0.476015
0.490384
0.505215
0.520623
0.536028
0.551156
0.565227
0.57779
0.58843
0.59701
0.603595
0.608399
0.611695
0.613342
0.614018
0.614047
0.61395
0.613034
0.611382
0.608449
0.604409
0.599075
0.592919
0.586149
0.57924
0.572487
0.566362
0.561023
0.556785
0.553701
0.551854
0.550989
0.550711
0.550711
0.550885
0.551416
0.552304
0.553557
0.555036
0.556658
0.558258
0.559752
0.561035
0.562074
0.562842
0.563372
0.563733
0.563871
0.39926
0.401272
0.403271
0.405326
0.407305
0.409268
0.411097
0.412817
0.414323
0.415624
0.416645
0.417414
0.417912
0.418209
0.41835
0.418443
0.418452
0.418313
0.417947
0.417308
0.416346
0.415052
0.413425
0.411508
0.409363
0.407083
0.404778
0.402712
0.400518
0.398677
0.397148
0.395888
0.395069
0.394376
0.394046
0.393859
0.393851
0.3939
0.394071
0.394489
0.395283
0.396592
0.398554
0.401298
0.404937
0.409559
0.415223
0.421947
0.429732
0.438694
0.449204
0.461787
0.474284
0.487643
0.501696
0.516571
0.531732
0.546768
0.560798
0.57332
0.58402
0.592715
0.599572
0.604759
0.608595
0.610783
0.611818
0.611916
0.611951
0.611211
0.60975
0.607042
0.603282
0.598336
0.59267
0.586431
0.580074
0.573847
0.568159
0.56314
0.559055
0.555972
0.554009
0.552995
0.552609
0.552565
0.552663
0.553072
0.553802
0.554864
0.556137
0.55754
0.558929
0.560227
0.561346
0.562256
0.562934
0.563405
0.56373
0.563857
0.400419
0.40248
0.404556
0.406705
0.40882
0.410963
0.413055
0.415102
0.417
0.418761
0.420295
0.421587
0.42257
0.423257
0.423649
0.423828
0.423885
0.423888
0.4237
0.423243
0.422412
0.421155
0.419417
0.417216
0.414601
0.411691
0.408642
0.405802
0.403032
0.400535
0.398587
0.396864
0.395812
0.39492
0.394488
0.394231
0.394167
0.394246
0.394436
0.394846
0.395655
0.397015
0.399069
0.401946
0.405749
0.410549
0.41637
0.423209
0.431032
0.439829
0.449654
0.461207
0.472658
0.484923
0.498048
0.512246
0.52709
0.542065
0.556154
0.568681
0.579433
0.588205
0.595278
0.60079
0.605154
0.607967
0.609542
0.609833
0.610002
0.609476
0.608253
0.605837
0.602411
0.597887
0.592703
0.586948
0.581094
0.575346
0.570055
0.565321
0.561366
0.558255
0.556135
0.554938
0.554406
0.554289
0.554314
0.554601
0.555175
0.556052
0.55713
0.55833
0.559526
0.560647
0.561619
0.562415
0.563014
0.563434
0.563728
0.563845
0.40142
0.403496
0.40561
0.407795
0.409971
0.412201
0.414443
0.416683
0.418828
0.420902
0.42285
0.424638
0.426185
0.427445
0.428357
0.428922
0.429179
0.429236
0.429225
0.429035
0.428494
0.427478
0.425847
0.423534
0.420515
0.416903
0.412911
0.409034
0.405666
0.402223
0.399929
0.397589
0.396321
0.395207
0.394671
0.39437
0.394304
0.394362
0.394537
0.394934
0.395752
0.397141
0.399257
0.402237
0.406177
0.411147
0.41714
0.424122
0.43199
0.440655
0.450057
0.460667
0.470984
0.481975
0.49396
0.507302
0.521717
0.53661
0.550724
0.563281
0.574192
0.583118
0.590495
0.596384
0.601335
0.604845
0.607168
0.60788
0.608128
0.607843
0.606929
0.604851
0.601814
0.597726
0.59299
0.587709
0.582323
0.577012
0.572081
0.567599
0.563749
0.560586
0.558272
0.556848
0.556124
0.555891
0.555857
0.556022
0.556444
0.557139
0.558032
0.559039
0.560058
0.561017
0.561857
0.56255
0.56308
0.563457
0.563725
0.563835
0.402221
0.404295
0.40643
0.408628
0.410838
0.413102
0.415376
0.417663
0.419911
0.422145
0.424319
0.426441
0.428438
0.430279
0.431868
0.433144
0.434021
0.434495
0.434623
0.434571
0.43437
0.433749
0.432461
0.430262
0.426967
0.422592
0.417407
0.412138
0.408372
0.403559
0.400911
0.398035
0.396502
0.395157
0.394506
0.394154
0.394102
0.394183
0.39432
0.394744
0.395551
0.396978
0.399121
0.402183
0.40623
0.411356
0.417517
0.424674
0.432663
0.441307
0.450399
0.460254
0.469704
0.479566
0.490258
0.502452
0.516194
0.531029
0.545479
0.558156
0.569204
0.578169
0.585716
0.591749
0.597126
0.601218
0.604465
0.605912
0.606423
0.606341
0.605799
0.604094
0.601495
0.597836
0.593506
0.588641
0.583658
0.578726
0.574108
0.569851
0.5661
0.56289
0.560407
0.558724
0.55777
0.557385
0.557283
0.557345
0.557627
0.558152
0.558867
0.559693
0.560547
0.561359
0.562079
0.562676
0.563139
0.563474
0.563719
0.563823
0.402782
0.404851
0.407002
0.4092
0.411427
0.413685
0.415954
0.418238
0.420515
0.422797
0.425062
0.427317
0.42953
0.431691
0.43374
0.435624
0.437229
0.438452
0.43918
0.439412
0.439298
0.439035
0.43824
0.436508
0.433383
0.428486
0.421854
0.41447
0.410445
0.404314
0.401206
0.397873
0.396111
0.39459
0.393878
0.393516
0.393488
0.393621
0.393773
0.394238
0.395058
0.396511
0.398699
0.401818
0.405942
0.411168
0.417469
0.424772
0.432891
0.441553
0.450411
0.459455
0.467597
0.475885
0.485101
0.496015
0.508965
0.523656
0.538294
0.550999
0.562566
0.571703
0.579736
0.586178
0.592277
0.597141
0.601529
0.603951
0.605106
0.605066
0.604931
0.603646
0.601483
0.598214
0.594303
0.589846
0.58527
0.580684
0.576347
0.572293
0.568645
0.565403
0.56262
0.560591
0.559334
0.558748
0.558557
0.558536
0.558698
0.559073
0.559625
0.560295
0.561009
0.561696
0.562309
0.562815
0.563209
0.563498
0.563716
0.563815
0.402933
0.404977
0.40714
0.409317
0.41155
0.413789
0.416058
0.418325
0.420601
0.422869
0.425133
0.427382
0.429615
0.431826
0.434003
0.436133
0.438177
0.440079
0.441718
0.442936
0.443549
0.443509
0.443087
0.442046
0.439471
0.43429
0.425599
0.414682
0.410998
0.403895
0.400468
0.396842
0.394906
0.393296
0.392572
0.392229
0.392268
0.392479
0.392705
0.39321
0.394146
0.395587
0.397853
0.401007
0.405224
0.410521
0.416942
0.42438
0.432666
0.441485
0.450439
0.459465
0.467343
0.474724
0.482357
0.491346
0.502501
0.516475
0.532227
0.545439
0.557211
0.566429
0.57473
0.581055
0.587376
0.592404
0.597584
0.60127
0.603635
0.60392
0.604112
0.603286
0.601497
0.598612
0.595006
0.590883
0.586577
0.58226
0.578157
0.574255
0.570651
0.567319
0.564583
0.562297
0.560707
0.559853
0.559564
0.559491
0.55955
0.559798
0.560237
0.560799
0.56142
0.562019
0.562553
0.562984
0.563314
0.563556
0.563742
0.563829
0.402109
0.404125
0.406305
0.408454
0.410697
0.412907
0.41518
0.417418
0.419694
0.421936
0.424197
0.426424
0.428657
0.430861
0.433061
0.435234
0.437385
0.439476
0.441469
0.443299
0.44474
0.445483
0.445249
0.444372
0.442419
0.437821
0.428272
0.412143
0.409736
0.401774
0.397648
0.39393
0.391829
0.390347
0.389652
0.389454
0.389588
0.389978
0.39034
0.390895
0.391861
0.393407
0.39569
0.398981
0.403284
0.408733
0.415303
0.422915
0.43137
0.440333
0.449315
0.457916
0.464771
0.470424
0.474972
0.480424
0.489474
0.503663
0.520311
0.533537
0.545981
0.555893
0.564898
0.571938
0.579324
0.585719
0.592731
0.598517
0.602679
0.603932
0.604059
0.603739
0.602416
0.599933
0.596703
0.592831
0.588759
0.584608
0.580605
0.576801
0.573338
0.570174
0.567047
0.564105
0.561839
0.560498
0.560037
0.559931
0.559966
0.560162
0.560561
0.561077
0.561672
0.562245
0.562761
0.563165
0.563466
0.563676
0.563834
0.563905
0.398288
0.400264
0.402434
0.404531
0.406754
0.408908
0.411157
0.41334
0.41559
0.417777
0.420006
0.422173
0.424356
0.426466
0.428549
0.430533
0.43246
0.434308
0.436144
0.437941
0.439739
0.441452
0.442833
0.443263
0.44221
0.439693
0.430451
0.405892
0.404496
0.396764
0.392141
0.388532
0.386487
0.385119
0.384658
0.384642
0.385117
0.385706
0.386406
0.387182
0.388295
0.389958
0.392628
0.395981
0.400479
0.406028
0.412811
0.420552
0.429211
0.43836
0.447668
0.45689
0.464511
0.470605
0.475427
0.480766
0.488417
0.499974
0.515113
0.529357
0.542661
0.552165
0.561142
0.567923
0.574886
0.580787
0.587361
0.593534
0.59997
0.602545
0.602626
0.602406
0.601049
0.598718
0.59558
0.591909
0.588011
0.58411
0.580378
0.576762
0.573329
0.569886
0.566974
0.564193
0.561857
0.560176
0.559573
0.559474
0.559573
0.5598
0.560254
0.560808
0.561466
0.562098
0.56269
0.563166
0.563535
0.563779
0.563961
0.564048
0.384683
0.386503
0.38845
0.390327
0.392283
0.394153
0.396085
0.397919
0.399799
0.401574
0.403382
0.40508
0.406783
0.408354
0.409899
0.411324
0.412753
0.414102
0.415455
0.416743
0.418123
0.419578
0.421041
0.422057
0.421557
0.42003
0.415226
0.397439
0.394795
0.38632
0.381483
0.377104
0.375363
0.373352
0.373316
0.37281
0.373777
0.374084
0.375354
0.37597
0.377637
0.379098
0.381891
0.38515
0.389961
0.395898
0.403007
0.411123
0.419846
0.429079
0.438179
0.447144
0.45512
0.46158
0.465507
0.465908
0.46653
0.468268
0.487654
0.512882
0.526956
0.538107
0.547106
0.555326
0.562675
0.569997
0.578642
0.588082
0.598287
0.602076
0.601074
0.601563
0.600114
0.597093
0.593557
0.589851
0.585838
0.581977
0.578287
0.574629
0.571408
0.568361
0.565354
0.562356
0.559082
0.556411
0.55545
0.555548
0.555906
0.556472
0.557378
0.558186
0.559054
0.559959
0.560823
0.561634
0.562356
0.562993
0.563527
0.563986
0.245935
0.24596
0.245955
0.245958
0.245957
0.245958
0.245958
0.245959
0.245959
0.245959
0.24596
0.24596
0.24596
0.24596
0.24596
0.24596
0.24596
0.245961
0.245961
0.24596
0.245921
0.245957
0.245953
0.245957
0.245956
0.245957
0.245958
0.245958
0.245959
0.24596
0.245961
0.245961
0.245961
0.245962
0.245962
0.245962
0.245963
0.245963
0.245963
0.245963
0.245903
0.245951
0.245949
0.245953
0.245953
0.245955
0.245956
0.245958
0.24596
0.245962
0.245963
0.245964
0.245965
0.245966
0.245967
0.245968
0.245968
0.245968
0.245969
0.245969
0.245883
0.245944
0.245945
0.24595
0.24595
0.245953
0.245955
0.245958
0.245961
0.245963
0.245965
0.245967
0.245969
0.24597
0.245971
0.245972
0.245973
0.245974
0.245974
0.245974
0.245863
0.245937
0.24594
0.245946
0.245947
0.24595
0.245954
0.245958
0.245962
0.245965
0.245968
0.245971
0.245973
0.245975
0.245977
0.245978
0.24598
0.245981
0.245981
0.245982
0.24584
0.245927
0.245933
0.24594
0.245943
0.245947
0.245952
0.245958
0.245963
0.245967
0.245971
0.245975
0.245979
0.245982
0.245984
0.245986
0.245988
0.24599
0.245991
0.245991
0.245815
0.245916
0.245925
0.245933
0.245937
0.245944
0.24595
0.245957
0.245964
0.24597
0.245976
0.245981
0.245985
0.24599
0.245993
0.245996
0.245999
0.246001
0.246002
0.246003
0.245786
0.245901
0.245914
0.245924
0.245931
0.245939
0.245948
0.245957
0.245966
0.245974
0.245981
0.245988
0.245994
0.245999
0.246004
0.246008
0.246011
0.246014
0.246016
0.246017
0.245756
0.245885
0.245902
0.245914
0.245923
0.245934
0.245945
0.245957
0.245968
0.245978
0.245987
0.245996
0.246004
0.246011
0.246017
0.246022
0.246026
0.246029
0.246031
0.246033
0.245723
0.245865
0.245887
0.245902
0.245914
0.245928
0.245942
0.245957
0.24597
0.245983
0.245994
0.246005
0.246015
0.246024
0.246031
0.246038
0.246043
0.246047
0.246049
0.246051
0.245687
0.245844
0.24587
0.245889
0.245904
0.245922
0.245939
0.245957
0.245973
0.245988
0.246003
0.246016
0.246028
0.246038
0.246048
0.246055
0.246062
0.246066
0.246069
0.246071
0.245648
0.245819
0.24585
0.245873
0.245893
0.245915
0.245936
0.245958
0.245977
0.245995
0.246012
0.246028
0.246042
0.246055
0.246066
0.246075
0.246083
0.246088
0.246091
0.246094
0.245607
0.245791
0.245828
0.245856
0.245881
0.245907
0.245933
0.245959
0.245981
0.246003
0.246023
0.246042
0.246058
0.246073
0.246086
0.246097
0.246106
0.246112
0.246116
0.246119
0.245561
0.24576
0.245803
0.245837
0.245867
0.245899
0.24593
0.24596
0.245986
0.246012
0.246035
0.246057
0.246077
0.246094
0.246109
0.246121
0.246131
0.246139
0.246143
0.246146
0.245512
0.245725
0.245775
0.245816
0.245852
0.245891
0.245928
0.245962
0.245993
0.246022
0.24605
0.246075
0.246097
0.246117
0.246134
0.246148
0.24616
0.246168
0.246173
0.246176
0.245457
0.245686
0.245743
0.245792
0.245836
0.245882
0.245926
0.245965
0.246
0.246034
0.246066
0.246095
0.24612
0.246143
0.246162
0.246178
0.246191
0.246201
0.246206
0.24621
0.245396
0.245642
0.245708
0.245767
0.24582
0.245874
0.245924
0.245969
0.24601
0.246049
0.246085
0.246117
0.246146
0.246172
0.246194
0.246212
0.246226
0.246237
0.246243
0.246247
0.245324
0.245592
0.245668
0.24574
0.245802
0.245866
0.245924
0.245974
0.246021
0.246066
0.246106
0.246143
0.246175
0.246204
0.246228
0.246248
0.246264
0.246276
0.246283
0.246287
0.245243
0.245536
0.245622
0.24571
0.245784
0.245859
0.245924
0.245981
0.246035
0.246085
0.246131
0.246172
0.246208
0.24624
0.246267
0.246289
0.246307
0.24632
0.246327
0.246332
0.245147
0.245472
0.245571
0.24568
0.245765
0.245853
0.245926
0.245991
0.246052
0.246108
0.246159
0.246205
0.246246
0.246281
0.246311
0.246335
0.246354
0.246368
0.246376
0.246381
0.245037
0.245401
0.245512
0.245648
0.245747
0.24585
0.24593
0.246004
0.246073
0.246136
0.246193
0.246243
0.246288
0.246326
0.246359
0.246386
0.246407
0.246422
0.246431
0.246436
0.244892
0.245322
0.245446
0.245617
0.245729
0.245848
0.245936
0.246021
0.246098
0.246168
0.246231
0.246287
0.246336
0.246378
0.246413
0.246442
0.246464
0.246481
0.24649
0.246496
0.24471
0.245236
0.245371
0.245588
0.245713
0.245849
0.245947
0.246043
0.246129
0.246206
0.246276
0.246337
0.24639
0.246435
0.246473
0.246505
0.246529
0.246546
0.246556
0.246562
0.24448
0.245148
0.245286
0.245565
0.245699
0.245853
0.245962
0.246071
0.246166
0.246251
0.246327
0.246393
0.246451
0.2465
0.246541
0.246574
0.2466
0.246618
0.246629
0.246635
0.244166
0.245066
0.245193
0.245549
0.245687
0.245862
0.245984
0.246106
0.246211
0.246304
0.246386
0.246458
0.24652
0.246572
0.246616
0.246651
0.246678
0.246698
0.246708
0.246715
0.243873
0.244995
0.245101
0.245541
0.24568
0.245878
0.246015
0.246151
0.246264
0.246366
0.246454
0.246531
0.246597
0.246652
0.246698
0.246735
0.246764
0.246784
0.246795
0.246802
0.243687
0.244934
0.245026
0.24554
0.245678
0.245906
0.246055
0.246205
0.246328
0.246437
0.246532
0.246613
0.246683
0.246741
0.246789
0.246828
0.246858
0.246879
0.24689
0.246898
0.243578
0.244889
0.244979
0.245543
0.245682
0.245946
0.246107
0.246271
0.246402
0.24652
0.246619
0.246705
0.246778
0.246839
0.246889
0.246929
0.24696
0.246982
0.246992
0.247001
0.243523
0.244866
0.244957
0.245553
0.245703
0.246
0.246174
0.246351
0.246489
0.246613
0.246718
0.246807
0.246883
0.246946
0.246998
0.247039
0.24707
0.247093
0.247103
0.247111
0.243495
0.244859
0.244948
0.245581
0.245746
0.246071
0.246256
0.246445
0.24659
0.24672
0.246828
0.24692
0.246998
0.247063
0.247116
0.247158
0.247189
0.247212
0.247223
0.247231
0.243484
0.244864
0.244961
0.245639
0.245817
0.246162
0.246355
0.246555
0.246705
0.24684
0.246951
0.247045
0.247124
0.24719
0.247243
0.247285
0.247317
0.24734
0.24735
0.247358
0.243527
0.244913
0.245021
0.245734
0.245919
0.246278
0.246474
0.246682
0.246836
0.246974
0.247087
0.247182
0.247261
0.247327
0.24738
0.247422
0.247454
0.247476
0.247486
0.247494
0.243666
0.24503
0.245143
0.245872
0.246057
0.246421
0.246615
0.246828
0.246983
0.247123
0.247236
0.247331
0.24741
0.247475
0.247527
0.247569
0.247599
0.24762
0.24763
0.247638
0.2439
0.245225
0.245333
0.246053
0.246232
0.246593
0.246781
0.246994
0.247146
0.247286
0.247397
0.247492
0.24757
0.247633
0.247684
0.247724
0.247753
0.247774
0.247783
0.24779
0.244214
0.245487
0.245584
0.246278
0.246445
0.246794
0.246972
0.247181
0.247328
0.247464
0.247572
0.247664
0.247739
0.247801
0.24785
0.247888
0.247916
0.247935
0.247943
0.247949
0.244582
0.245801
0.245887
0.24654
0.246693
0.247022
0.247187
0.247388
0.247526
0.247657
0.247759
0.247847
0.247918
0.247977
0.248023
0.248059
0.248085
0.248103
0.24811
0.248116
0.244994
0.246153
0.246229
0.246836
0.246972
0.247276
0.247426
0.247614
0.247741
0.247863
0.247959
0.248041
0.248107
0.248161
0.248204
0.248237
0.248261
0.248277
0.248283
0.248288
0.245432
0.246533
0.246601
0.247157
0.247277
0.247552
0.247685
0.247857
0.247971
0.248083
0.248169
0.248244
0.248304
0.248353
0.248392
0.248422
0.248443
0.248457
0.248461
0.248465
0.245892
0.246932
0.246995
0.2475
0.247604
0.247846
0.247961
0.248114
0.248214
0.248313
0.24839
0.248456
0.248509
0.248552
0.248586
0.248612
0.24863
0.248642
0.248644
0.248647
0.246367
0.247346
0.247406
0.247857
0.247947
0.248154
0.248252
0.248384
0.248468
0.248554
0.248619
0.248675
0.24872
0.248757
0.248785
0.248806
0.248821
0.24883
0.248831
0.248833
0.246858
0.247773
0.24783
0.248227
0.248302
0.248475
0.248554
0.248663
0.248732
0.248802
0.248854
0.2489
0.248936
0.248965
0.248988
0.249004
0.249015
0.249021
0.24902
0.249022
0.247358
0.248209
0.248262
0.248606
0.248665
0.248804
0.248865
0.24895
0.249001
0.249055
0.249095
0.249129
0.249156
0.249178
0.249193
0.249205
0.249212
0.249215
0.249211
0.249212
0.247871
0.248653
0.248701
0.248992
0.249033
0.249139
0.24918
0.249241
0.249276
0.249313
0.249339
0.249361
0.249378
0.249391
0.2494
0.249406
0.249409
0.249409
0.249403
0.249403
0.248388
0.249101
0.249142
0.249384
0.249404
0.249477
0.249499
0.249535
0.249552
0.249572
0.249584
0.249595
0.249601
0.249606
0.249608
0.249608
0.249606
0.249603
0.249595
0.249594
0.248913
0.249551
0.249585
0.249778
0.249775
0.249818
0.249818
0.24983
0.24983
0.249831
0.24983
0.249827
0.249824
0.249819