/*--------------------------------*- C++ -*----------------------------------*\
  =========                 |
  \\      /  F ield         | OpenFOAM: The Open Source CFD Toolbox
   \\    /   O peration     | Website:  https://openfoam.org
    \\  /    A nd           | Version:  7
     \\/     M anipulation  |
\*---------------------------------------------------------------------------*/
FoamFile
{
    version     2.0;
    format      ascii;
    class       volVectorField;
    location    "0.105";
    object      U;
}
// * * * * * * * * * * * * * * * * * * * * * * * * * * * * * * * * * * * * * //

dimensions      [0 1 -1 0 0 0 0];

internalField   nonuniform List<vector> 
48560
(
(221.941 -5.3677 -4.91508e-11)
(221.75 -6.19686 -5.89742e-11)
(221.58 -7.02824 -7.82422e-11)
(221.433 -7.84026 -1.00155e-10)
(221.3 -8.63316 -1.31229e-10)
(221.181 -9.40113 -1.65866e-10)
(221.069 -10.1469 -2.09052e-10)
(220.963 -10.8664 -2.55618e-10)
(220.861 -11.5638 -3.09211e-10)
(220.761 -12.2365 -3.65345e-10)
(220.662 -12.8901 -4.25823e-10)
(220.561 -13.5231 -4.8701e-10)
(220.458 -14.1405 -5.49258e-10)
(220.351 -14.741 -6.09542e-10)
(220.239 -15.3282 -6.65958e-10)
(220.119 -15.9003 -7.16724e-10)
(219.991 -16.4601 -7.58547e-10)
(219.852 -17.0059 -7.89519e-10)
(219.7 -17.5397 -8.06457e-10)
(219.53 -18.0607 -8.07479e-10)
(219.342 -18.5704 -7.89643e-10)
(219.13 -19.0682 -7.50891e-10)
(218.89 -19.5548 -6.89476e-10)
(218.617 -20.0294 -6.02687e-10)
(218.308 -20.4913 -4.92812e-10)
(217.955 -20.9394 -3.56794e-10)
(217.554 -21.3723 -1.98156e-10)
(217.036 -21.8647 1.67765e-11)
(216.283 -22.4137 3.1113e-10)
(215.39 -22.9119 5.95545e-10)
(214.303 -23.3846 8.8154e-10)
(212.96 -23.8068 1.15916e-09)
(211.278 -24.1917 1.37737e-09)
(209.078 -24.5153 1.53783e-09)
(206.055 -24.7617 1.44214e-09)
(202.489 -24.8965 1.19388e-09)
(198.251 -24.8759 5.65134e-10)
(193.601 -24.7463 -1.3992e-10)
(188.786 -24.4535 -1.37705e-09)
(184.852 -24.0508 -2.53932e-09)
(180.808 -23.2559 -4.16335e-09)
(176.731 -22.6203 -4.54809e-09)
(172.874 -21.4537 -5.91058e-09)
(169.145 -20.0226 -6.40182e-09)
(165.801 -18.7136 -7.02412e-09)
(165.078 -16.0978 -9.50034e-09)
(171.764 -12.2484 -1.25173e-08)
(191.382 -6.88526 -1.71099e-08)
(221.305 -4.08113 -2.21722e-08)
(250.052 -7.78921 -2.61495e-08)
(271.684 -31.468 -2.92481e-08)
(263.862 -74.1595 -3.08495e-08)
(229.269 -57.6496 -2.97142e-08)
(214.68 -60.7854 -2.98004e-08)
(195.662 -51.6232 -2.91951e-08)
(183.877 -51.0944 -2.92345e-08)
(165.482 -43.5363 -2.86321e-08)
(153.749 -41.3576 -2.86466e-08)
(133.696 -34.3429 -2.79894e-08)
(121.443 -31.2415 -2.80275e-08)
(99.3235 -24.1238 -2.72988e-08)
(85.6829 -20.4169 -2.72944e-08)
(66.0763 -11.0084 -2.6412e-08)
(66.3463 -8.54303 -2.67464e-08)
(55.7819 -5.57977 -2.62749e-08)
(52.6458 1.12773 -2.60613e-08)
(56.5752 2.22472 -2.63052e-08)
(58.8233 4.44241 -2.65229e-08)
(60.5571 6.50877 -2.67285e-08)
(63.576 8.6437 -2.70127e-08)
(67.9239 11.4707 -2.74223e-08)
(73.4449 14.9746 -2.7871e-08)
(80.3088 19.2409 -2.83744e-08)
(88.7299 24.4694 -2.8915e-08)
(98.9289 30.8337 -2.94979e-08)
(111.36 38.4928 -3.01078e-08)
(127.426 48.2364 -3.07833e-08)
(149.438 61.6845 -3.14944e-08)
(182.284 78.986 -3.22075e-08)
(220.44 84.7194 -3.28559e-08)
(259.688 66.4917 -3.37593e-08)
(254.785 60.4471 -3.40068e-08)
(246.367 53.3834 -3.43722e-08)
(251.803 56.0632 -3.43813e-08)
(256.211 56.6904 -3.46257e-08)
(267.565 53.7092 -3.53711e-08)
(271.758 43.0844 -3.5541e-08)
(275.782 36.6796 -3.59089e-08)
(275.789 26.9354 -3.60766e-08)
(275.429 19.8337 -3.63616e-08)
(273.263 14.3846 -3.64622e-08)
(270.016 8.44321 -3.66395e-08)
(266.52 3.74695 -3.67884e-08)
(263.135 -0.00115844 -3.69285e-08)
(260.007 -3.0481 -3.70351e-08)
(257.305 -5.51269 -3.71403e-08)
(255.074 -7.47893 -3.72203e-08)
(253.41 -8.90354 -3.72837e-08)
(252.352 -9.71775 -3.73294e-08)
(252.112 -9.95822 -3.73531e-08)
(221.186 -5.08787 -5.89519e-10)
(221.004 -5.94567 -6.17713e-10)
(220.836 -6.80021 -6.46586e-10)
(220.701 -7.645 -6.73154e-10)
(220.573 -8.46246 -6.98771e-10)
(220.462 -9.26006 -7.18315e-10)
(220.351 -10.0282 -7.35476e-10)
(220.246 -10.7747 -7.42757e-10)
(220.136 -11.4971 -7.45338e-10)
(220.022 -12.2041 -7.34248e-10)
(219.903 -12.8956 -7.18223e-10)
(219.778 -13.5729 -6.87517e-10)
(219.642 -14.2348 -6.47355e-10)
(219.494 -14.8796 -5.90074e-10)
(219.33 -15.5069 -5.19702e-10)
(219.149 -16.1139 -4.31249e-10)
(218.948 -16.7019 -3.28264e-10)
(218.724 -17.2692 -2.08857e-10)
(218.473 -17.819 -7.70188e-11)
(218.193 -18.3514 6.58227e-11)
(217.878 -18.8696 2.21872e-10)
(217.524 -19.371 3.85503e-10)
(217.123 -19.8551 5.59399e-10)
(216.667 -20.3191 7.34852e-10)
(216.142 -20.7627 9.16737e-10)
(215.533 -21.184 1.08979e-09)
(214.822 -21.5813 1.25663e-09)
(213.845 -22.0214 1.41392e-09)
(212.231 -22.4904 1.51208e-09)
(210.275 -22.9014 1.40405e-09)
(208.016 -23.2594 1.20261e-09)
(205.365 -23.539 6.84698e-10)
(202.468 -23.7667 1.11557e-10)
(199.343 -23.9088 -9.00742e-10)
(196.469 -23.969 -1.93522e-09)
(193.652 -23.8487 -3.3397e-09)
(191.142 -23.7681 -3.79322e-09)
(188.653 -23.5229 -5.07085e-09)
(186.649 -23.2639 -5.89508e-09)
(184.841 -22.7271 -6.76675e-09)
(183.402 -22.254 -7.20334e-09)
(183.037 -21.7389 -8.15066e-09)
(184.911 -20.8177 -1.09357e-08)
(190.62 -20.8879 -1.2558e-08)
(204.539 -21.4824 -1.6908e-08)
(229.828 -22.8107 -2.20501e-08)
(255.63 -23.8675 -2.63359e-08)
(277.803 -24.7603 -2.96115e-08)
(288.941 -26.5149 -3.09854e-08)
(295.839 -34.6631 -3.23776e-08)
(287.448 -53.5421 -3.27387e-08)
(275.129 -72.0733 -3.32302e-08)
(246.996 -67.1274 -3.26692e-08)
(235.293 -67.3318 -3.2586e-08)
(216.33 -61.4721 -3.22209e-08)
(206.915 -58.3937 -3.20843e-08)
(189.502 -52.6491 -3.17724e-08)
(179.974 -48.5888 -3.15675e-08)
(162.664 -42.4783 -3.12819e-08)
(152.775 -37.7517 -3.10216e-08)
(136.166 -31.2763 -3.07638e-08)
(125.728 -26.056 -3.03794e-08)
(113.384 -16.8047 -3.00563e-08)
(111.847 -12.2643 -2.98368e-08)
(107.957 -6.68267 -2.98419e-08)
(105.468 1.30449 -2.9358e-08)
(111.121 3.4916 -2.98068e-08)
(113.938 8.65581 -2.98879e-08)
(116.835 11.7532 -3.01354e-08)
(121.023 15.5199 -3.03109e-08)
(124.798 18.9556 -3.06146e-08)
(130.436 23.1842 -3.08614e-08)
(135.908 27.5026 -3.12152e-08)
(143.594 32.9526 -3.15268e-08)
(151.845 39.109 -3.19326e-08)
(163.024 46.9509 -3.23126e-08)
(176.867 56.9036 -3.27916e-08)
(197.309 71.4786 -3.32618e-08)
(221.3 90.2728 -3.38385e-08)
(241.907 94.6579 -3.44429e-08)
(258.386 73.9815 -3.50137e-08)
(263.72 63.9364 -3.54912e-08)
(266.056 61.5184 -3.56894e-08)
(270.262 62.6654 -3.61455e-08)
(272.856 63.4658 -3.59271e-08)
(275.839 59.6063 -3.69249e-08)
(277.532 51.035 -3.64967e-08)
(279.533 43.401 -3.72229e-08)
(278.85 33.3396 -3.68366e-08)
(278.004 24.7954 -3.7556e-08)
(274.97 16.7012 -3.71359e-08)
(272.278 10.8449 -3.76791e-08)
(268.296 5.71673 -3.73508e-08)
(265.214 1.9854 -3.77439e-08)
(261.551 -1.19582 -3.74741e-08)
(258.96 -3.59793 -3.77473e-08)
(256.277 -5.67089 -3.75336e-08)
(254.711 -7.14223 -3.76938e-08)
(253.724 -7.74746 -3.75849e-08)
(253.358 -7.93814 -3.76073e-08)
(219.983 -4.7995 -1.82418e-10)
(219.788 -5.71114 -1.57297e-10)
(219.572 -6.62083 -1.04179e-10)
(219.42 -7.52514 -6.30207e-11)
(219.242 -8.39275 3.54973e-12)
(219.103 -9.24184 6.14267e-11)
(218.934 -10.0542 1.41414e-10)
(218.784 -10.8538 2.16109e-10)
(218.6 -11.6302 3.08858e-10)
(218.419 -12.3958 3.98494e-10)
(218.203 -13.1353 5.04104e-10)
(217.977 -13.8553 6.10013e-10)
(217.713 -14.5412 7.25891e-10)
(217.425 -15.1989 8.40358e-10)
(217.09 -15.819 9.56013e-10)
(216.709 -16.4094 1.06395e-09)
(216.259 -16.9672 1.15922e-09)
(215.729 -17.502 1.23213e-09)
(215.083 -18.0149 1.26533e-09)
(214.393 -18.5117 1.28201e-09)
(213.608 -18.9918 1.25165e-09)
(212.766 -19.4574 1.18841e-09)
(211.83 -19.9045 1.0621e-09)
(210.826 -20.3305 9.19892e-10)
(209.726 -20.7365 6.76204e-10)
(208.557 -21.1165 4.13865e-10)
(207.313 -21.4731 2.7561e-11)
(205.83 -21.8558 -4.54623e-10)
(203.89 -22.2597 -1.32045e-09)
(202.305 -22.6013 -2.15513e-09)
(200.517 -22.8639 -3.27033e-09)
(199.021 -23.0902 -3.59637e-09)
(197.41 -23.2615 -4.62095e-09)
(196.133 -23.3988 -5.19511e-09)
(194.941 -23.4176 -5.9485e-09)
(193.885 -23.338 -6.42371e-09)
(193.269 -23.1711 -7.1249e-09)
(193.112 -22.9857 -8.07195e-09)
(194.525 -22.8288 -1.00562e-08)
(197.548 -23.041 -1.12165e-08)
(204.148 -23.6032 -1.37538e-08)
(215.875 -24.703 -1.69502e-08)
(233.737 -26.1255 -2.1247e-08)
(253.349 -27.6659 -2.46664e-08)
(273.406 -28.0501 -2.86164e-08)
(287.78 -27.1189 -3.03221e-08)
(299.469 -26.42 -3.21654e-08)
(305.305 -27.0869 -3.26603e-08)
(307.591 -31.1726 -3.32008e-08)
(303.597 -41.4132 -3.32666e-08)
(292.416 -57.7444 -3.32312e-08)
(276.517 -68.0656 -3.30706e-08)
(256.591 -61.9595 -3.28934e-08)
(244.506 -65.35 -3.26395e-08)
(227.862 -57.5579 -3.24813e-08)
(217.675 -57.0995 -3.21931e-08)
(202.676 -49.8135 -3.20722e-08)
(192.625 -47.5256 -3.17611e-08)
(178.162 -40.7119 -3.1678e-08)
(168.183 -37.2399 -3.13454e-08)
(155.111 -30.7832 -3.12959e-08)
(145.973 -26.3742 -3.09445e-08)
(137.71 -18.2056 -3.09038e-08)
(136.059 -13.8374 -3.06328e-08)
(135.386 -5.90475 -3.07271e-08)
(132.908 0.995028 -3.04323e-08)
(138.64 4.57932 -3.07831e-08)
(139.529 10.9696 -3.07251e-08)
(143.233 14.6249 -3.10122e-08)
(145.455 19.6312 -3.10559e-08)
(149.132 23.9291 -3.13667e-08)
(152.45 28.994 -3.14952e-08)
(156.904 34.149 -3.18375e-08)
(162.028 40.1 -3.20494e-08)
(168.645 46.7088 -3.24401e-08)
(177.393 54.5427 -3.27462e-08)
(189.892 64.2624 -3.32163e-08)
(208.609 76.2668 -3.36466e-08)
(232.074 84.854 -3.42005e-08)
(250.995 79.6588 -3.46536e-08)
(260.316 67.7101 -3.50037e-08)
(265.185 63.5583 -3.52726e-08)
(267.592 61.0893 -3.55686e-08)
(272.03 59.6337 -3.60887e-08)
(274.945 55.1725 -3.59117e-08)
(277.792 48.5679 -3.67369e-08)
(278.732 41.195 -3.6241e-08)
(280.055 33.9934 -3.6952e-08)
(278.899 26.4905 -3.65618e-08)
(277.592 20.1403 -3.70853e-08)
(274.455 14.266 -3.6815e-08)
(271.703 9.30766 -3.71803e-08)
(267.974 5.10045 -3.69654e-08)
(264.962 1.73823 -3.72224e-08)
(261.556 -1.00203 -3.70431e-08)
(258.987 -3.07319 -3.72168e-08)
(256.461 -4.57346 -3.70671e-08)
(254.88 -5.4751 -3.71701e-08)
(253.925 -5.77579 -3.7095e-08)
(253.569 -5.88514 -3.71073e-08)
(216.939 -4.516 6.05192e-10)
(216.663 -5.45244 6.61817e-10)
(216.267 -6.37361 6.72055e-10)
(216.008 -7.29279 7.05127e-10)
(215.628 -8.16719 7.03198e-10)
(215.339 -9.02739 7.06859e-10)
(214.925 -9.84942 6.84696e-10)
(214.564 -10.6651 6.52054e-10)
(214.089 -11.4556 5.99117e-10)
(213.653 -12.2356 5.20912e-10)
(213.12 -12.9852 4.23385e-10)
(212.614 -13.7171 2.87582e-10)
(212.024 -14.4178 1.30002e-10)
(211.45 -15.0984 -7.59476e-11)
(210.807 -15.7499 -3.07639e-10)
(210.176 -16.3814 -5.93227e-10)
(209.501 -16.9858 -9.04852e-10)
(208.855 -17.5685 -1.2658e-09)
(208.219 -18.1218 -1.63895e-09)
(207.58 -18.6475 -2.07049e-09)
(206.947 -19.1412 -2.52451e-09)
(206.334 -19.6068 -3.02982e-09)
(205.709 -20.0195 -3.16207e-09)
(205.099 -20.4334 -3.63928e-09)
(204.489 -20.8072 -3.87464e-09)
(203.905 -21.1732 -4.3352e-09)
(203.338 -21.5008 -4.6365e-09)
(202.733 -21.8597 -5.14369e-09)
(202.039 -22.2178 -5.65059e-09)
(201.509 -22.5039 -6.11428e-09)
(200.988 -22.6712 -6.39939e-09)
(200.714 -22.7677 -6.93912e-09)
(200.616 -22.8608 -7.69622e-09)
(201.329 -23.0651 -9.1603e-09)
(202.712 -23.2559 -9.88562e-09)
(205.355 -23.7413 -1.14526e-08)
(209.949 -24.5068 -1.3184e-08)
(217.052 -25.7162 -1.55754e-08)
(229.121 -27.4872 -1.87317e-08)
(242.026 -29.3749 -2.15272e-08)
(258.038 -31.3144 -2.50814e-08)
(272.295 -32.6024 -2.75425e-08)
(285.714 -33.2324 -2.99811e-08)
(296.947 -33.4725 -3.14227e-08)
(305.751 -33.1018 -3.2813e-08)
(311.077 -32.9138 -3.30174e-08)
(314.257 -33.5231 -3.36052e-08)
(315.306 -35.9818 -3.34026e-08)
(312.887 -41.271 -3.35823e-08)
(306.174 -50.7483 -3.32167e-08)
(294.204 -61.8915 -3.30993e-08)
(279.334 -67.2206 -3.25828e-08)
(262.274 -65.1721 -3.27959e-08)
(249.867 -65.1663 -3.22494e-08)
(235.469 -59.8277 -3.23952e-08)
(224.748 -57.4532 -3.18986e-08)
(211.732 -51.421 -3.20177e-08)
(201.411 -47.8926 -3.15786e-08)
(189.023 -41.7754 -3.16931e-08)
(179.179 -37.4836 -3.1285e-08)
(168.459 -31.2252 -3.13886e-08)
(160.276 -25.9414 -3.10362e-08)
(154.009 -18.3002 -3.11456e-08)
(152.301 -12.9599 -3.08551e-08)
(152.212 -5.03764 -3.10063e-08)
(150.306 0.596232 -3.08109e-08)
(154.921 5.91016 -3.10469e-08)
(154.343 11.8018 -3.09669e-08)
(158.261 16.0943 -3.12241e-08)
(158.94 21.0267 -3.12328e-08)
(162.825 25.4655 -3.15156e-08)
(164.794 30.3337 -3.1608e-08)
(169.395 35.4427 -3.19229e-08)
(173.53 41.0822 -3.21023e-08)
(180.515 47.6157 -3.24658e-08)
(189.029 55.3922 -3.27438e-08)
(202.267 65.312 -3.31801e-08)
(219.258 76.2529 -3.35639e-08)
(237.754 81.7572 -3.40631e-08)
(252.198 74.5072 -3.44051e-08)
(260.428 66.6993 -3.46074e-08)
(265.765 64.327 -3.48083e-08)
(269.159 61.9003 -3.53183e-08)
(272.982 59.8101 -3.5396e-08)
(274.783 54.656 -3.5627e-08)
(276.835 47.8172 -3.5965e-08)
(277.627 41.2825 -3.58816e-08)
(278.354 34.4166 -3.61968e-08)
(277.297 27.5109 -3.61112e-08)
(275.953 21.1935 -3.63604e-08)
(273.186 15.3352 -3.62314e-08)
(270.511 10.5055 -3.64834e-08)
(267.076 6.3556 -3.63428e-08)
(264.133 3.06836 -3.65171e-08)
(260.949 0.376971 -3.63921e-08)
(258.488 -1.65742 -3.65099e-08)
(256.192 -3.03841 -3.6401e-08)
(254.762 -3.74219 -3.64662e-08)
(253.938 -3.90568 -3.64063e-08)
(253.624 -3.94777 -3.64211e-08)
(212.154 -3.91961 -2.46459e-09)
(211.783 -4.85668 -2.47346e-09)
(211.38 -5.76173 -2.75997e-09)
(211.088 -6.7334 -2.68418e-09)
(210.747 -7.63214 -2.94757e-09)
(210.483 -8.56911 -2.94767e-09)
(210.155 -9.44499 -3.20214e-09)
(209.883 -10.3465 -3.26696e-09)
(209.556 -11.1984 -3.52203e-09)
(209.288 -12.0652 -3.64198e-09)
(208.979 -12.8884 -3.90355e-09)
(208.728 -13.7156 -4.06911e-09)
(208.445 -14.5007 -4.33762e-09)
(208.216 -15.2775 -4.53722e-09)
(207.963 -16.0083 -4.8079e-09)
(207.761 -16.7152 -5.02614e-09)
(207.541 -17.3659 -5.28757e-09)
(207.365 -17.9733 -5.50435e-09)
(207.172 -18.5128 -5.73975e-09)
(207.004 -18.9998 -5.93178e-09)
(206.817 -19.423 -6.11538e-09)
(206.635 -19.8027 -6.24594e-09)
(206.51 -20.1634 -6.73311e-09)
(206.481 -20.488 -7.04371e-09)
(206.548 -20.7976 -7.50833e-09)
(206.751 -21.091 -7.93944e-09)
(207.096 -21.3865 -8.43002e-09)
(207.711 -21.7475 -9.04059e-09)
(208.708 -22.1502 -9.80667e-09)
(210.377 -22.6403 -1.07258e-08)
(212.685 -23.2253 -1.18315e-08)
(216.157 -24.0191 -1.32789e-08)
(220.878 -25.0408 -1.49458e-08)
(227.906 -26.407 -1.70802e-08)
(236.372 -28.0214 -1.91949e-08)
(246.391 -29.9166 -2.1801e-08)
(257.461 -31.8508 -2.41447e-08)
(268.772 -33.6122 -2.65902e-08)
(278.797 -34.7608 -2.83401e-08)
(289.19 -35.8192 -3.0217e-08)
(298.05 -36.403 -3.15632e-08)
(305.607 -36.7812 -3.25678e-08)
(311.611 -36.7864 -3.32986e-08)
(315.954 -36.6587 -3.35844e-08)
(318.795 -36.5524 -3.38378e-08)
(320.295 -37.0869 -3.36735e-08)
(320.669 -38.5042 -3.37567e-08)
(319.099 -41.5331 -3.33822e-08)
(314.897 -47.3944 -3.33748e-08)
(307.005 -55.6095 -3.2867e-08)
(295.351 -63.4394 -3.26777e-08)
(281.7 -66.2216 -3.20074e-08)
(266.446 -64.8272 -3.2373e-08)
(254.172 -64.1399 -3.17315e-08)
(241.132 -59.1635 -3.1997e-08)
(230.154 -56.7095 -3.14457e-08)
(218.416 -50.6663 -3.16555e-08)
(207.93 -47.1977 -3.12066e-08)
(196.803 -40.9442 -3.13925e-08)
(187.068 -36.6866 -3.09965e-08)
(177.685 -30.2191 -3.11442e-08)
(170.217 -24.9366 -3.08454e-08)
(165.121 -17.4567 -3.1004e-08)
(163.386 -11.6318 -3.07464e-08)
(163.21 -4.12555 -3.08987e-08)
(162.016 1.01012 -3.07857e-08)
(165.116 7.60496 -3.0893e-08)
(164.316 12.9173 -3.08617e-08)
(167.5 18.063 -3.10246e-08)
(167.695 23.0784 -3.10557e-08)
(171.111 27.9677 -3.1265e-08)
(172.538 33.0225 -3.13698e-08)
(176.899 38.3654 -3.16353e-08)
(180.616 44.1486 -3.18239e-08)
(187.629 50.8063 -3.21532e-08)
(196.041 58.4526 -3.2435e-08)
(209.38 67.3722 -3.28449e-08)
(225.222 75.0108 -3.32192e-08)
(241.656 76.2748 -3.36351e-08)
(252.95 70.3994 -3.3882e-08)
(260.63 65.5227 -3.40033e-08)
(266.073 62.6766 -3.40763e-08)
(269.842 59.9256 -3.49488e-08)
(273.194 55.7457 -3.47185e-08)
(274.783 49.937 -3.51818e-08)
(276.233 43.6946 -3.53515e-08)
(276.769 37.6641 -3.53461e-08)
(276.969 31.1404 -3.54212e-08)
(275.794 25.2207 -3.54689e-08)
(274.214 19.5076 -3.55842e-08)
(271.655 14.5162 -3.55067e-08)
(269.065 10.0867 -3.56845e-08)
(265.979 6.44387 -3.56004e-08)
(263.178 3.43753 -3.57198e-08)
(260.286 1.14875 -3.56311e-08)
(257.947 -0.526142 -3.57009e-08)
(255.908 -1.57927 -3.56214e-08)
(254.633 -2.11047 -3.56614e-08)
(253.925 -2.2235 -3.56176e-08)
(253.651 -2.25171 -3.5634e-08)
(212.218 -3.32305 -5.7716e-09)
(211.79 -4.3098 -5.80664e-09)
(211.469 -5.33789 -5.79729e-09)
(211.192 -6.35636 -5.96742e-09)
(210.981 -7.37003 -6.04968e-09)
(210.798 -8.36652 -6.21003e-09)
(210.643 -9.33728 -6.35959e-09)
(210.514 -10.2985 -6.5306e-09)
(210.408 -11.2225 -6.73332e-09)
(210.355 -12.1289 -6.92845e-09)
(210.335 -12.9858 -7.17628e-09)
(210.389 -13.8154 -7.40506e-09)
(210.488 -14.5883 -7.69507e-09)
(210.682 -15.3296 -7.96582e-09)
(210.937 -16.0176 -8.30006e-09)
(211.306 -16.6797 -8.62193e-09)
(211.759 -17.3017 -9.00823e-09)
(212.345 -17.9083 -9.39484e-09)
(213.041 -18.4854 -9.85095e-09)
(213.915 -19.0595 -1.03347e-08)
(214.964 -19.627 -1.09087e-08)
(216.287 -20.2146 -1.15556e-08)
(217.888 -20.8256 -1.23114e-08)
(219.852 -21.4753 -1.30747e-08)
(222.263 -22.1795 -1.40012e-08)
(225.247 -22.9597 -1.49826e-08)
(228.95 -23.8489 -1.61694e-08)
(234.319 -25.0543 -1.77025e-08)
(239.468 -26.2797 -1.91778e-08)
(246.597 -27.8675 -2.10329e-08)
(253.433 -29.4132 -2.27425e-08)
(261.416 -31.1287 -2.46054e-08)
(268.998 -32.7203 -2.62481e-08)
(276.474 -34.1685 -2.77681e-08)
(283.806 -35.4974 -2.91475e-08)
(291.065 -36.6868 -3.0471e-08)
(297.831 -37.6767 -3.15198e-08)
(303.974 -38.4628 -3.24701e-08)
(309.348 -39.0641 -3.30867e-08)
(314.003 -39.4963 -3.36716e-08)
(317.649 -39.721 -3.38893e-08)
(320.567 -39.7991 -3.41006e-08)
(322.6 -39.8214 -3.40514e-08)
(323.956 -39.9848 -3.39952e-08)
(324.643 -40.456 -3.38264e-08)
(324.61 -41.5102 -3.3617e-08)
(323.562 -43.4862 -3.3427e-08)
(320.757 -47.1883 -3.30975e-08)
(315.551 -52.7775 -3.28863e-08)
(307.17 -59.4737 -3.23946e-08)
(296.054 -64.9363 -3.20876e-08)
(283.195 -66.6851 -3.14022e-08)
(269.205 -65.3298 -3.17852e-08)
(257.356 -63.9533 -3.11551e-08)
(245.12 -59.4787 -3.14332e-08)
(234.334 -56.3246 -3.0907e-08)
(223.217 -50.6288 -3.11297e-08)
(212.947 -46.5935 -3.07265e-08)
(202.441 -40.4926 -3.09245e-08)
(193.062 -35.7298 -3.05683e-08)
(184.39 -29.1379 -3.07182e-08)
(177.554 -23.4467 -3.04765e-08)
(173.002 -16.144 -3.06507e-08)
(171.225 -10.0297 -3.04356e-08)
(170.78 -3.05354 -3.05794e-08)
(170.086 1.94695 -3.05204e-08)
(171.929 8.8614 -3.05374e-08)
(171.41 13.8274 -3.05559e-08)
(173.662 19.3879 -3.06352e-08)
(174.019 24.2364 -3.06994e-08)
(176.894 29.2859 -3.08427e-08)
(178.493 34.2403 -3.09747e-08)
(182.679 39.5729 -3.1195e-08)
(186.688 45.274 -3.14015e-08)
(193.905 51.8485 -3.16987e-08)
(202.676 59.2858 -3.19911e-08)
(215.655 67.3318 -3.23661e-08)
(229.616 72.9246 -3.27263e-08)
(243.462 72.4295 -3.30818e-08)
(253.074 67.8681 -3.32767e-08)
(260.509 64.4319 -3.33698e-08)
(265.841 61.2141 -3.33662e-08)
(269.456 58.3605 -3.41365e-08)
(271.889 53.3211 -3.41606e-08)
(273.242 47.8193 -3.43928e-08)
(274.316 41.8415 -3.46415e-08)
(274.81 36.1821 -3.44831e-08)
(274.785 30.1199 -3.46213e-08)
(273.787 24.6457 -3.46441e-08)
(272.263 19.2628 -3.47616e-08)
(270.005 14.7102 -3.47169e-08)
(267.548 10.5605 -3.48262e-08)
(264.763 7.1985 -3.47863e-08)
(262.126 4.3552 -3.48625e-08)
(259.548 2.23242 -3.48031e-08)
(257.419 0.699577 -3.4841e-08)
(255.656 -0.170945 -3.47835e-08)
(254.529 -0.600803 -3.48054e-08)
(253.913 -0.688068 -3.47751e-08)
(253.672 -0.711077 -3.47827e-08)
(218.376 -2.39077 -1.0131e-08)
(217.825 -3.4016 -1.01128e-08)
(217.74 -4.42387 -1.03002e-08)
(217.558 -5.50709 -1.03975e-08)
(217.722 -6.56635 -1.06262e-08)
(217.834 -7.64759 -1.08186e-08)
(218.194 -8.69246 -1.11043e-08)
(218.557 -9.73696 -1.13805e-08)
(219.146 -10.7424 -1.17335e-08)
(219.819 -11.7525 -1.20936e-08)
(220.724 -12.7413 -1.25287e-08)
(221.786 -13.7441 -1.29859e-08)
(223.111 -14.7409 -1.35264e-08)
(224.679 -15.762 -1.41087e-08)
(226.58 -16.7937 -1.47917e-08)
(228.849 -17.8651 -1.55461e-08)
(231.594 -18.9727 -1.64314e-08)
(234.836 -20.1425 -1.74096e-08)
(238.327 -21.3337 -1.84446e-08)
(242.273 -22.5851 -1.95527e-08)
(246.492 -23.8588 -2.07119e-08)
(251.097 -25.1708 -2.19141e-08)
(255.92 -26.4826 -2.31366e-08)
(261.009 -27.7991 -2.43618e-08)
(266.194 -29.0899 -2.55794e-08)
(271.428 -30.349 -2.67395e-08)
(276.493 -31.5357 -2.7834e-08)
(281.87 -32.7973 -2.89163e-08)
(285.996 -33.8528 -2.97193e-08)
(291.781 -35.1752 -3.07917e-08)
(295.872 -36.1749 -3.1475e-08)
(301.1 -37.3516 -3.23363e-08)
(304.79 -38.2308 -3.28366e-08)
(309.206 -39.2079 -3.34517e-08)
(312.464 -39.9358 -3.37886e-08)
(316.084 -40.662 -3.41801e-08)
(318.646 -41.1463 -3.43206e-08)
(321.343 -41.6149 -3.44991e-08)
(323.152 -41.9232 -3.4463e-08)
(324.984 -42.222 -3.44738e-08)
(326.058 -42.3783 -3.42925e-08)
(327.085 -42.5999 -3.41942e-08)
(327.594 -42.8717 -3.39204e-08)
(327.883 -43.3566 -3.37552e-08)
(327.662 -44.1664 -3.34491e-08)
(326.851 -45.5843 -3.32298e-08)
(324.905 -48.0609 -3.2911e-08)
(321.354 -51.8982 -3.26126e-08)
(315.522 -56.9777 -3.22614e-08)
(307.16 -62.2505 -3.1821e-08)
(296.62 -66.1266 -3.13929e-08)
(284.466 -67.1611 -3.07679e-08)
(271.435 -65.654 -3.10965e-08)
(260.08 -63.7117 -3.05308e-08)
(248.426 -59.3752 -3.07707e-08)
(237.904 -55.8015 -3.03065e-08)
(227.219 -50.1568 -3.05066e-08)
(217.161 -45.7939 -3.0167e-08)
(207.084 -39.635 -3.03572e-08)
(197.994 -34.5527 -3.00482e-08)
(189.819 -27.767 -3.01866e-08)
(183.399 -21.8492 -2.9997e-08)
(179.156 -14.5953 -3.0171e-08)
(177.254 -8.41463 -2.99965e-08)
(176.594 -1.71458 -3.01272e-08)
(176.13 3.37493 -3.0103e-08)
(177.208 10.2514 -3.00661e-08)
(176.89 15.1669 -3.01103e-08)
(178.457 20.9976 -3.01337e-08)
(179.007 25.8185 -3.02143e-08)
(181.385 31.0636 -3.0308e-08)
(183.2 36.0228 -3.04561e-08)
(187.104 41.428 -3.06398e-08)
(191.373 47.1251 -3.08603e-08)
(198.512 53.5572 -3.11303e-08)
(207.437 60.4397 -3.14332e-08)
(219.772 66.9484 -3.17787e-08)
(232.429 70.3368 -3.21186e-08)
(244.363 69.0948 -3.2405e-08)
(252.934 65.7132 -3.25581e-08)
(260.126 62.6197 -3.26209e-08)
(265.225 58.8996 -3.27716e-08)
(268.566 55.6923 -3.32861e-08)
(270.583 50.187 -3.35436e-08)
(271.735 45.2234 -3.35992e-08)
(272.61 39.4471 -3.3816e-08)
(273.04 34.272 -3.36799e-08)
(272.882 28.5951 -3.38411e-08)
(271.969 23.6548 -3.37814e-08)
(270.49 18.6671 -3.39308e-08)
(268.446 14.5368 -3.38695e-08)
(266.143 10.6729 -3.39685e-08)
(263.631 7.64464 -3.39384e-08)
(261.204 5.06235 -3.39938e-08)
(258.895 3.23522 -3.39499e-08)
(256.975 1.89502 -3.39704e-08)
(255.442 1.17733 -3.39287e-08)
(254.444 0.809606 -3.39359e-08)
(253.9 0.740282 -3.3916e-08)
(253.686 0.720379 -3.39182e-08)
(237.345 -1.01992 -1.73406e-08)
(237.217 -2.14009 -1.74623e-08)
(237.79 -3.32655 -1.77882e-08)
(238.314 -4.63336 -1.8049e-08)
(239.45 -5.97125 -1.84894e-08)
(240.614 -7.38447 -1.88966e-08)
(242.311 -8.80126 -1.94596e-08)
(244.095 -10.2522 -2.0013e-08)
(246.345 -11.7006 -2.0698e-08)
(248.725 -13.1872 -2.13852e-08)
(251.524 -14.6954 -2.21787e-08)
(254.484 -16.2527 -2.29769e-08)
(257.804 -17.8365 -2.38541e-08)
(261.268 -19.4557 -2.47268e-08)
(264.993 -21.0806 -2.56439e-08)
(268.777 -22.7052 -2.65313e-08)
(272.645 -24.2944 -2.74148e-08)
(276.444 -25.8432 -2.82393e-08)
(280.431 -27.3625 -2.90923e-08)
(284.339 -28.8281 -2.98838e-08)
(288.314 -30.2402 -3.06715e-08)
(292.172 -31.5861 -3.1391e-08)
(295.992 -32.8638 -3.20816e-08)
(299.651 -34.0699 -3.2698e-08)
(303.188 -35.203 -3.32695e-08)
(306.527 -36.2652 -3.37628e-08)
(309.688 -37.2548 -3.42047e-08)
(313.009 -38.3084 -3.46179e-08)
(314.428 -38.9683 -3.46977e-08)
(317.499 -39.9329 -3.50244e-08)
(318.996 -40.6044 -3.5037e-08)
(321.394 -41.3659 -3.52225e-08)
(322.615 -41.944 -3.51374e-08)
(324.489 -42.5528 -3.52114e-08)
(325.481 -43.0422 -3.50494e-08)
(326.904 -43.5123 -3.50325e-08)
(327.64 -43.9004 -3.48019e-08)
(328.64 -44.2419 -3.47134e-08)
(329.137 -44.5512 -3.44272e-08)
(329.774 -44.8109 -3.42905e-08)
(330.04 -45.116 -3.39605e-08)
(330.352 -45.4451 -3.37897e-08)
(330.275 -45.9168 -3.34443e-08)
(330.099 -46.6009 -3.3245e-08)
(329.314 -47.7138 -3.28905e-08)
(327.962 -49.5092 -3.26587e-08)
(325.393 -52.2426 -3.2284e-08)
(321.343 -56.0129 -3.19881e-08)
(315.23 -60.4104 -3.15641e-08)
(307.107 -64.5993 -3.11545e-08)
(297.088 -67.4305 -3.0652e-08)
(285.513 -68.0527 -3.01009e-08)
(273.313 -66.1855 -3.03567e-08)
(262.446 -63.8997 -2.9863e-08)
(251.303 -59.4768 -3.00513e-08)
(241.081 -55.5222 -2.96553e-08)
(230.744 -49.8382 -2.98238e-08)
(220.923 -45.0868 -2.955e-08)
(211.178 -38.8391 -2.97274e-08)
(202.372 -33.333 -2.94618e-08)
(194.561 -26.3599 -2.95864e-08)
(188.421 -20.1497 -2.94398e-08)
(184.308 -12.9555 -2.9612e-08)
(182.245 -6.74022 -2.94686e-08)
(181.403 -0.235381 -2.9589e-08)
(181.002 4.92906 -2.95877e-08)
(181.619 11.6001 -2.952e-08)
(181.381 16.5628 -2.95747e-08)
(182.499 22.4551 -2.9564e-08)
(183.138 27.2373 -2.96476e-08)
(185.175 32.5479 -2.97087e-08)
(187.154 37.4158 -2.98637e-08)
(190.904 42.7937 -3.00235e-08)
(195.461 48.3361 -3.0254e-08)
(202.597 54.5003 -3.05057e-08)
(211.553 60.71 -3.08125e-08)
(222.992 65.9065 -3.11299e-08)
(234.305 67.8765 -3.14433e-08)
(244.773 66.5142 -3.16816e-08)
(252.776 63.8005 -3.18246e-08)
(259.642 60.703 -3.18834e-08)
(264.421 56.7394 -3.20519e-08)
(267.37 53.3142 -3.26074e-08)
(269.121 47.8472 -3.25771e-08)
(270.098 43.2519 -3.2998e-08)
(270.897 37.7109 -3.27371e-08)
(271.243 32.923 -3.30248e-08)
(271.06 27.5763 -3.29345e-08)
(270.208 23.0284 -3.30017e-08)
(268.832 18.3666 -3.30744e-08)
(266.969 14.5701 -3.30422e-08)
(264.859 10.9693 -3.31147e-08)
(262.582 8.21681 -3.30954e-08)
(260.377 5.83524 -3.3135e-08)
(258.314 4.22167 -3.31024e-08)
(256.6 3.04658 -3.31032e-08)
(255.255 2.44728 -3.308e-08)
(254.369 2.12522 -3.30732e-08)
(253.886 2.06956 -3.30633e-08)
(253.693 2.05184 -3.30597e-08)
(268.089 -0.223149 -2.62422e-08)
(268.881 -1.5933 -2.65789e-08)
(270.05 -3.10168 -2.69861e-08)
(271.407 -4.76329 -2.74007e-08)
(273.114 -6.49595 -2.7882e-08)
(274.969 -8.31312 -2.83636e-08)
(277.127 -10.149 -2.89045e-08)
(279.375 -12.013 -2.94354e-08)
(281.855 -13.8598 -3.00113e-08)
(284.364 -15.7022 -3.05653e-08)
(287.039 -17.5206 -3.11471e-08)
(289.705 -19.3377 -3.16949e-08)
(292.487 -21.1359 -3.22544e-08)
(295.226 -22.9267 -3.27696e-08)
(298.027 -24.6915 -3.3282e-08)
(300.753 -26.4348 -3.37419e-08)
(303.493 -28.1379 -3.41876e-08)
(306.135 -29.7989 -3.45785e-08)
(308.756 -31.3962 -3.49492e-08)
(311.239 -32.9247 -3.52586e-08)
(313.665 -34.3715 -3.55424e-08)
(315.926 -35.7326 -3.57631e-08)
(318.099 -37.0018 -3.59559e-08)
(320.091 -38.1781 -3.60864e-08)
(321.975 -39.2605 -3.61884e-08)
(323.677 -40.2504 -3.62337e-08)
(325.255 -41.1501 -3.62514e-08)
(326.794 -42.0696 -3.62118e-08)
(327.008 -42.5529 -3.60419e-08)
(328.312 -43.2841 -3.59742e-08)
(328.764 -43.8571 -3.57294e-08)
(329.643 -44.327 -3.56348e-08)
(329.966 -44.8194 -3.53448e-08)
(330.643 -45.1953 -3.52224e-08)
(330.879 -45.6451 -3.49042e-08)
(331.43 -45.9865 -3.47571e-08)
(331.586 -46.3984 -3.44196e-08)
(332.006 -46.6979 -3.42538e-08)
(332.076 -47.0676 -3.39001e-08)
(332.34 -47.355 -3.37159e-08)
(332.257 -47.7481 -3.33589e-08)
(332.275 -48.1711 -3.3157e-08)
(331.872 -48.8192 -3.27985e-08)
(331.353 -49.734 -3.25779e-08)
(330.158 -51.1376 -3.22135e-08)
(328.383 -53.1816 -3.19611e-08)
(325.362 -56.0312 -3.15706e-08)
(321.017 -59.5411 -3.12631e-08)
(314.861 -63.3277 -3.08192e-08)
(307.045 -66.7144 -3.04196e-08)
(297.525 -68.8539 -2.98951e-08)
(286.488 -69.164 -2.93995e-08)
(275.047 -66.8607 -2.95937e-08)
(264.639 -64.2934 -2.91572e-08)
(253.979 -59.6652 -2.93004e-08)
(244.06 -55.3762 -2.89606e-08)
(234.041 -49.5431 -2.91018e-08)
(224.451 -44.4373 -2.8885e-08)
(214.999 -38.0171 -2.90529e-08)
(206.454 -32.1189 -2.88239e-08)
(198.935 -24.9273 -2.89368e-08)
(192.979 -18.444 -2.88236e-08)
(188.897 -11.2325 -2.89922e-08)
(186.642 -4.95885 -2.88765e-08)
(185.605 1.45407 -2.89881e-08)
(185.163 6.63188 -2.90039e-08)
(185.494 13.1276 -2.89176e-08)
(185.249 18.1801 -2.89762e-08)
(186.056 24.0661 -2.89441e-08)
(186.696 28.8656 -2.90251e-08)
(188.503 34.2121 -2.90654e-08)
(190.567 39.0194 -2.9224e-08)
(194.232 44.3622 -2.93691e-08)
(198.96 49.7068 -2.96062e-08)
(206.019 55.4743 -2.98467e-08)
(214.783 60.7951 -3.01548e-08)
(225.355 64.6671 -3.04468e-08)
(235.623 65.6196 -3.07407e-08)
(245.022 64.3444 -3.0954e-08)
(252.601 61.8378 -3.10931e-08)
(259.062 58.5644 -3.11511e-08)
(263.509 54.3917 -3.13129e-08)
(266.148 50.8361 -3.18288e-08)
(267.724 45.5751 -3.16705e-08)
(268.565 41.2758 -3.23777e-08)
(269.302 36.0338 -3.17713e-08)
(269.563 31.586 -3.23207e-08)
(269.388 26.5825 -3.19546e-08)
(268.574 22.3919 -3.232e-08)
(267.319 18.0625 -3.21349e-08)
(265.606 14.5821 -3.23052e-08)
(263.691 11.263 -3.22355e-08)
(261.622 8.76869 -3.23033e-08)
(259.639 6.61221 -3.22668e-08)
(257.794 5.19044 -3.22891e-08)
(256.274 4.15092 -3.22487e-08)
(255.088 3.64014 -3.2252e-08)
(254.301 3.35389 -3.22366e-08)
(253.869 3.30823 -3.22299e-08)
(253.695 3.29227 -3.22268e-08)
(296.211 0.0229019 -3.3109e-08)
(297.105 -1.45626 -3.34272e-08)
(297.946 -3.11008 -3.37073e-08)
(299.157 -4.93839 -3.40315e-08)
(300.364 -6.8649 -3.43256e-08)
(301.843 -8.88982 -3.46451e-08)
(303.328 -10.9466 -3.49402e-08)
(304.98 -13.0322 -3.5243e-08)
(306.618 -15.0987 -3.55231e-08)
(308.323 -17.15 -3.57955e-08)
(309.988 -19.1588 -3.60442e-08)
(311.657 -21.145 -3.62734e-08)
(313.292 -23.0982 -3.64778e-08)
(314.906 -25.027 -3.66548e-08)
(316.49 -26.9161 -3.6806e-08)
(318.031 -28.7659 -3.69237e-08)
(319.54 -30.5595 -3.70173e-08)
(320.988 -32.2948 -3.70736e-08)
(322.399 -33.9556 -3.71057e-08)
(323.73 -35.5406 -3.71006e-08)
(325.017 -37.0366 -3.70729e-08)
(326.212 -38.4438 -3.70092e-08)
(327.356 -39.7524 -3.69245e-08)
(328.401 -40.9661 -3.68065e-08)
(329.392 -42.0784 -3.66713e-08)
(330.282 -43.0965 -3.65038e-08)
(331.11 -44.0165 -3.63236e-08)
(331.867 -44.9473 -3.60892e-08)
(331.878 -45.3689 -3.58873e-08)
(332.529 -46.0989 -3.5653e-08)
(332.638 -46.5743 -3.5361e-08)
(333.069 -47.0426 -3.51506e-08)
(333.11 -47.4285 -3.48345e-08)
(333.431 -47.7896 -3.46191e-08)
(333.432 -48.1327 -3.42962e-08)