/*--------------------------------*- C++ -*----------------------------------*\
  =========                 |
  \\      /  F ield         | OpenFOAM: The Open Source CFD Toolbox
   \\    /   O peration     | Website:  https://openfoam.org
    \\  /    A nd           | Version:  7
     \\/     M anipulation  |
\*---------------------------------------------------------------------------*/
FoamFile
{
    version     2.0;
    format      ascii;
    class       scalarField;
    location    "0.7/lagrangian/reactingCloud1";
    object      age;
}
// * * * * * * * * * * * * * * * * * * * * * * * * * * * * * * * * * * * * * //


2438
(
0.0059
0.004535
0.004115
0.00401
0.003905
0.0038
0.003695
0.00359
0.003485
0.00338
0.003275
0.00317
0.003065
0.00296
0.002855
0.00275
0.002645
0.00254
0.002435
0.00233
0.002225
0.00212
0.002015
0.00191
0.001805
0.0017
0.001595
0.00159125
0.00149
0.001385
0.00128
0.001175
0.00107
0.000965
0.00086
0.000755
0.00065
0.000545
0.00044
0.000335
0.00023
0.000125
2e-05
0.04456
0.0427737
0.01105
0.010105
0.01
0.0099
0.0098
0.0097
0.0096
0.0095
0.0094
0.0093
0.0092
0.0091
0.009
0.0089
0.0088
0.0087
0.0086
0.0085
0.0084
0.0083
0.0082
0.0081
0.008
0.0079
0.0078
0.0077
0.0076
0.0074
0.0075
0.0073
0.0072
0.0071
0.007
0.0069
0.0068
0.0067
0.0066
0.0065
0.0064
0.0062
0.0061
0.006
0.005795
0.00569
0.005585
0.00548
0.005375
0.00527
0.005165
0.00506
0.00505625
0.004955
0.00485
0.004745
0.00464
0.0063
0.00443
0.004325
0.00422
0.012205
0.01231
0.011995
0.01168
0.01189
0.01728
0.013045
0.011785
0.011575
0.01147
0.011365
0.01126
0.01084
0.011155
0.010735
0.010945
0.010525
0.01063
0.0121
0.01042
0.01021
0.0101012
0.010315
0.01628
0.01336
0.013255
0.013675
0.0136712
0.01315
0.013465
0.01462
0.012835
0.01294
0.01273
0.012625
0.01252
0.0128312
0.012415
0.014935
0.01483
0.015145
0.01504
0.014515
0.014305
0.0142
0.01888
0.01708
0.01399
0.01441
0.01598
0.014095
0.013885
0.01378
0.01357
0.014725
0.01758
0.01748
0.01798
0.01668
0.01698
0.01688
0.01678
0.01648
0.01618
0.01588
0.01608
0.01638
0.01525
0.01567
0.015775
0.015565
0.015355
0.01658
0.01546
0.02124
0.020295
0.01968
0.02061
0.01998
0.01938
0.01988
0.01978
0.01958
0.01908
0.01948
0.01898
0.01928
0.01918
0.01838
0.01848
0.02187
0.01828
0.01778
0.02706
0.01858
0.024915
0.01868
0.01878
0.020085
0.01808
0.01788
0.01818
0.01738
0.01768
0.01718
0.02586
0.02481
0.02816
0.02544
0.02376
0.02397
0.02418
0.023865
0.023655
0.024075
0.023445
0.02334
0.02313
0.02292
0.023025
0.02355
0.022815
0.0225
0.0226012
0.025545
0.02229
0.023235
0.021975
0.022185
0.022395
0.022605
0.0214462
0.021765
0.021345
0.02271
0.02145
0.020925
0.02208
0.021135
0.020715
0.021555
0.02103
0.0204
0.020505
0.02166
0.02019
0.02082
0.0349354
0.0526669
0.0300452
0.0999742
0.029752
0.0311574
0.0247974
0.02956
0.030065
0.02996
0.03017
0.02936
0.02906
0.02896
0.02926
0.02976
0.02856
0.02866
0.02886
0.02916
0.02836
0.03143
0.02946
0.0305862
0.02826
0.02806
0.02846
0.02746
0.02786
0.02766
0.02696
0.02776
0.02716
0.02726
0.02736
0.0329
0.02876
0.02666
0.02646
0.02756
0.02636
0.02606
0.02656
0.02626
0.02616
0.02596
0.025755
0.0257512
0.02676
0.02565
0.025335
0.031115
0.02686
0.02502
0.02523
0.025125
0.024705
0.0246
0.02796
0.024285
0.024495
0.02439
0.0359542
0.0380118
0.0373718
0.0388303
0.0363295
0.0358298
0.0351609
0.0363707
0.0355561
0.0362822
0.0316035
0.0327039
0.0330819
0.0327171
0.0345747
0.0323856
0.0376784
0.0324017
0.038045
0.038745
0.037845
0.036845
0.037245
0.037345
0.036945
0.036545
0.036445
0.038945
0.037445
0.037945
0.037045
0.038545
0.036045
0.04057
0.03563
0.03584
0.036145
0.039145
0.035525
0.037745
0.037545
0.036245
0.036345
0.04309
0.035105
0.030523
0.03521
0.034895
0.03542
0.035315
0.034685
0.03479
0.034475
0.034265
0.03458
0.036645
0.034055
0.033845
0.03416
0.033425
0.03353
0.035735
0.03374
0.033215
0.03332
0.035945
0.03437
0.033635
0.03269
0.037645
0.032585
0.03395
0.032795
0.03185
0.032165
0.031535
0.035
0.033005
0.030905
0.03101
0.03059
0.030695
0.03122
0.03248
0.03311
0.0308
0.031955
0.030275
0.031325
0.03038
0.03206
0.032375
0.03227
0.03164
0.031745
0.02986
0.030485
0.02966
0.0425621
0.0425732
0.0435438
0.0436598
0.0408475
0.0460341
0.0416901
0.0408656
0.0440644
0.0423864
0.0497059
0.0470821
0.0454728
0.0440654
0.0406628
0.0429459
0.0400729
0.0393575
0.0421466
0.0434519
0.0395052
0.0430304
0.0412161
0.0425969
0.0409007
0.0392321
0.037827
0.0413717
0.0371058
0.0386083
0.0396581
0.0373995
0.05475
0.05055
0.051915
0.046525
0.049425
0.047125
0.045085
0.0441362
0.04561
0.04393
0.045505
0.04477
0.0438212
0.0433
0.048125
0.04351
0.049625
0.04519
0.043615
0.044875
0.043405
0.044455
0.04267
0.043825
0.04372
0.042355
0.044245
0.04414
0.042145
0.044035
0.0447662
0.04288
0.042565
0.04204
0.046425
0.04183
0.04162
0.047025
0.04435
0.0412
0.041935
0.0454
0.041305
0.041725
0.04078
0.04036
0.041515
0.040465
0.040675
0.048025
0.039545
0.04141
0.039845
0.039945
0.039345
0.039645
0.04225
0.038845
0.040885
0.038645
0.040045
0.039745
0.042985
0.038245
0.040255
0.039445
0.048725
0.04246
0.04015
0.038345
0.039045
0.039245
0.038445
0.041095
0.037145
0.036745
0.038145
0.043195
0.0521372
0.0567172
0.0552326
0.0509991
0.0553175
0.0552186
0.0550346
0.0540671
0.0549769
0.0526455
0.0566178
0.0478903
0.0534244
0.0533629
0.0480382
0.0568032
0.0490791
0.0493767
0.0556327
0.0498761
0.0490586
0.0558423
0.0572186
0.0543804
0.0529389
0.0481326
0.0552221
0.054346
0.0488436
0.0473258
0.0480964
0.0550403
0.0556484
0.0538104
0.0537222
0.0558496
0.052751
0.0448607
0.0522424
0.0489842
0.0549131
0.0534969
0.0574783
0.052699
0.0455297
0.0541658
0.0536548
0.046376
0.0547681
0.0492792
0.0456039
0.0540087
0.0463925
0.0441987
0.051702
0.0466398
0.0462869
0.0546601
0.0480268
0.0507911
0.0608867
0.0557483
0.0576071
0.0548449
0.0444173
0.0437463
0.0556324
0.0519868
0.07114
0.0446824
0.080905
0.06284
0.059905
0.061895
0.059605
0.059205
0.060005
0.059305
0.058005
0.0488761
0.062525
0.087545
0.059505
0.066085
0.057305
0.0448603
0.058505
0.061055
0.055695
0.059705
0.056805
0.055485
0.056005
0.056205
0.055065
0.05517
0.05538
0.057105
0.054855
0.058105
0.05559
0.057205
0.058805
0.06053
0.054435
0.055905
0.045498
0.0537
0.058405
0.056505
0.06095
0.053385
0.05433
0.0453725
0.05496
0.05328
0.0529612
0.053175
0.060845
0.056905
0.05391
0.05286
0.052545
0.057805
0.054225
0.057505
0.05223
0.052755
0.058205
0.052965
0.05454
0.0516
0.05307
0.05118
0.05076
0.058705
0.050445
0.049925
0.051075
0.053595
0.049725
0.05139
0.0524365
0.05013
0.057705
0.049525
0.049325
0.049125
0.052125
0.050235
0.049225
0.050655
0.048825
0.05181
0.05265
0.059805
0.048225
0.049825
0.049025
0.048525
0.057405
0.047725
0.052335
0.047225
0.05202
0.05097
0.048325
0.051285
0.055275
0.047825
0.047425
0.05034
0.046925
0.051705
0.048925
0.051495
0.046325
0.046225
0.050865
0.0558
0.056305
0.047325
0.045715
0.048425
0.046025
0.047525
0.046825
0.045295
0.048625
0.047625
0.045925
0.05412
0.04582
0.046625
0.046125
0.047925
0.044665
0.04498
0.046725
0.050025
0.0629039
0.0672629
0.0621628
0.0645811
0.0661291
0.0628919
0.0675319
0.0659909
0.0668278
0.0684047
0.0604141
0.0628097
0.062954
0.065682
0.0619079
0.0726619
0.0645747
0.069747
0.0683213
0.0675619
0.0731404
0.0691055
0.0694261
0.0679263
0.0595457
0.0651076
0.0639905
0.0620709
0.0629411
0.0620561
0.058921
0.0599564
0.0724186
0.0636371
0.0722139
0.0799103
0.067648
0.0666034
0.0676334
0.0635859
0.067316
0.0684415
0.0623023
0.0700186
0.068472
0.0709509
0.0763259
0.0720147
0.0632656
0.0653203
0.0590072
0.0660723
0.0623381
0.061164
0.0611782
0.0583479
0.0579493
0.0583524
0.0628097
0.0694974
0.0682496
0.0708426
0.0674291
0.0692751
0.0671489
0.0687342
0.0669024
0.0618335
0.0706294
0.0666269
0.0610523
0.0697802
0.0662662
0.0645131
0.0580118
0.073397
0.0717771
0.0629978
0.0576177
0.063606
0.0634493
0.0653287
0.070524
0.0628271
0.0676455
0.0584316
0.0759433
0.0604852
0.0677907
0.0686887
0.0609697
0.060022
0.0703298
0.0642402
0.0690758
0.0664147
0.0712124
0.0692192
0.0687471
0.0615
0.0681915
0.0616201
0.0696056
0.0633192
0.0635174
0.0571511
0.0595749
0.0683804
0.0618722
0.0583885
0.0626532
0.0570053
0.0636584
0.0612188
0.0657892
0.064317
0.0637734
0.0573024
0.0658415
0.0640864
0.0630553
0.0614833
0.0696558
0.0660657
0.0757805
0.066672
0.0653799
0.0667122
0.0638673
0.067378
0.0658615
0.056781
0.0705123
0.0725691
0.0656274
0.0562269
0.0702124
0.062555
0.0582529
0.0730995
0.0685263
0.0645228
0.0619422
0.0570245
0.0691174
0.0649663
0.0595316
0.0576696
0.0592701
0.0669383
0.060072
0.0609441
0.0614913
0.0560571
0.0638704
0.0685542
0.0741334
0.0691884
0.0652366
0.0589515
0.0649505
0.0630469
0.0601882
0.0606329
0.0579946
0.0599092
0.0705171
0.056898
0.0670308
0.0601545
0.0676965
0.0622934
0.0703753
0.0660778
0.0693781
0.0711844
0.0645111
0.0558552
0.0716832
0.0589376
0.0560534
0.0663368
0.0814262
0.074815
0.0622501
0.0660962
0.074605
0.075865
0.07429
0.07135
0.073555
0.075025
0.077465
0.07471
0.0556969
0.07177
0.069585
0.069385
0.078465
0.072295
0.068485
0.0699812
0.069185
0.07219
0.087745
0.07387
0.07198
0.07303
0.071035
0.069485
0.07408
0.0724
0.0660889
0.068685
0.068985
0.083845
0.067985
0.068885
0.078065
0.070195
0.075445
0.072085
0.067885
0.067485
0.068585
0.069285
0.079065
0.068185
0.069685
0.148483
0.07051
0.066685
0.065462
0.07261
0.07009
0.070615
0.069785
0.07093
0.0746012
0.07324
0.066185
0.066385
0.067685
0.06494
0.065985
0.066785
0.078265
0.066585
0.0912
0.07072
0.068785
0.0645162
0.06578
0.065045
0.0689982
0.077365
0.06431
0.063995
0.068285
0.066485
0.068385
0.0722912
0.0674758
0.063365
0.0623142
0.08059
0.067785
0.065885
0.0597382
0.06557
0.064415
0.06389
0.06326
0.06263
0.06536
0.066985
0.0641
0.069885
0.0666321
0.07534
0.062945
0.061685
0.074395
0.0555909
0.061265
0.060425
0.066285
0.068085
0.064205
0.066885
0.063785
0.062105
0.06032
0.067285
0.067385
0.064835
0.065675
0.065255
0.060215
0.059105
0.0615752
0.06011
0.063155
0.063575
0.059405
0.06347
0.058605
0.064625
0.06179
0.060635
0.06116
0.06221
0.057605
0.057005
0.059005
0.0621012
0.057905
0.06305
0.058905
0.06074
0.056405
0.06368
0.056105
0.056705
0.067185
0.058305
0.06473
0.0836101
0.0810913
0.0798447
0.0792255
0.0813225
0.0769905
0.0756876
0.0812762
0.0850597
0.0773261
0.0748834
0.0918121
0.0750534
0.0824167
0.0757301
0.0765494
0.0753518
0.0946886
0.0777095
0.0926404
0.0842787
0.0810375
0.0880535
0.0771556
0.0821916
0.0877659
0.0734618
0.0778845
0.0816506
0.0787939
0.0801309
0.0833655
0.078924
0.0796439
0.0787965
0.0821669
0.0791128
0.0750377
0.0750359
0.0740029
0.0813314
0.0851178
0.082656
0.0760488
0.0858224
0.0853953
0.0877619
0.0854426
0.0841936
0.084556
0.0791161
0.0851424
0.075344
0.0823279
0.0817662
0.0906672
0.0813407
0.0840178
0.0854989
0.0827146
0.0919696
0.084032
0.0737062
0.0747806
0.0816699
0.0770209
0.0745368
0.078944
0.0840917
0.0750177
0.0783185
0.0798531
0.0851193
0.0827861
0.0820949
0.0832002
0.0753611
0.081958
0.0850412
0.0811071
0.0764851
0.0738202
0.0755059
0.0876648
0.0785519
0.0746935
0.0723653
0.0816668
0.087723
0.0774706
0.0813704
0.0797351
0.0830222
0.0781711
0.0737678
0.0799976
0.0712354
0.0725817
0.0811696
0.0774664
0.0777415
0.0785861
0.0833037
0.0857978
0.0845176
0.0769911
0.0810396
0.0792206
0.0771287
0.0896906
0.0849449
0.073132
0.0824576
0.0906057
0.0973024
0.0821007
0.0833372
0.0829523
0.0774212
0.0826494
0.0797435
0.0737571
0.0871366
0.0909705
0.0744001
0.0784458
0.0786811
0.0759005
0.0931255
0.0776046
0.0767382
0.0720584
0.0713029
0.0833655
0.0848813
0.0740449
0.0841033
0.0763178
0.111121
0.0849773
0.0820122
0.0781761
0.0778511
0.0773579
0.0846763
0.0785991
0.0785016
0.0833427
0.0821657
0.0798921
0.0767485
0.0793006
0.0752125
0.0820121
0.0793106
0.0740003
0.0745146
0.0728171
0.0712472
0.0804349
0.0751407
0.0750858
0.0832601
0.0823707
0.0705879
0.084878
0.0805851
0.086471
0.0807881
0.0823956
0.0737502
0.0779079
0.0706032
0.0702991
0.0705056
0.0763514
0.0729313
0.0857604
0.0740124
0.0815899
0.0836852
0.0720739
0.0823486
0.0820832
0.084757
0.07374
0.0706552
0.080736
0.0815739
0.0784254
0.070742
0.0844812
0.0795215
0.0700533
0.0739483
0.0790848
0.0884258
0.0747446
0.0707818
0.0856884
0.0776448
0.0733588
0.0765437
0.0833137
0.0773299
0.0808284
0.0771547
0.0797825
0.099725
0.0790416
0.0776484
0.0762429
0.088545
0.10475
0.0845013
0.09288
0.0825004
0.09414
0.090045
0.087645
0.093195
0.0851089
0.094245
0.08479
0.0934016
0.089445
0.0809328
0.0910722
0.09141
0.09204
0.084475
0.08458
0.085945
0.102545
0.086945
0.0900412
0.10328
0.0829774
0.097125
0.0808349
0.0728994
0.083425
0.096525
0.087845
0.085315
0.082375
0.082585
0.09309
0.170405
0.082795
0.0804734
0.0810919
0.08185
0.08269
0.087345
0.0819345
0.08437
0.09435
0.0820519
0.08122
0.0808
0.086045
0.085525
0.086145
0.0803929
0.0834183
0.079665
0.104435
0.079565
0.08101
0.08311
0.087145
0.088245
0.084265
0.080485
0.084895
0.081745
0.0795349
0.079465
0.0788626
0.08143
0.08164
0.078665
0.088745
0.08206
0.087245
0.081535
0.071355
0.076665
0.0791222
0.080065
0.077665
0.081115
0.076265
0.077965
0.078565
0.076565
0.086445
0.076765
0.083005
0.075235
0.078165
0.078361
0.0746851
0.076965
0.078765
0.079965
0.075655
0.076465
0.074185
0.076865
0.081955
0.085735
0.077165
0.07513
0.08038
0.0745
0.077865
0.077765
0.084685
0.078865
0.07366
0.0695375
0.088345
0.084055
0.079265
0.073135
0.072715
0.0719686
0.077565
0.07345
0.080275
0.071665
0.076365
0.072925
0.0694885
0.0829
0.072505
0.073765
0.0804812
0.077265
0.087045
0.076165
0.241801
0.073345
0.076065
0.069985
0.07156
0.070405
0.071455
0.0706857
0.07555
0.0970864
0.0947769
0.0989459
0.0974158
0.0910352
0.0968779
0.0958996
0.0947505
0.102938
0.101244
0.0976338
0.0884016
0.0990856
0.107494
0.111113
0.0997026
0.108875
0.090844
0.101814
0.109449
0.10838
0.094635
0.10753
0.093415
0.108037
0.0902187
0.108736
0.10719
0.103057
0.105289
0.0993135
0.0892545
0.113958
0.0918476
0.100253
0.0986583
0.110301
0.0916609
0.102682
0.104494
0.125118
0.095756
0.10344
0.109453
0.0944356
0.105168
0.0897039
0.0982968
0.10377
0.0985968
0.0880344
0.100968
0.10815
0.107052
0.100128
0.10346
0.102604
0.10139
0.101909
0.0908376
0.105187
0.113012
0.0945494
0.0976639
0.100658
0.0942959
0.103147
0.0929217
0.0970099
0.11314
0.103233
0.106725
0.102424
0.0901541
0.0882817
0.0946169
0.0956818
0.107801
0.0922937
0.100708
0.106856
0.105576
0.0921392
0.0905138
0.104819
0.102663
0.0897244
0.101382
0.105867
0.0926039
0.100908
0.0964525
0.0971662
0.106234
0.0953208
0.0993541
0.10045
0.106408
0.102191
0.0991893
0.100687
0.104032
0.100171
0.0951355
0.092566
0.101542
0.115459
0.0873576
0.0982174
0.0912142
0.103311
0.0879246
0.0950373
0.0890999
0.0983328
0.0988114
0.101758
0.0884741
0.099891
0.0972083
0.0928044
0.0891566
0.101473
0.102921
0.106702
0.0917448
0.0938675
0.107755
0.099719
0.109258
0.092562
0.0972791
0.0957435
0.0917498
0.104457
0.104703
0.0925874
0.096943
0.088636
0.105289
0.0893294
0.107676
0.0900883
0.102226
0.0916841
0.0881034
0.095658
0.104705
0.0932656
0.101835
0.106409
0.0994986
0.0872965
0.105105
0.0872282
0.0942085
0.100312
0.0975785
0.0897417
0.111471
0.0941836
0.104262
0.10402
0.0999893
0.0877656
0.104746
0.0997734
0.0998297
0.109051
0.100551
0.10407
0.0886093
0.088693
0.108118
0.0859312
0.0998721
0.104872
0.102968
0.0969629
0.0852826
0.0984791
0.0899249
0.0892377
0.13332
0.127165
0.123135
0.132056
0.0900804
0.119085
0.118085
0.127465
0.11244
0.114402
0.116685
0.130275
0.11011
0.114835
0.115045
0.12429
0.108705
0.116885
0.117785
0.106205
0.11032
0.109505
0.107805
0.109898
0.108305
0.107821
0.106562
0.111895
0.106405
0.115356
0.106057
0.116985
0.108805
0.107693
0.109105
0.11053
0.107391
0.107305
0.107005
0.10517
0.104225
0.119279
0.108505
0.11158
0.10412
0.111475
0.10433
0.111048
0.105298
0.11284
0.117185
0.105065
0.109305
0.108905
0.102659
0.102869
0.106505
0.10496
0.104771
0.103595
0.119385
0.107705
0.118885
0.102541
0.11557
0.11389
0.10391
0.102987
0.108205
0.107114
0.101369
0.101597
0.102335
0.105503
0.108005
0.101824
0.109005
0.10381
0.10076
0.10097
0.109205
0.10265
0.117685
0.12156
0.10139
0.105275
0.106705
0.101075
0.100875
0.12576
0.097725
0.1037
0.108605
0.0996962
0.100865
0.100025
0.098925
0.109705
0.108105
0.103805
0.101705
0.097525
0.0875487
0.10118
0.10034
0.10244
0.106105
0.100445
0.10454
0.105485
0.0960845
0.097825
0.098825
0.098025
0.0989567
0.0955114
0.107105
0.097425
0.096125
0.110635
0.097925
0.0955876
0.104645
0.097325
0.096225
0.119185
0.095925
0.10307
0.096825
0.103385
0.115985
0.0951818
0.094875
0.098425
0.09393
0.115465
0.097025
0.10223
0.10538
0.097225
0.093615
0.10013
0.101071
0.10286
0.096625
0.093405
0.09456
0.095085
0.092775
0.10349
0.099525
0.0944254
0.102125
0.096025
0.0950941
0.096425
0.094035
0.10055
0.091095
0.095505
0.0905323
0.119885
0.09036
0.09183
0.09477
0.101495
0.089945
0.090885
0.098525
0.09099
0.090255
0.09057
0.089345
0.089545
0.11095
0.0885818
0.089845
0.09162
0.095295
0.093825
0.092355
0.087945
0.0938323
0.091725
0.098125
0.088145
0.098725
0.0943462
0.089745
0.0883357
0.0884322
0.090465
0.0894094
0.0867739
0.089045
0.098225
0.11473
0.088045
0.0861469
0.0888671
0.09015
0.096725
0.092145
0.088945
0.0895215
0.091515
0.0857453
0.0866485
0.112945
0.111156
0.09267
0.099125
0.122867
0.115818
0.133988
0.121213
0.147322
0.112963
0.129355
0.129404
0.143831
0.137124
0.129085
0.147391
0.119675
0.13567
0.151249
0.132386
0.115996
0.136093
0.151787
0.133557
0.131853
0.128772
0.125303
0.158882
0.15191
0.158878
0.119576
0.114534
0.140015
0.120683
0.163545
0.1367
0.169105
0.156496
0.13931
0.119194
0.139864
0.163588
0.124817
0.162435
0.134469
0.1446
0.115225
0.145139
0.159841
0.11988
0.111407
0.174599
0.148941
0.156372
0.145913
0.15495
0.117938
0.166922
0.127018
0.137938
0.114336
0.147952
0.147882
0.131586
0.135389
0.118012
0.14216
0.116574
0.132103
0.123336
0.117707
0.119981
0.132867
0.112965
0.126533
0.116609
0.113797
0.149035
0.126447
0.169189
0.114237
0.208009
0.131912
0.129702
0.136596
0.153473
0.15844
0.11684
0.119299
0.140112
0.121375
0.146976
0.110865
0.145564
0.134279
0.136035
0.139811
0.119604
0.117684
0.137484
0.118247
0.116588
0.147916
0.145019
0.126809
0.127266
0.141213
0.155506
0.148213
0.120337
0.168295
0.147645
0.150396
0.14209
0.14816
0.140826
0.137778
0.122901
0.122427
0.115509
0.161493
0.15355
0.158898
0.148477
0.119132
0.131234
0.123267
0.144308
0.117899
0.160284
0.12149
0.147371
0.153318
0.128138
0.144936
0.141327
0.159346
0.109156
0.137338
0.113011
0.116222
0.126462
0.137065
0.120279
0.155958
0.148786
0.148452
0.116187
0.110047
0.124997
0.119826
0.118836
0.133816
0.136466
0.142936
0.137109
0.141393
0.121913
0.154134
0.115752
0.122208
0.118684
0.151101
0.155745
0.139114
0.152593
0.144028
0.135283
0.142144
0.147939
0.152426
0.118031
0.146962
0.147055
0.107986
0.125128
0.164511
0.145276
0.109642
0.146277
0.143197
0.1484
0.134998
0.117512
0.123857
0.179392
0.128793
0.17283
0.140629
0.163772
0.140871
0.143885
0.114201
0.127591
0.140125
0.15231
0.162281
0.158086
0.183005
0.15617
0.18164
0.18059
0.115954
0.127002
0.116671
0.19078
0.153507
0.179665
0.165456
0.125608
0.163246
0.164676
0.181325
0.196825
0.17303
0.170195
0.165169
0.171035
0.175235
0.177765
0.18101
0.172925
0.169585
0.166304
0.168485
0.16053
0.167703
0.167685
0.16158
0.161475
0.173765
0.161265
0.159905
0.159605
0.190045
0.161895
0.178965
0.17177
0.160215
0.197225
0.169685
0.16494
0.130468
0.164644
0.111483
0.109538
0.145299
0.163259
0.162105
0.17009
0.165465
0.181115
0.161699
0.150005
0.11033
0.161055
0.169785
0.174395
0.155065
0.157055
0.18437
0.156105
0.16263
0.161576
0.154453
0.158105
0.157005
0.169485
0.160425
0.162315
0.140288
0.158405
0.16116
0.1745
0.1558
0.157805
0.157905
0.15475
0.155275
0.16305
0.115829
0.153152
0.152442
0.158716
0.166085
0.162735
0.153595
0.17282
0.162945
0.159618
0.155399
0.16074
0.153914
0.16452
0.15265
0.157405
0.153805
0.166685
0.15097
0.152755
0.158305
0.158605
0.15433
0.111998
0.159005
0.152335
0.15034
0.149725
0.148825
0.158812
0.150651
0.158505
0.182165
0.148229
0.149225
0.158705
0.166885
0.15202
0.148225
0.15412
0.159705
0.149522
0.127727
0.14561
0.125134
0.15496
0.14972
0.147725
0.154435
0.147794
0.15286
0.146925
0.16242
0.146425
0.145925
0.156742
0.13834
0.156805
0.145085
0.15223
0.140079
0.147001
0.125443
0.150741
0.147925
0.150445
0.159205
0.146629
0.154225
0.150946
0.147093
0.148745
0.176765
0.144081
0.144455
0.143225
0.154855
0.166185
0.143831
0.151915
0.160635
0.143634
0.144266
0.152965
0.148402
0.146625
0.140129
0.148625
0.15013
0.139745
0.147425
0.149825
0.147525
0.123817
0.119228
0.14498
0.156705
0.14309
0.140255
0.148525
0.140052
0.163995
0.151075
0.138285
0.143942
0.14477
0.143615
0.14057
0.15181
0.138853
0.1516
0.138845
0.14267
0.1389
0.17555
0.14246
0.160005
0.1433
0.138445
0.138954
0.14582
0.14162
0.137145
0.13701
0.137404
0.146225
0.139245
0.146525
0.155069
0.158005
0.137812
0.158101
0.109855
0.138245
0.142985
0.14204
0.139845
0.142145
0.146125
0.134475
0.133828
0.133498
0.133846
0.13584
0.138645
0.142775
0.12789
0.14288
0.140439
0.134158
0.15162
0.137445
0.137241
0.134903
0.134888
0.142565
0.14295
0.13269
0.15349
0.16578
0.136042
0.134814
0.136945
0.16011
0.112023
0.132281
0.142123
0.136144
0.141305
0.131522
0.136112
0.135945
0.137945
0.134063
0.13017
0.137045
0.134338
0.137545
0.131955
0.139945
0.13143
0.115126
0.162
0.132795
0.15139
0.131544
0.189145
0.128165
0.137745
0.145715
0.129065
0.136444
0.148925
0.135735
0.13479
0.129465
0.13101
0.132585
0.130153
0.127903
0.13122
0.140465
0.128665
0.135525
0.133549
0.127265
0.130359
0.128274
0.127665
0.129365
0.139145
0.131325
0.156405
0.148125
0.149925
0.1412
0.135315
0.1329
0.139345
0.136845
0.126965
0.128965
0.139645
0.128265
0.126234
0.128672
0.127275
0.13185
0.13542
0.157105
0.130908
0.14414
0.131535
0.133425
0.125553
0.141515
0.12555
0.127865
0.129565
0.124407
0.12492
0.128465
0.12261
0.126574
0.128065
0.130065
0.14225
0.138145
0.12303
0.122485
0.13353
0.124615
0.125765
0.122925
0.129765
0.134055
0.12408
0.123765
0.123975
0.124395
0.130704
0.121035
0.13311
0.120825
0.14078
0.112845
0.137845
0.151495
0.117985
0.129265
0.13227
0.15538
0.12135
0.1203
0.140045
0.133215
0.117585
0.12198
0.123345
0.126765
0.199725
0.12114
0.117285
0.121875
0.118385
0.12072
0.117668
0.116101
0.118485
0.116285
0.123236
0.125445
0.128322
0.12009
0.123646
0.123555
0.124185
0.1224
0.119685
0.115265
0.116385
0.115255
0.114415
0.127965
0.117385
0.12219
0.126165
0.115675
0.116584
0.12324
0.123429
0.115687
0.12093
0.118985
0.125025
0.119176
0.11452
0.125235
0.119785
0.122295
0.11515
0.113365
0.113893
0.118785
0.113785
0.126565
0.121477
0.14351
0.114689
0.11137
0.11242
0.1141
0.10817
0.116485
0.108316
0.11368
0.132375
0.114205
0.110301
0.121245
0.129165
0.124605
0.11116
0.116085
0.12345
0.112735
0.122505
0.130485
0.119585
0.120405
0.108957
0.11263
0.11431
0.118585
0.112109
0.109905
0.150025
0.115885
0.111055
0.11074
0.130695
0.110425
0.111332
0.118685
0.111685
0.107514
0.113155
)


// ************************************************************************* //
