/*--------------------------------*- C++ -*----------------------------------*\
  =========                 |
  \\      /  F ield         | OpenFOAM: The Open Source CFD Toolbox
   \\    /   O peration     | Website:  https://openfoam.org
    \\  /    A nd           | Version:  7
     \\/     M anipulation  |
\*---------------------------------------------------------------------------*/
FoamFile
{
    version     2.0;
    format      ascii;
    class       labelField;
    location    "0.7/lagrangian/reactingCloud1";
    object      cellId;
}
// * * * * * * * * * * * * * * * * * * * * * * * * * * * * * * * * * * * * * //


2438
(
2584
2312
2828
2814
2698
2631
2539
2463
2399
2353
2245
2193
2134
1998
1934
1863
1809
1722
1657
1600
1431
1415
1329
1263
1209
1113
1037
748
962
897
843
753
707
620
560
508
435
358
289
267
161
75
2
383
859
3106
3393
3401
3042
3043
3349
3125
2982
2840
2635
2852
2781
2707
2882
2722
2502
2580
2509
2157
1953
2378
2391
2320
2168
2023
2108
2204
1893
2133
1824
1910
1848
1688
1698
1627
1642
1568
1507
1348
1302
1217
1178
1025
867
900
813
742
690
594
455
387
466
319
334
253
43
129
53
31
4168
1829
4176
1581
1498
1280
1144
1293
1234
956
750
753
715
545
573
412
292
141
54
80
36
45
24
9527
9571
7041
7304
6471
5922
5627
5065
4255
3965
3702
2300
2027
1445
625
8072
7799
7504
7788
7542
6145
5881
5268
5268
3915
3886
3882
3340
2789
1108
845
258
9387
9388
8268
8864
8281
7721
6878
6047
5782
4671
4660
3253
2181
1860
1861
1864
1314
734
468
9305
9036
9057
7914
8478
8808
8484
8208
7924
7104
7086
7111
7092
6538
4875
4583
3729
3746
3500
2895
2896
2608
2897
2617
2620
2343
2351
1501
1530
952
409
9797
9816
8961
9819
9556
9254
8682
8973
9265
8691
8422
8425
8154
7896
7874
7888
6744
6760
6755
5319
5912
5618
5653
5344
4216
3935
4541
4233
4267
3670
3672
2849
2264
2554
2293
1991
1990
1759
1722
592
615
43
9224
4202
7550
5876
6155
9782
17
9769
9737
8889
9179
9477
9215
8931
9204
8327
8370
8367
8358
7502
7512
6364
7257
7806
7230
7524
5815
6413
6110
5831
5862
5841
5846
5550
5555
4698
3846
4722
4448
4154
4156
3893
3596
3595
3884
3608
3337
3048
2745
2766
2782
2192
2164
2222
1934
1946
1670
809
795
546
253
251
7199
5804
8594
6362
6362
8036
5525
9431
3014
7199
2456
2456
1898
1619
2735
1061
9152
503
9658
9651
9097
9395
9111
9110
9112
9394
9407
7111
8261
7699
7983
7698
8570
7997
8574
7995
7997
7718
8298
7138
7431
7717
7149
5412
7446
224
7160
7465
6591
6596
6891
6307
6904
6613
6324
6041
6343
6077
5487
5226
5221
4355
4639
4655
4364
3797
3793
3803
4098
2912
3536
3526
3536
2990
2699
2712
1819
1845
1870
1588
1609
1315
1299
1001
1008
1027
724
756
743
755
451
449
449
453
171
200
180
205
8243
7964
7127
7964
5732
9359
6848
4616
8522
8243
8801
9638
9080
2384
2105
6290
4058
2384
6290
8522
1547
8801
4058
2384
4616
2942
989
2105
710
1826
431
431
9524
9534
9822
9288
9579
9300
9315
9615
9324
9331
7894
9344
9336
9347
8487
9356
6745
8190
8490
8483
7915
7348
8225
7072
7374
7661
7090
6800
7395
7097
6221
7098
6531
6817
5364
6535
6829
5955
5388
6264
5974
5101
5700
4854
4862
4873
4858
4872
4307
4013
4039
3445
3464
3466
3471
3175
2883
2915
2625
2639
2351
2052
2065
2085
1486
1823
1177
1208
1211
1515
1231
1237
937
935
406
151
139
65
4544
9008
9566
6497
8450
7892
9566
6497
9287
7892
9566
3428
3149
6776
3428
8450
5102
4544
9287
5660
4265
9008
9008
9287
7892
3149
9287
9008
2591
3149
2870
8450
8729
8729
8171
9008
7055
1196
7334
3986
7334
7613
8729
7613
1754
9008
8450
2591
8729
3986
638
8450
638
638
5939
2312
2033
8729
1754
6497
9287
9008
8729
9566
359
80
9287
6497
9693
359
9719
9772
9738
9216
7741
9802
9795
9520
9807
4265
8653
9254
9536
7799
8951
80
8963
8677
9828
7806
9530
9550
8687
8112
9564
9268
8999
8418
8418
8995
8421
8109
7851
7268
7857
6989
1475
8142
6705
6986
6693
7861
7006
80
7587
7590
7877
7310
5824
6717
7306
7607
7033
6170
6152
6164
6756
6196
5016
6480
5305
5615
5889
6213
6208
5040
5647
5375
4780
3896
5082
4500
5102
4217
3298
4539
4246
4233
4240
4240
4241
3637
3963
3649
3357
2724
3979
3679
3671
3381
2769
3126
3114
3425
2490
2812
2832
2836
2546
2845
2842
2838
2859
1969
2264
1972
2300
2287
1973
1934
1601
1703
2028
1713
1726
1426
1152
1165
1140
868
1159
821
872
576
612
279
329
329
38
17
5588
8378
3914
4472
6146
5030
5309
5588
8378
6983
3077
3635
4472
6146
4472
8657
4751
8657
8657
8657
9494
6983
9494
8099
3077
6983
4751
4751
3635
4751
2519
1961
9494
5588
9773
9773
8657
8099
5867
5588
6704
6704
3914
9773
7820
8936
8936
9773
5588
5867
2519
7541
3635
4472
4193
1961
1961
2240
4751
8657
8657
9494
7262
9773
7262
8657
7262
4472
8936
7262
3356
5867
7820
5588
1682
9773
9215
4751
1682
3077
5588
5867
7820
5309
8936
2240
6425
3635
5588
7541
3635
3356
9773
3635
9773
7262
5309
2798
7541
4472
8936
3077
9494
1682
5309
1124
1682
7262
1682
1682
4751
1124
5309
4472
7541
1682
6146
1403
7820
1682
2798
3914
8657
7262
6704
7820
6425
6704
4751
7262
6983
1124
7262
845
6146
845
7262
4193
1961
9773
9215
5588
2240
566
8657
5309
845
566
2519
8099
566
3356
4472
287
6146
5867
8936
8099
6983
1682
6983
3914
2798
287
1961
1961
9494
287
8099
3356
8378
4751
9773
6704
7820
8936
5588
8
9494
1961
287
6146
9382
8538
5309
6983
9418
9391
9726
9719
9159
9706
8856
9448
8
9749
9748
9736
6504
8880
9210
9178
9197
8611
6570
8031
8601
7777
8319
7460
7762
7773
4472
7198
8079
7783
8083
7790
6605
7789
6902
7507
7188
7805
7509
6934
6273
7530
6660
1403
6655
6654
6978
6092
6964
6383
6085
6052
6107
6397
6388
5803
6105
6133
6136
5834
5234
4917
4316
4937
4928
6133
5848
5577
5588
4934
5261
5571
5267
5580
4670
4689
5029
5272
5022
3759
4673
4994
1403
4095
5003
4722
4728
4740
4438
4439
4429
4450
4177
3551
4162
4185
3561
8
3900
3635
3249
3298
3288
2966
3597
3320
3344
2744
2730
2747
2763
2180
2764
2788
2234
2477
2454
2190
1958
1878
1938
1556
1401
1351
1355
1035
1388
1123
1085
1096
1112
751
808
784
286
504
283
535
199
259
207
8306
5516
3842
3842
6911
3005
3842
3563
8306
4958
3005
9422
3842
7748
4121
3284
3005
9422
3284
7190
8864
5795
3005
4400
5516
8585
2447
4679
6632
4121
6074
9143
5795
6353
2168
7469
6074
3005
3563
2168
7469
9422
8585
4400
6353
6632
9422
9422
9422
7190
3284
3563
3842
6911
2447
9701
7469
8585
6632
6353
8585
8027
1889
3284
4679
2726
3005
4400
1889
3284
3842
5795
8864
6632
6074
8864
3005
8306
2168
6074
4121
1610
1610
9422
4400
3563
1610
7469
8585
4679
6911
6911
8585
3842
2447
6353
1331
1610
3563
4400
1331
6074
8306
9143
9143
4400
7190
4958
5516
6074
8585
1889
4400
9701
9422
8306
7190
7469
4679
6632
6632
2447
8027
7748
1052
6074
5516
2726
5237
3563
1052
1331
1052
8864
9143
3284
6353
1052
3005
9701
8027
2447
1889
1610
6911
2447
5795
6353
7469
6911
773
4121
773
5237
4679
1610
2726
1052
773
6353
3563
773
8864
6632
773
9143
7190
5237
6911
6353
494
2447
1052
494
494
4400
494
7469
3005
6632
6632
1610
6353
8306
7748
494
773
6074
4958
2447
494
3842
5795
494
3005
5516
8864
1331
215
8027
4121
2726
2447
7748
5237
5516
3563
1610
8668
5237
215
4400
9327
7548
9143
8673
7190
9003
9660
8770
9385
9680
9701
9688
9141
9058
6632
9133
8808
7917
8843
8838
8823
7336
8502
8545
7009
8563
7056
6632
215
8283
6442
7671
8275
8014
8285
7077
7104
7706
7945
8010
8545
7442
7165
6822
7454
5327
7190
6809
6614
6275
5675
6346
4679
6071
6353
4484
6045
6052
6055
4804
5118
5446
5779
5428
5709
5513
5178
5513
5193
5499
5211
4258
4870
4590
4903
1331
4950
4954
4655
4612
4053
4395
4399
4068
4101
3762
3822
3497
3822
3524
3840
3832
3545
3219
3527
2960
2931
2991
2932
2273
2633
2675
2718
2381
2378
2391
2133
1769
1844
1860
215
1511
1131
1532
1229
1585
1568
1210
1579
1541
1304
1272
1300
215
939
1041
1012
672
666
390
714
421
462
458
473
469
477
192
213
173
5165
4886
5723
6002
3491
5444
5165
3770
7955
6002
6560
2375
4328
8234
7118
6560
9629
2654
7397
8792
5444
5165
9350
2654
7397
1817
8513
9350
6560
7955
3770
1817
9350
3770
6839
6560
9629
2375
6839
6560
9350
2096
7397
7955
2654
8513
2654
6281
7397
5723
1538
7118
9629
8513
7118
8234
8513
3491
5444
1817
9071
8513
4886
4049
2933
4607
7676
2933
1259
8234
7955
7676
5723
1259
1259
4328
5165
6002
1538
4049
8792
6839
1259
3212
7118
8222
1259
4607
7118
2654
6560
5723
2375
8792
3491
6281
1538
7118
6281
4886
5723
6002
3770
5165
2096
7955
9629
980
6002
3491
6839
980
3212
1538
3212
6281
4886
1259
6002
5723
2096
1538
6839
7676
9629
1817
4607
9071
4049
8234
4607
6281
1259
3212
7955
5165
3491
4886
701
5444
1259
7673
1817
8234
2375
980
422
8234
422
7118
5723
6839
1817
9350
422
2096
5165
3491
422
9629
4328
7118
2654
6560
422
8513
4607
4886
9629
5444
6839
422
2096
980
143
4328
9071
5444
5165
143
2654
980
2375
9419
9715
9753
9153
2654
9534
9189
9587
9832
9575
9565
8607
9572
9257
9579
8910
9563
8918
8604
9297
9588
9295
9242
9315
8999
8761
9349
9023
9009
8075
9066
9027
8358
8786
8670
8772
9051
9062
8719
8792
8441
8786
8076
8492
8474
7802
8170
7555
8234
7873
7220
7889
7246
7580
7955
7955
7643
7911
7589
7629
6350
6663
7292
7638
7300
7235
7664
7020
6693
7048
7339
6718
7344
7660
7078
7038
6733
7050
7107
6771
7084
6772
6758
6115
6813
6784
6791
6475
6539
6256
6457
6211
5564
6277
5953
6261
5898
5638
5635
5627
6253
5992
143
5323
5669
5634
5318
5039
5363
5369
5711
5370
5392
5421
5428
5318
5077
5414
5087
5100
5120
5410
4759
5121
4853
4433
4555
4534
4547
4546
4159
4607
4258
4580
4584
3870
4307
4211
4258
4268
4307
3984
3680
3698
3689
3706
3991
3378
3729
3331
3365
3741
3097
3426
3421
3454
3474
2815
3197
2897
2923
2480
2894
2913
2919
2175
2590
2578
2232
2612
2647
2634
2645
2358
1929
422
2366
2033
2042
2041
2086
2044
1806
1783
1599
1536
1195
1206
1209
1248
701
1206
935
1259
948
916
883
969
978
980
639
331
311
386
143
368
419
418
9836
214
141
30
3698
2024
6209
3698
8162
1187
4814
5093
6488
5093
4814
8162
3140
4814
8441
5651
1745
5093
8720
4256
1745
4814
3977
9557
7883
8162
1745
1187
5093
908
9836
5372
7604
8999
7325
2582
6767
9557
2861
9836
4535
7604
908
7046
9278
1745
908
4535
8162
8441
7604
9278
629
9557
4256
6488
1745
7325
7046
4814
5930
2861
7325
629
5372
3419
908
2303
5372
629
3977
629
1745
8441
3977
8441
629
5093
5651
5093
6209
8441
8441
629
2861
7046
3140
8162
629
7604
3977
6488
7046
629
2024
6488
2582
1745
7046
6767
4814
3419
7046
8720
8720
2861
9836
6767
8720
7046
7604
6767
4256
3698
3698
2024
9557
8162
9278
8162
3140
5651
3977
7604
1187
8999
3419
6209
8441
4814
7325
5651
9278
350
5651
908
1187
3977
5930
2582
8999
7883
6767
1466
350
3698
2582
2303
5930
6767
6488
5651
7604
2861
8441
1187
2303
2582
8441
8162
5930
5930
7046
6488
7046
7604
6488
2303
7325
8162
350
3977
7604
7604
350
5651
7325
7325
6209
2582
3698
9836
4535
9836
6209
8999
7046
7325
350
4256
6767
9278
9557
8720
9582
9557
9611
9312
2024
3419
2582
9694
8699
9659
9786
3977
8720
9836
9352
9065
9668
9396
9834
9629
9709
9387
9675
9070
9684
9821
9074
9748
9481
9805
9725
9784
9723
9812
9780
9425
8756
9788
9447
9488
9505
7896
9143
9137
3977
8820
71
350
7325
9536
9470
9550
9122
8268
9510
7883
629
8779
9091
9149
9201
9173
8871
9247
9146
8898
8859
8217
9249
8228
8878
8936
6767
8970
9242
7948
8692
8969
8914
8975
8988
8544
1187
8951
8965
8990
8635
8255
8716
8618
7948
8998
8720
8671
8692
8639
8582
8665
8364
8599
8675
8390
8400
8354
8319
1187
8029
8361
8104
8090
8432
8052
8051
8352
6826
8151
8147
7755
8084
8112
8105
8039
8126
8149
2303
7812
3419
7391
8142
7759
7776
7779
7414
8048
7737
7862
7839
7046
6488
7860
7801
7814
7046
7876
4535
7883
7505
7854
7128
7566
7545
7126
7466
7591
6851
7862
7532
7880
7506
7215
7570
7227
7170
7588
7575
7178
7277
7219
7580
7272
7321
6914
6876
6274
7273
3698
3140
6957
6887
7025
7029
6997
7022
5387
6913
7033
6960
6706
7033
6723
6688
6718
6652
6696
6747
6429
6322
6754
6726
6647
6393
6762
6420
6488
6376
6470
6455
6012
6745
6113
6208
5730
6140
6092
71
6122
6168
6413
6115
6197
6154
6179
6180
6179
6179
5788
5440
6106
4256
5814
5833
5883
6186
5157
5640
5453
5914
5928
5904
5916
5195
5479
5884
5896
6187
5898
71
5651
5523
5919
5577
5566
5627
5545
5567
5186
5644
5645
5590
5286
5638
5470
5371
1745
4277
4779
4935
5208
5300
5297
4931
5185
5367
5603
4621
5026
5045
5359
5001
5064
4716
4790
4732
5013
4670
4386
5089
4758
4474
4787
4795
4777
4340
4484
4345
3724
4051
3736
4493
4479
4444
4724
4477
4513
4109
4449
4234
4248
4232
4073
4447
3791
4202
3159
4119
4088
4234
4146
4241
4224
4188
3948
3932
3959
3900
3871
3650
3535
3636
3872
3674
3691
3601
3696
3418
3367
3385
3300
3393
3400
3636
3098
3140
3082
2978
3125
2995
1187
3050
2672
3098
2792
2841
2687
2786
2833
2797
2734
2570
2784
2566
2212
2529
2289
2516
2196
2260
2481
2294
2294
2245
2227
2232
2164
2230
1991
2193
1983
1968
2227
2018
2013
2018
2012
1963
1950
1950
1730
1983
1742
1679
1733
1745
1738
1698
1719
1649
1187
1393
1224
1663
1505
1398
1459
1461
1415
1445
1275
1277
1258
1181
1124
1176
1141
71
1073
71
898
1022
908
897
1094
720
823
1102
876
792
595
608
731
828
783
71
614
596
513
312
339
365
521
289
520
143
314
186
15
38
50
270
)


// ************************************************************************* //
