/*--------------------------------*- C++ -*----------------------------------*\
  =========                 |
  \\      /  F ield         | OpenFOAM: The Open Source CFD Toolbox
   \\    /   O peration     | Website:  https://openfoam.org
    \\  /    A nd           | Version:  7
     \\/     M anipulation  |
\*---------------------------------------------------------------------------*/
FoamFile
{
    version     2.0;
    format      ascii;
    class       scalarField;
    location    "0.7/lagrangian/reactingCloud1";
    object      cellDensity;
}
// * * * * * * * * * * * * * * * * * * * * * * * * * * * * * * * * * * * * * //


2438
(
0.247776
0.246172
0.250372
0.25038
0.250064
0.249916
0.249479
0.249015
0.248933
0.24928
0.246642
0.248272
0.248528
0.2483
0.248331
0.248157
0.248397
0.247869
0.24792
0.248118
0.247149
0.248162
0.24797
0.247964
0.248034
0.247772
0.247684
0.247121
0.247636
0.247677
0.247783
0.247673
0.247783
0.24772
0.247751
0.247802
0.247791
0.247779
0.247784
0.247819
0.247798
0.247799
0.247801
0.251617
0.251761
0.251828
0.250096
0.249664
0.252394
0.252437
0.249409
0.251384
0.252434
0.253261
0.253737
0.252548
0.252942
0.2535
0.251325
0.252606
0.253937
0.253246
0.253542
0.254011
0.253754
0.253449
0.252858
0.253056
0.253907
0.254141
0.253534
0.252619
0.253993
0.252721
0.253976
0.253319
0.253119
0.253846
0.253556
0.253617
0.253136
0.253293
0.253046
0.253548
0.252941
0.253394
0.252538
0.252836
0.253201
0.252363
0.252869
0.2529
0.252211
0.25316
0.252877
0.252921
0.252605
0.252846
0.252041
0.252609
0.250868
0.251432
0.25147
0.250757
0.221455
0.221412
0.222784
0.229286
0.229882
0.233822
0.236216
0.233535
0.234513
0.238693
0.241476
0.241311
0.241248
0.243892
0.242798
0.245125
0.245679
0.247524
0.248402
0.247712
0.247847
0.247562
0.248375
0.19061
0.177275
0.183946
0.182256
0.185064
0.187324
0.187359
0.190924
0.193065
0.193504
0.195074
0.199455
0.200677
0.201214
0.205249
0.165254
0.165371
0.172546
0.165689
0.16552
0.166408
0.166687
0.204699
0.204699
0.168779
0.168515
0.16869
0.169414
0.170377
0.173452
0.174422
0.174882
0.173504
0.169624
0.188246
0.163742
0.163695
0.16378
0.165654
0.163907
0.163944
0.16405
0.164011
0.164422
0.16435
0.164371
0.164334
0.164301
0.164399
0.18635
0.164556
0.25169
0.185787
0.162572
0.218868
0.185052
0.162693
0.165079
0.162956
0.169022
0.162759
0.171157
0.162792
0.16297
0.162805
0.163024
0.163041
0.215592
0.163132
0.163275
0.193962
0.18807
0.264785
0.182675
0.187713
0.173101
0.16655
0.163286
0.186261
0.163439
0.1636
0.16354
0.218042
0.162687
0.212302
0.1622
0.162131
0.16604
0.211979
0.16972
0.162108
0.177347
0.16231
0.162152
0.162143
0.162205
0.162147
0.162194
0.163144
0.162189
0.162171
0.322737
0.162226
0.18633
0.162261
0.169691
0.217731
0.229848
0.162317
0.162629
0.162338
0.167628
0.164191
0.162332
0.210041
0.166437
0.162371
0.181133
0.185181
0.162477
0.162532
0.197304
0.162462
0.164501
0.16199
0.16206
0.16201
0.162033
0.162028
0.161985
0.162152
0.161976
0.189319
0.223329
0.188374
0.16208
0.161986
0.161982
0.161975
0.239454
0.161983
0.161981
0.162238
0.19409
0.169445
0.295287
0.162001
0.161989
0.175164
0.16202
0.242695
0.161998
0.183225
0.182763
0.16202
0.163513
0.16212
0.187965
0.174711
0.2474
0.341261
0.165721
0.162305
0.188753
0.182796
0.162065
0.187868
0.191055
0.166242
0.162982
0.162039
0.16413
0.246694
0.168318
0.162044
0.220388
0.359549
0.162051
0.16251
0.162062
0.162078
0.174692
0.228988
0.162082
0.169006
0.17384
0.161937
0.161943
0.161932
0.16194
0.16194
0.161934
0.161945
0.16193
0.16196
0.161937
0.161964
0.161964
0.161968
0.16197
0.161962
0.161975
0.161931
0.16198
0.222688
0.244673
0.230901
0.184521
0.194379
0.196591
0.19222
0.186477
0.165714
0.340413
0.226796
0.239074
0.223446
0.24254
0.164865
0.188403
0.162615
0.192697
0.188403
0.187973
0.162118
0.249282
0.206144
0.190097
0.21377
0.357929
0.17422
0.161982
0.187108
0.16196
0.213042
0.199926
0.16872
0.227675
0.162001
0.16702
0.183713
0.191961
0.162103
0.161941
0.182376
0.162086
0.163098
0.222301
0.207634
0.171623
0.196595
0.221665
0.235478
0.203672
0.169177
0.354206
0.175215
0.197881
0.175215
0.162213
0.17384
0.162099
0.332522
0.216033
0.162841
0.164663
0.161965
0.162132
0.181886
0.241139
0.214948
0.167753
0.2328
0.162165
0.1765
0.162282
0.210878
0.217645
0.217645
0.204522
0.213837
0.162023
0.187196
0.161971
0.161993
0.161984
0.161963
0.161984
0.161942
0.162041
0.161957
0.161932
0.162003
0.161993
0.162014
0.162058
0.162026
0.161926
0.161926
0.161948
0.16193
0.161926
0.161948
0.162003
0.161927
0.162014
0.16193
0.161926
0.161932
0.161927
0.161927
0.161926
0.161928
0.161926
0.161928
0.161928
0.350765
0.342082
0.331536
0.2884
0.257793
0.257438
0.218823
0.178776
0.199229
0.186296
0.286105
0.16767
0.178244
0.164855
0.197522
0.162109
0.344192
0.239458
0.191796
0.20576
0.228307
0.252118
0.169575
0.243076
0.189711
0.176915
0.198813
0.223516
0.162932
0.185666
0.283425
0.183955
0.199816
0.186929
0.329042
0.191915
0.168847
0.244119
0.271128
0.177712
0.196764
0.295023
0.186801
0.203179
0.187218
0.169913
0.194829
0.171235
0.181076
0.210881
0.165505
0.236955
0.190582
0.186805
0.178125
0.211894
0.248752
0.174141
0.193208
0.169485
0.183241
0.228787
0.196471
0.164518
0.253699
0.161929
0.338168
0.249861
0.23982
0.180185
0.189047
0.178042
0.224245
0.230086
0.167845
0.161929
0.162015
0.334182
0.167893
0.198034
0.202313
0.179196
0.193732
0.189449
0.202313
0.179196
0.200179
0.189449
0.202313
0.16435
0.163822
0.18116
0.16435
0.193732
0.170558
0.167893
0.200179
0.173727
0.166778
0.198034
0.198034
0.200179
0.189449
0.163822
0.200179
0.198034
0.163088
0.163822
0.163408
0.193732
0.195883
0.195883
0.191585
0.198034
0.183177
0.162278
0.185237
0.165818
0.185237
0.18733
0.195883
0.18733
0.162496
0.198034
0.193732
0.163088
0.195883
0.165818
0.162152
0.193732
0.162152
0.162152
0.175467
0.16284
0.162648
0.195883
0.162496
0.179196
0.200179
0.198034
0.195883
0.202313
0.162112
0.162081
0.200179
0.179196
0.362769
0.162112
0.346561
0.291308
0.330459
0.288409
0.364239
0.248784
0.258928
0.252388
0.241625
0.166778
0.295253
0.232371
0.229327
0.317668
0.267755
0.162081
0.249384
0.259574
0.214761
0.308984
0.237767
0.212018
0.243935
0.269664
0.202548
0.213702
0.201884
0.22746
0.22746
0.205425
0.222939
0.274381
0.239724
0.280018
0.229944
0.279846
0.162375
0.221692
0.28779
0.284675
0.305752
0.223571
0.250976
0.162081
0.214537
0.21001
0.200625
0.210125
0.342943
0.267848
0.216373
0.189728
0.20569
0.247136
0.279354
0.258111
0.20125
0.201531
0.311493
0.195378
0.296007
0.240016
0.250156
0.179538
0.184552
0.271334
0.185347
0.175537
0.233573
0.318504
0.193006
0.234674
0.170558
0.241986
0.357429
0.170552
0.18764
0.210164
0.197538
0.197538
0.195824
0.285807
0.192929
0.261643
0.287729
0.366504
0.170273
0.200461
0.215645
0.23749
0.334021
0.189462
0.21148
0.165242
0.334493
0.260324
0.21649
0.208403
0.230509
0.191742
0.19704
0.204507
0.170971
0.272733
0.236376
0.265896
0.170454
0.189591
0.263586
0.333175
0.370293
0.24175
0.163708
0.218757
0.192749
0.236179
0.2235
0.196187
0.252484
0.234495
0.208092
0.331518
0.224911
0.26657
0.185546
0.307292
0.191752
0.191752
0.215535
0.268563
0.241111
0.254925
0.231419
0.234776
0.244099
0.238005
0.239574
0.241111
0.254925
0.248364
0.226141
0.229693
0.234776
0.244099
0.234776
0.25616
0.236406
0.25616
0.25616
0.25616
0.259721
0.248364
0.259721
0.253665
0.226141
0.248364
0.236406
0.236406
0.229693
0.236406
0.22246
0.218652
0.259721
0.241111
0.260861
0.260861
0.25616
0.253665
0.24262
0.241111
0.24697
0.24697
0.231419
0.260861
0.25238
0.257371
0.257371
0.260861
0.241111
0.24262
0.22246
0.251068
0.229693
0.234776
0.233114
0.218652
0.218652
0.220572
0.236406
0.25616
0.25616
0.259721
0.249729
0.260861
0.249729
0.25616
0.249729
0.234776
0.257371
0.249729
0.227933
0.24262
0.25238
0.241111
0.216702
0.260861
0.258557
0.236406
0.216702
0.226141
0.241111
0.24262
0.25238
0.239574
0.257371
0.220572
0.245549
0.229693
0.241111
0.251068
0.229693
0.227933
0.260861
0.229693
0.260861
0.249729
0.239574
0.224317
0.251068
0.234776
0.257371
0.226141
0.259721
0.216702
0.239574
0.212714
0.216702
0.249729
0.216702
0.216702
0.236406
0.212714
0.239574
0.234776
0.251068
0.216702
0.244099
0.214722
0.25238
0.216702
0.224317
0.231419
0.25616
0.249729
0.24697
0.25238
0.245549
0.24697
0.236406
0.249729
0.248364
0.212714
0.249729
0.210679
0.244099
0.210679
0.249729
0.233114
0.218652
0.260861
0.258557
0.241111
0.220572
0.208619
0.25616
0.239574
0.210679
0.208619
0.22246
0.253665
0.208619
0.227933
0.234776
0.206537
0.244099
0.24262
0.257371
0.253665
0.248364
0.216702
0.248364
0.231419
0.224317
0.206537
0.218652
0.218652
0.259721
0.206537
0.253665
0.227933
0.254925
0.236406
0.260861
0.24697
0.25238
0.257371
0.241111
0.204434
0.259721
0.218652
0.206537
0.244099
0.327894
0.333262
0.239574
0.248364
0.300484
0.3213
0.279447
0.28429
0.284659
0.293866
0.303204
0.278103
0.204434
0.26643
0.26687
0.273128
0.379116
0.284125
0.258866
0.271501
0.261996
0.276037
0.345021
0.29248
0.283589
0.271626
0.285458
0.303146
0.283641
0.274701
0.234776
0.287897
0.258396
0.267262
0.256776
0.262653
0.318544
0.263274
0.30284
0.264285
0.296786
0.255222
0.262944
0.274281
0.356185
0.252701
0.269341
0.214722
0.273609
0.274481
0.248763
0.276859
0.253246
0.26687
0.283447
0.314299
0.263505
0.256137
0.26278
0.285909
0.265193
0.246751
0.245716
0.257676
0.296169
0.331056
0.360424
0.313549
0.321731
0.246751
0.248202
0.243191
0.241111
0.316328
0.269246
0.245814
0.26356
0.242254
0.301892
0.282303
0.238039
0.25904
0.239237
0.36041
0.298862
0.257189
0.214722
0.318497
0.249695
0.250107
0.245498
0.238731
0.253358
0.252447
0.262035
0.243472
0.238157
0.30477
0.249544
0.234496
0.294062
0.204434
0.235512
0.229693
0.327253
0.275741
0.287165
0.330997
0.254261
0.251191
0.23126
0.270042
0.286655
0.26647
0.248053
0.276383
0.24697
0.22689
0.221658
0.255054
0.282824
0.26399
0.218975
0.303731
0.231779
0.34456
0.214897
0.264703
0.259442
0.310749
0.221425
0.212773
0.246826
0.233085
0.217388
0.316417
0.243228
0.275789
0.206605
0.276808
0.207258
0.234296
0.310033
0.2292
0.300365
0.286893
0.279657
0.274724
0.274724
0.283404
0.272052
0.274724
0.273849
0.286893
0.278069
0.272052
0.289547
0.274724
0.285523
0.275583
0.272959
0.272052
0.289547
0.272959
0.28412
0.288233
0.28043
0.272052
0.276426
0.279657
0.287566
0.270187
0.277255
0.282677
0.275583
0.281191
0.288893
0.28043
0.28194
0.269229
0.284826
0.281191
0.272052
0.273849
0.269229
0.284826
0.289547
0.287566
0.276426
0.28194
0.282677
0.289547
0.289547
0.289547
0.28412
0.272959
0.273849
0.274724
0.283404
0.270187
0.290196
0.284826
0.287566
0.282677
0.28194
0.287566
0.286212
0.268252
0.272959
0.277255
0.271128
0.272052
0.276426
0.268252
0.272959
0.274724
0.28043
0.288233
0.282677
0.281191
0.288233
0.272052
0.286893
0.269229
0.281191
0.275583
0.267256
0.267256
0.289547
0.276426
0.273849
0.267256
0.284826
0.287566
0.277255
0.283404
0.283404
0.287566
0.274724
0.270187
0.28194
0.266242
0.267256
0.273849
0.276426
0.266242
0.281191
0.286893
0.288893
0.288893
0.276426
0.28412
0.278069
0.279657
0.281191
0.287566
0.268252
0.276426
0.290196
0.289547
0.286893
0.28412
0.284826
0.277255
0.282677
0.282677
0.270187
0.286212
0.285523
0.265207
0.281191
0.279657
0.271128
0.27887
0.273849
0.265207
0.266242
0.265207
0.288233
0.288893
0.272959
0.28194
0.265207
0.272052
0.290196
0.286212
0.270187
0.268252
0.267256
0.283404
0.270187
0.28043
0.28194
0.284826
0.283404
0.264153
0.275583
0.264153
0.27887
0.277255
0.267256
0.271128
0.265207
0.264153
0.28194
0.273849
0.264153
0.288233
0.282677
0.264153
0.288893
0.28412
0.27887
0.283404
0.28194
0.263077
0.270187
0.265207
0.263077
0.263077
0.276426
0.263077
0.284826
0.272052
0.282677
0.282677
0.267256
0.28194
0.286893
0.285523
0.263077
0.264153
0.281191
0.278069
0.270187
0.263077
0.274724
0.28043
0.263077
0.272052
0.279657
0.288233
0.266242
0.26198
0.286212
0.275583
0.271128
0.270187
0.285523
0.27887
0.279657
0.273849
0.267256
0.374736
0.27887
0.26198
0.276426
0.319439
0.377418
0.288893
0.371574
0.28412
0.341775
0.297032
0.318607
0.295302
0.292116
0.290196
0.29096
0.288918
0.314366
0.282677
0.289374
0.300988
0.326535
0.290272
0.291302
0.295475
0.338659
0.31292
0.29462
0.365932
0.289842
0.339247
0.282677
0.26198
0.289421
0.372308
0.309153
0.291356
0.287076
0.289017
0.327999
0.313326
0.293707
0.311936
0.287657
0.29462
0.288475
0.287338
0.314742
0.286011
0.37237
0.28412
0.32189
0.284468
0.308294
0.331861
0.282243
0.277255
0.281257
0.28194
0.376372
0.285828
0.283936
0.283265
0.350637
0.331335
0.303014
0.281955
0.31323
0.312275
0.279725
0.296754
0.279725
0.28955
0.281408
0.282896
0.344587
0.312854
0.313275
0.294243
0.266242
0.278505
0.27819
0.280874
0.30028
0.300123
0.276616
0.276439
0.291727
0.278262
0.307104
0.277468
0.298187
0.277468
0.283641
0.274763
0.275455
0.276149
0.297191
0.282312
0.285291
0.302478
0.273547
0.301836
0.364694
0.314774
0.287972
0.271658
0.296635
0.298579
0.290377
0.278279
0.332621
0.282779
0.274818
0.26198
0.31852
0.379285
0.303763
0.320578
0.272365
0.280438
0.333466
0.274875
0.297508
0.272296
0.290318
0.274057
0.26198
0.328211
0.266343
0.277911
0.319829
0.324097
0.321981
0.289357
0.299042
0.272036
0.274159
0.267177
0.268761
0.265826
0.266981
0.262036
0.276914
0.301977
0.30137
0.303191
0.303797
0.29832
0.302585
0.301977
0.298932
0.308035
0.303797
0.305008
0.295862
0.300153
0.308643
0.306218
0.305008
0.311678
0.296479
0.306823
0.309859
0.302585
0.301977
0.311073
0.296479
0.306823
0.294623
0.30925
0.311073
0.305008
0.308035
0.298932
0.294623
0.311073
0.298932
0.305613
0.305008
0.311678
0.295862
0.305613
0.305008
0.311073
0.295244
0.306823
0.308035
0.296479
0.30925
0.296479
0.304402
0.306823
0.303191
0.294
0.306218
0.311678
0.30925
0.306218
0.308643
0.30925
0.29832
0.302585
0.294623
0.310464
0.30925
0.30137
0.299543
0.297094
0.300761
0.30743
0.297094
0.293375
0.308643
0.308035
0.30743
0.303191
0.293375
0.293375
0.300153
0.301977
0.303797
0.294
0.299543
0.309859
0.305613
0.293375
0.297708
0.306218
0.308993
0.293375
0.300761
0.306218
0.296479
0.305008
0.303191
0.295862
0.309859
0.29832
0.304402
0.294
0.306218
0.304402
0.30137
0.303191
0.303797
0.298932
0.301977
0.295244
0.308035
0.311678
0.292746
0.303797
0.29832
0.305613
0.292746
0.297708
0.294
0.297708
0.304402
0.30137
0.293375
0.303797
0.303191
0.295244
0.294
0.305613
0.30743
0.311678
0.294623
0.300761
0.310464
0.299543
0.308643
0.300761
0.304402
0.293375
0.297708
0.308035
0.301977
0.29832
0.30137
0.292115
0.302585
0.293375
0.307458
0.294623
0.308643
0.295862
0.292746
0.291479
0.308643
0.291479
0.306218
0.303191
0.305613
0.294623
0.311073
0.291479
0.295244
0.301977
0.29832
0.291479
0.311678
0.300153
0.306218
0.296479
0.305008
0.291479
0.30925
0.300761
0.30137
0.311678
0.302585
0.305613
0.291479
0.295244
0.292746
0.29084
0.300153
0.310464
0.302585
0.301977
0.29084
0.296479
0.292746
0.295862
0.376737
0.365641
0.346389
0.368696
0.296479
0.327432
0.348733
0.315191
0.322685
0.317335
0.31944
0.361279
0.317938
0.326571
0.316571
0.348775
0.319892
0.345697
0.363164
0.316657
0.315033
0.317058
0.331058
0.313606
0.320513
0.311955
0.311077
0.3152
0.318108
0.348083
0.310527
0.314479
0.346463
0.309948
0.335197
0.310756
0.311342
0.310653
0.320379
0.309859
0.319727
0.309948
0.347673
0.310259
0.312583
0.345756
0.317277
0.33434
0.308643
0.321794
0.357268
0.31736
0.34506
0.325848
0.308035
0.308035
0.310013
0.312416
0.32299
0.3125
0.37823
0.356976
0.328622
0.310816
0.325927
0.349559
0.307796
0.326023
0.343256
0.317244
0.314491
0.333994
0.31331
0.308068
0.310115
0.320198
0.328583
0.316683
0.306542
0.316289
0.309074
0.316007
0.320181
0.351819
0.307353
0.312856
0.311231
0.321155
0.306185
0.306087
0.327325
0.316103
0.348649
0.304454
0.310009
0.305496
0.327301
0.320275
0.321317
0.32417
0.306498
0.304091
0.29084
0.333499
0.310784
0.321667
0.335463
0.335399
0.318605
0.316595
0.303617
0.316268
0.309809
0.304113
0.303343
0.335463
0.320779
0.305134
0.317266
0.313051
0.307606
0.305826
0.335743
0.307373
0.30456
0.356961
0.308428
0.314896
0.310722
0.311025
0.354224
0.300761
0.313528
0.302977
0.302388
0.36035
0.301546
0.331521
0.313528
0.310306
0.301546
0.311491
0.320269
0.313515
0.316804
0.310774
0.309275
0.329546
0.304152
0.349837
0.335091
0.301633
0.3303
0.310722
0.312457
0.302706
0.299306
0.331517
0.298498
0.301425
0.297464
0.358022
0.302133
0.298498
0.2978
0.375285
0.309229
0.313688
0.342506
0.302384
0.296671
0.297911
0.296788
0.29693
0.354164
0.291479
0.296178
0.308104
0.304997
0.305327
0.295637
0.304349
0.295105
0.298826
0.378541
0.294022
0.307335
0.303343
0.30234
0.293876
0.292115
0.303343
0.300274
0.293375
0.296717
0.30696
0.321227
0.293258
0.292769
0.292746
0.305801
0.318072
0.327609
0.296637
0.29084
0.302379
0.291527
0.291559
0.321714
0.379088
0.290864
0.328508
0.320177
0.316529
0.325686
0.320177
0.329965
0.314716
0.322655
0.323252
0.326314
0.323252
0.322655
0.329965
0.318971
0.322655
0.330606
0.324451
0.315927
0.323252
0.331138
0.321442
0.315927
0.322655
0.320815
0.333012
0.329414
0.329965
0.315927
0.314716
0.323252
0.314101
0.333528
0.323827
0.328793
0.331777
0.328247
0.317767
0.327002
0.333012
0.31838
0.333528
0.322077
0.328793
0.314101
0.327613
0.332293
0.315927
0.314101
0.322077
0.329965
0.330606
0.328793
0.332293
0.313498
0.333012
0.321442
0.326314
0.315927
0.328247
0.327613
0.322655
0.325038
0.31838
0.328247
0.313498
0.323827
0.319578
0.314101
0.317154
0.323827
0.313498
0.320815
0.313498
0.315927
0.330606
0.320815
0.330606
0.313498
0.323252
0.324451
0.323252
0.325686
0.330606
0.330606
0.313498
0.31838
0.327613
0.318971
0.329965
0.313498
0.328793
0.320815
0.326314
0.327613
0.313498
0.316529
0.326314
0.317767
0.315927
0.327613
0.327002
0.322655
0.319578
0.327613
0.331138
0.331138
0.31838
0.333528
0.327002
0.331138
0.327613
0.328793
0.327002
0.321442
0.320177
0.320177
0.316529
0.333012
0.329965
0.332293
0.329965
0.318971
0.324451
0.320815
0.328793
0.314716
0.331777
0.319578
0.325686
0.330606
0.322655
0.328247
0.324451
0.332293
0.312891
0.324451
0.314101
0.314716
0.320815
0.325038
0.317767
0.331777
0.329414
0.327002
0.315321
0.312891
0.320177
0.317767
0.317154
0.325038
0.327002
0.326314
0.324451
0.328793
0.31838
0.330606
0.314716
0.317154
0.317767
0.330606
0.329965
0.325038
0.325038
0.327613
0.326314
0.327613
0.328793
0.326314
0.317154
0.328247
0.329965
0.312891
0.320815
0.328793
0.328793
0.312891
0.324451
0.328247
0.328247
0.325686
0.317767
0.320177
0.333528
0.322077
0.333528
0.325686
0.331777
0.327613
0.328247
0.312891
0.321442
0.327002
0.332293
0.333012
0.331138
0.379327
0.333012
0.377539
0.379218
0.316529
0.319578
0.317767
0.347126
0.331542
0.354776
0.335474
0.320815
0.331138
0.333528
0.366682
0.37146
0.352235
0.350472
0.333532
0.367627
0.344713
0.352686
0.350584
0.368546
0.348814
0.333715
0.366317
0.339257
0.337474
0.334295
0.342315
0.335628
0.342604
0.333994
0.335951
0.345282
0.37919
0.335326
0.341877
0.336725
0.335168
0.379384
0.345465
0.346493
0.320815
0.355327
0.312287
0.312891
0.328247
0.333381
0.338766
0.333057
0.349217
0.353314
0.334785
0.329414
0.313498
0.375749
0.35829
0.344459
0.337024
0.34071
0.344072
0.333109
0.344959
0.339818
0.34614
0.378074
0.33301
0.372161
0.342911
0.335092
0.327002
0.332513
0.333386
0.373048
0.331846
0.332563
0.337622
0.332286
0.331889
0.354287
0.314716
0.33374
0.332781
0.331853
0.337156
0.358043
0.331155
0.339563
0.373048
0.331778
0.331138
0.333243
0.331846
0.336637
0.345543
0.333769
0.335737
0.34259
0.332923
0.332942
0.332137
0.337054
0.342517
0.314716
0.344205
0.336119
0.333047
0.33462
0.330687
0.340156
0.340323
0.337332
0.377192
0.330087
0.330187
0.343074
0.335378
0.332281
0.332946
0.342392
0.331189
0.330134
0.317154
0.33407
0.319578
0.372833
0.330354
0.342339
0.339362
0.338865
0.359997
0.340828
0.346519
0.329854
0.331273
0.327613
0.326314
0.329939
0.335519
0.333825
0.327613
0.329467
0.322077
0.329414
0.337675
0.330239
0.363574
0.330233
0.332162
0.364662
0.344742
0.328972
0.362599
0.329854
0.333712
0.329425
0.337512
0.339236
0.329953
0.337175
0.348071
0.32906
0.329643
0.346367
0.330571
0.338532
0.329381
0.33106
0.328267
0.343079
0.352047
0.374204
0.330958
0.320177
0.318971
0.335287
0.348868
0.328091
0.32793
0.330095
0.328233
0.379363
0.34328
0.327802
0.334817
0.330873
0.327802
0.329069
0.333305
0.329546
0.339462
0.332163
0.327448
0.330048
0.350591
0.327196
0.328805
0.340425
0.335404
0.327034
0.331202
0.326314
0.338521
0.326687
0.32753
0.36405
0.327539
0.335194
0.325688
0.365992
0.330847
0.339201
0.312287
0.333632
0.327591
0.332191
0.334838
0.325862
0.329041
0.326724
0.326658
0.326724
0.326724
0.34431
0.373064
0.336477
0.321442
0.3387
0.334985
0.327588
0.326305
0.375709
0.324607
0.365016
0.325353
0.325045
0.325846
0.325281
0.354562
0.352565
0.327485
0.3264
0.326254
0.326249
0.312287
0.324451
0.341023
0.325191
0.330652
0.332467
0.32516
0.336394
0.332294
0.358658
0.324517
0.3245
0.32876
0.332233
0.324666
0.356228
0.32383
0.315927
0.379322
0.324257
0.34793
0.349789
0.329876
0.330355
0.349125
0.359156
0.323864
0.327176
0.362583
0.328674
0.326127
0.324049
0.332994
0.324335
0.333834
0.323424
0.330749
0.330798
0.344246
0.345357
0.323277
0.326616
0.326847
0.323622
0.323143
0.324439
0.363882
0.325471
0.361043
0.379298
0.370295
0.379081
0.324414
0.326133
0.332085
0.332246
0.326413
0.322743
0.344725
0.331111
0.322125
0.321539
0.32225
0.357515
0.331496
0.359168
0.325321
0.379341
0.342212
0.351056
0.322125
0.335774
0.321767
0.322857
0.327437
0.322014
0.323621
0.321289
0.328556
0.33457
0.323436
0.349261
0.325477
0.334344
0.321029
0.320256
0.332229
0.320185
0.319581
0.323472
0.321297
0.33716
0.320599
0.320133
0.325477
0.321622
0.318971
0.323881
0.348894
0.319331
0.343815
0.314716
0.330022
0.361374
0.321622
0.32534
0.319025
0.353687
0.3265
0.31962
0.32443
0.338841
0.318013
0.326901
0.318195
0.329205
0.322106
0.317493
0.324323
0.33315
0.320135
0.331929
0.317299
0.317299
0.322423
0.325861
0.324837
0.341842
0.32524
0.318363
0.333925
0.319317
0.321581
0.325861
0.316598
0.316748
0.316598
0.316788
0.322462
0.325018
0.325018
0.316334
0.319317
0.315947
0.322959
0.316192
0.315927
0.316022
0.319636
0.31711
0.329777
0.314716
0.323982
0.379113
0.326392
0.379064
0.322922
0.315418
0.315373
0.319755
0.316121
0.363418
0.362194
0.374433
0.314791
0.321463
0.314951
0.318444
0.312287
0.3341
0.312287
0.314301
0.350125
0.314101
0.314341
0.328387
0.361932
0.326018
0.326375
0.316
0.334472
0.315684
0.314357
0.355746
0.324792
0.337129
0.312287
0.313945
0.315561
0.334285
0.315663
0.313144
0.379379
0.331946
0.319689
0.332234
0.37463
0.315389
0.34984
0.318211
0.314448
0.313188
0.324054
)


// ************************************************************************* //
