/*--------------------------------*- C++ -*----------------------------------*\
  =========                 |
  \\      /  F ield         | OpenFOAM: The Open Source CFD Toolbox
   \\    /   O peration     | Website:  https://openfoam.org
    \\  /    A nd           | Version:  7
     \\/     M anipulation  |
\*---------------------------------------------------------------------------*/
FoamFile
{
    version     2.0;
    format      ascii;
    class       vectorField;
    location    "0.7/lagrangian/reactingCloud1";
    object      coordinates;
}
// * * * * * * * * * * * * * * * * * * * * * * * * * * * * * * * * * * * * * //


2438
(
(-1.09953 0.40873 -2.1684e-19)
(-1.15137 0.399987 0)
(-1.06198 0.171155 0)
(-1.07052 0.254817 0)
(-1.09119 0.133536 1.0842e-19)
(-1.10584 0.120963 -8.13152e-20)
(-1.11445 0.268355 -1.32137e-19)
(-1.12375 0.315682 -2.30393e-19)
(-1.1435 0.284102 2.1684e-19)
(-1.16551 0.154345 -5.42101e-20)
(-1.17227 0.385855 0)
(-1.1884 0.29614 -2.1684e-19)
(-1.20618 0.23801 0)
(-1.22348 0.236802 8.13152e-20)
(-1.23993 0.213672 -5.42101e-20)
(-1.25403 0.233038 -2.71051e-20)
(-1.27107 0.148721 0)
(-1.28572 0.260506 0)
(-1.30104 0.244042 0)
(-1.31778 0.180223 5.42101e-20)
(-1.33446 0.368445 6.77626e-20)
(-1.35268 0.0689825 0)
(-1.36642 0.174653 5.42101e-20)
(-1.38492 0.164303 6.77626e-20)
(-1.39895 0.0816137 -1.35525e-20)
(-1.41556 0.243487 1.0842e-19)
(-1.43163 0.288993 1.0842e-19)
(-1.48292 0.385336 0)
(-1.44776 0.326753 0)
(-1.46359 0.308149 -3.25261e-19)
(-1.47955 0.232007 0)
(-1.49699 0.353509 0)
(-1.51291 0.230217 0)
(-1.52951 0.340058 1.0842e-19)
(-1.5458 0.290487 0)
(-1.5596 0.204911 2.1684e-19)
(-1.57606 0.228692 -1.0842e-19)
(-1.59189 0.284299 0)
(-1.60947 0.289499 0)
(-1.62655 0.026445 -2.03288e-20)
(-1.64044 0.241849 -5.42101e-20)
(-1.65854 0.343519 1.0842e-19)
(-1.67438 0.37388 1.0842e-19)
(-0.962606 0.447588 5.42101e-20)
(-0.874554 0.479134 6.09864e-20)
(-0.400388 0.40442 4.33681e-19)
(-0.355536 0.300374 8.13152e-20)
(-0.351358 0.250947 -2.71051e-20)
(-0.425834 0.386732 -1.0842e-19)
(-0.427563 0.379494 -2.1684e-19)
(-0.372959 0.158444 0)
(-0.412231 0.287353 -5.42101e-20)
(-0.438024 0.334449 2.1684e-19)
(-0.467727 0.381318 1.6263e-19)
(-0.515398 0.400567 0)
(-0.4649 0.304263 0)
(-0.480924 0.326925 -5.42101e-20)
(-0.504105 0.367939 -4.33681e-19)
(-0.472549 0.110519 -5.42101e-20)
(-0.504963 0.267942 0)
(-0.538543 0.380772 5.42101e-20)
(-0.53427 0.314906 0)
(-0.551363 0.338881 0)
(-0.614329 0.431082 2.1684e-19)
(-0.668348 0.437339 1.6263e-19)
(-0.578258 0.301766 -5.42101e-20)
(-0.580481 0.216055 -8.30092e-20)
(-0.594138 0.238169 2.71051e-20)
(-0.618081 0.351577 -8.80914e-20)
(-0.647591 0.420804 -5.42101e-20)
(-0.631911 0.295396 2.1684e-19)
(-0.631989 0.104745 0)
(-0.675395 0.384098 0)
(-0.644659 0.122642 0)
(-0.68753 0.392029 -1.0842e-19)
(-0.686906 0.257759 1.0842e-19)
(-0.694744 0.217861 0)
(-0.719592 0.391073 -2.1684e-19)
(-0.724753 0.32302 0)
(-0.736931 0.347684 2.1684e-19)
(-0.74184 0.238528 1.0842e-19)
(-0.754032 0.276225 1.0842e-19)
(-0.76645 0.227913 5.42101e-20)
(-0.787318 0.399373 2.71051e-19)
(-0.800242 0.234008 0)
(-0.815948 0.357356 0)
(-0.824356 0.145051 0)
(-0.849036 0.271577 9.48677e-20)
(-0.874139 0.420949 -5.42101e-20)
(-0.874248 0.186634 5.42101e-20)
(-0.88437 0.32127 -2.1684e-19)
(-0.898658 0.338689 2.71051e-20)
(-0.91032 0.22598 2.1684e-19)
(-0.931511 0.412509 -5.42101e-20)
(-0.952981 0.423158 2.1684e-19)
(-0.959459 0.421873 -2.71051e-20)
(-0.946185 0.354417 2.1684e-19)
(-0.971444 0.419387 -1.49078e-19)
(-0.972908 0.319618 0)
(-0.984919 0.402292 -1.0842e-19)
(-1.02062 0.427086 0)
(-1.01201 0.318542 -5.42101e-20)
(-1.02295 0.365166 -1.0842e-19)
(-1.0453 0.226324 0)
(0.00715224 0.241324 2.1684e-19)
(-0.00818124 0.267037 0)
(0.00262931 0.205941 0)
(-0.0363939 0.163275 0)
(-0.0477693 0.235255 0)
(-0.079246 0.313978 0)
(-0.100977 0.320271 0)
(-0.0779156 0.246233 -1.0842e-19)
(-0.0853029 0.205986 -2.71051e-20)
(-0.134708 0.247056 0)
(-0.160303 0.260879 -2.1684e-19)
(-0.16689 0.247265 2.71051e-20)
(-0.178195 0.0921207 0)
(-0.206148 0.27996 -1.0842e-19)
(-0.204344 0.128167 5.42101e-20)
(-0.228839 0.267129 -5.42101e-20)
(-0.25741 0.184088 5.42101e-20)
(-0.272912 0.269962 -2.71051e-20)
(-0.289481 0.382761 0)
(-0.288153 0.230653 -1.69407e-20)
(-0.304583 0.182562 -5.42101e-20)
(-0.309995 0.134086 0)
(-0.311965 0.253003 -1.0842e-19)
(0.59104 0.257884 1.0842e-19)
(0.581686 0.0592995 0)
(0.465286 0.14744 0)
(0.468105 0.215297 0)
(0.427044 0.199551 -8.13152e-20)
(0.408709 0.157738 0)
(0.392847 0.228651 -8.13152e-20)
(0.368394 0.248616 -1.35525e-20)
(0.335765 0.125833 -2.03288e-20)
(0.316096 0.177157 -5.42101e-20)
(0.30867 0.105862 -2.71051e-20)
(0.250114 0.137074 0)
(0.238575 0.108859 0)
(0.215476 0.216113 5.42101e-20)
(0.178329 0.142268 1.0842e-19)
(1.09714 0.204955 0)
(1.08225 0.176411 0)
(1.06296 0.247181 5.42101e-20)
(1.07653 0.225919 1.0842e-19)
(1.06061 0.0805228 0)
(0.963563 0.0890128 0)
(0.94482 0.0192577 0)
(0.907148 0.268343 0)
(0.915943 0.268582 5.42101e-20)
(0.827803 0.0800225 -2.03288e-20)
(0.832596 0.20762 -2.71051e-20)
(0.828886 0.227448 -5.42101e-20)
(0.799022 0.156335 0)
(0.751897 0.123344 3.38813e-20)
(0.66656 0.155459 0)
(0.649564 0.0838459 0)
(0.623582 0.211507 -1.0842e-19)
(2.09898 0.238094 0)
(2.08497 0.234988 0)
(1.96978 0.255213 6.77626e-20)
(2.01625 0.0819615 0)
(1.9582 0.196118 0)
(1.91959 0.204189 0)
(1.82609 0.229217 0)
(1.74076 0.202292 0)
(1.72924 0.141641 -2.71051e-20)
(1.6317 0.118731 0)
(1.61588 0.168249 2.71051e-20)
(1.51008 0.221547 0)
(1.4105 0.0258047 0)
(1.38874 0.214302 0)
(1.38006 0.20911 0)
(1.3745 0.193255 1.0842e-19)
(1.33782 0.160002 -2.03288e-20)
(1.28612 0.257276 -1.0842e-19)
(1.28164 0.198926 4.06576e-20)
(3.32903 0.285256 5.2516e-20)
(3.28023 0.241214 0)
(3.28697 0.143898 -2.33993e-20)
(3.13111 0.268003 0)
(3.21042 0.238951 5.42101e-20)
(3.2423 0.00928062 2.5411e-21)
(3.20288 0.211173 -1.21973e-19)
(3.16071 0.199933 5.42101e-20)
(3.11681 0.220484 -5.42101e-20)
(3.01645 0.145858 -1.0842e-19)
(3.0029 0.224715 4.06576e-20)
(3.00893 0.115119 0)
(2.99045 0.199431 1.49078e-19)
(2.91795 0.181367 -5.42101e-20)
(2.72185 0.131803 1.35525e-20)
(2.66504 0.188757 5.42101e-20)
(2.57635 0.26552 -1.6263e-19)
(2.55603 0.188258 0)
(2.52769 0.0405355 -2.71051e-20)
(2.46576 0.255147 -1.35525e-19)
(2.47478 0.246842 9.48677e-20)
(2.42413 0.290424 1.0842e-19)
(2.44712 0.241982 0)
(2.42447 0.249401 5.42101e-20)
(2.44298 0.235195 -1.0842e-19)
(2.40357 0.227773 -5.42101e-20)
(2.40345 0.191193 5.42101e-20)
(2.31446 0.249653 -5.42101e-20)
(2.29355 0.116945 0)
(2.2402 0.206119 -1.0842e-19)
(2.16966 0.142816 -1.0842e-19)
(5.20886 0.256977 -1.35525e-20)
(5.23073 0.172918 -5.42101e-20)
(5.01473 0.253041 6.77626e-21)
(5.2061 0.161143 1.0842e-19)
(5.16338 0.088385 0)
(5.09701 0.191869 -1.35525e-19)
(4.97021 0.254457 0)
(5.04662 0.200722 1.0842e-19)
(5.06577 0.141655 -8.13152e-20)
(4.94465 0.210732 -1.0842e-19)
(4.93675 0.168312 5.42101e-20)
(4.92103 0.153121 -5.42101e-20)
(4.85462 0.117587 2.71051e-20)
(4.82144 0.0238686 2.37169e-20)
(4.80362 0.124873 4.06576e-20)
(4.78524 0.058305 -2.71051e-20)
(4.60004 0.186642 -5.42101e-20)
(4.5792 0.115544 -4.74338e-20)
(4.56101 0.135686 5.42101e-20)
(4.29578 0.318567 0)
(4.41702 0.16507 -2.03288e-20)
(4.3506 0.228698 0)
(4.37446 0.0742502 1.35525e-20)
(4.29996 0.210406 0)
(4.09412 0.264042 0)
(4.06944 0.270186 0)
(4.15094 0.055395 1.35525e-20)
(4.12103 0.186724 -4.06576e-20)
(4.11183 0.0332929 -2.59404e-21)
(4.02835 0.209173 5.42101e-20)
(4.00405 0.198997 0)
(3.85505 0.134477 -5.42101e-20)
(3.78478 0.255867 -1.0842e-19)
(3.81265 0.210437 -1.0842e-19)
(3.76384 0.12542 -5.42101e-20)
(3.73796 0.228861 -2.71051e-20)
(3.7086 0.236432 0)
(3.69442 0.0200815 -6.77626e-21)
(3.6769 0.186015 2.71051e-20)
(3.51349 0.248049 -1.35525e-19)
(3.51167 0.146718 -5.42101e-20)
(3.42329 0.209485 -1.0842e-19)
(7.60573 -1.71271e-33 1.49466e-35)
(6.22264 -1.82992e-33 1.59695e-35)
(7.07265 -1.75789e-33 1.53409e-35)
(6.64863 -1.79383e-33 1.56545e-35)
(6.73114 -1.78684e-33 1.55935e-35)
(7.79242 -1.69689e-33 1.48085e-35)
(5.23662 -1.9135e-33 1.66989e-35)
(7.78023 0.0620682 -2.71051e-20)
(7.71772 0.203534 0)
(7.5416 0.255204 -2.1684e-19)
(7.61307 0.205235 -1.0842e-19)
(7.64756 0.117034 0)
(7.57094 0.0411051 -1.35525e-20)
(7.51382 0.0656003 2.71051e-20)
(7.568 0.0902448 2.71051e-20)
(7.29713 0.270023 0)
(7.31902 0.0803735 5.42101e-20)
(7.35675 0.0906701 2.71051e-20)
(7.31116 0.133943 -1.0842e-19)
(7.1228 0.217465 0)
(7.12972 0.172888 -1.0842e-19)
(6.79855 0.314683 8.13152e-20)
(7.01002 0.0652487 6.77626e-21)
(7.15111 0.104837 -5.42101e-20)
(7.03957 0.18371 1.6263e-19)
(7.05593 0.117886 0)
(6.65061 0.276324 -1.35525e-20)
(6.81454 0.0946638 0)
(6.69836 0.202535 -5.42101e-20)
(6.62909 0.205787 -1.0842e-19)
(6.61136 0.0647039 0)
(6.63972 0.160726 2.71051e-20)
(6.63559 0.13708 0)
(6.53283 0.211949 1.0842e-19)
(6.53785 0.190722 0)
(6.35779 0.279078 -5.42101e-20)
(6.12284 0.34734 0)
(6.32029 0.17111 -5.42101e-20)
(6.29945 0.152018 -4.74338e-20)
(6.17528 0.217217 -8.13152e-20)
(6.1697 0.207692 0)
(6.15229 0.136246 -1.35525e-20)
(6.07929 0.218174 -8.13152e-20)
(6.05828 0.221442 1.35525e-20)
(6.09431 0.177604 5.42101e-20)
(6.08163 0.161546 -6.77626e-21)
(6.01988 0.126481 -5.42101e-20)
(5.94854 0.172388 -1.0842e-19)
(5.87003 0.281144 -6.18334e-20)
(5.84511 0.18764 -1.0842e-19)
(5.8277 0.115508 0)
(5.73866 0.258184 -1.0842e-19)
(5.6858 0.382354 0)
(5.69444 0.12372 0)
(5.67775 0.162824 0)
(5.66773 0.108851 5.42101e-20)
(5.57896 0.096973 0)
(5.41149 0.20151 1.0842e-19)
(5.37241 0.2665 7.45389e-20)
(5.3561 0.129912 0)
(5.29343 0.194298 8.13152e-20)
(5.27777 0.204852 0)
(10.0862 -1.50249e-33 1.3112e-35)
(9.67675 -1.53719e-33 1.34148e-35)
(10.5712 -1.46138e-33 1.27533e-35)
(9.8337 0.00271116 0)
(9.80651 -1.52619e-33 1.33189e-35)
(10.318 -1.48284e-33 1.29405e-35)
(9.51998 -1.55048e-33 1.35308e-35)
(10.7683 -1.44468e-33 1.26075e-35)
(8.72777 -1.61762e-33 1.41167e-35)
(10.0569 -1.50497e-33 1.31337e-35)
(8.59288 -1.62905e-33 1.42165e-35)
(8.54467 -1.63314e-33 1.42522e-35)
(8.37065 -1.64788e-33 1.43809e-35)
(8.33167 -1.65119e-33 1.44097e-35)
(8.63114 1.70662e-30 1.49218e-32)
(8.11335 -1.66969e-33 1.45712e-35)
(10.6981 -1.45063e-33 1.26595e-35)
(7.93576 -1.68474e-33 1.47025e-35)
(10.8988 0.23529 2.71051e-20)
(10.8767 0.264175 5.42101e-20)
(10.7527 0.248839 0)
(10.8413 0.162079 1.0842e-19)
(10.7448 0.186841 -5.42101e-20)
(10.7062 0.188283 2.1684e-19)
(10.7171 0.179839 0)
(10.7821 0.169491 0)
(10.8111 0.107909 5.42101e-20)
(10.1235 0.396822 -2.1684e-19)
(10.4406 0.24541 -8.13152e-20)
(10.2981 0.260016 -5.75982e-20)
(10.3192 0.240858 0)
(10.2257 0.26678 -2.71051e-20)
(10.5697 0.109183 1.35525e-20)
(10.3798 0.177613 0)
(10.5167 0.0926169 0)
(10.3771 0.187087 -2.37169e-20)
(10.3474 0.175623 4.06576e-20)
(10.3015 0.175417 0)
(10.4441 0.0774844 1.35525e-20)
(10.0531 0.277185 -2.1684e-19)
(10.1626 0.214513 0)
(10.2864 0.181374 1.0842e-19)
(10.105 0.224193 5.42101e-20)
(9.55697 0.508615 0)
(10.1391 0.146645 -1.0842e-19)
(7.83528 -1.69326e-33 1.47768e-35)
(10.039 0.176555 0)
(10.1355 0.0587242 2.71051e-20)
(9.89268 0.226242 0)
(9.93119 0.204915 -2.71051e-20)
(10.0172 0.133659 5.42101e-20)
(9.81027 0.249185 0)
(9.97606 0.0739698 -1.69407e-21)
(9.87604 0.127268 1.0842e-19)
(9.77696 0.170668 -1.0842e-19)
(9.705 0.192034 -1.0842e-19)
(9.771 0.087707 1.35525e-20)
(9.71634 0.0288039 3.38813e-21)
(9.55662 0.174203 -2.71051e-20)
(9.48512 0.0939816 -5.42101e-20)
(9.47217 0.114068 1.69407e-20)
(9.20971 0.244217 -1.0842e-19)
(9.27282 0.219526 5.0822e-20)
(9.3008 0.14833 -1.0842e-19)
(9.17928 0.202493 2.71051e-20)
(9.04712 0.245914 1.35525e-20)
(8.9645 0.264008 2.1684e-19)
(9.02106 0.215588 -1.0842e-19)
(9.08728 0.144416 1.35525e-20)
(8.70701 0.459967 1.0842e-19)
(8.91905 0.164403 2.71051e-20)
(8.88817 0.209505 2.1684e-19)
(8.89272 0.161414 -5.42101e-20)
(8.70328 0.109572 5.42101e-20)
(8.68372 0.163641 1.0842e-19)
(8.61883 0.104253 0)
(8.38072 0.354334 0)
(8.37244 0.23951 0)
(8.35179 0.129312 0)
(8.29909 0.140237 2.71051e-20)
(8.25139 0.0457995 -2.71051e-20)
(8.24199 0.112453 0)
(8.20986 0.187981 5.42101e-20)
(8.14393 0.270611 -1.0842e-19)
(8.14409 0.240207 0)
(8.14919 0.156649 2.1684e-19)
(8.0323 0.259847 1.0842e-19)
(8.02203 0.117552 0)
(7.99465 0.178794 0)
(7.99798 0.124153 0)
(7.97033 0.23377 2.1684e-19)
(7.92197 0.245137 0)
(7.91616 0.243104 0)
(7.91048 0.224896 5.42101e-20)
(7.87575 0.241387 1.0842e-19)
(7.87883 0.108364 5.42101e-20)
(7.86063 0.199145 -6.77626e-21)
(7.81052 0.0853369 5.42101e-20)
(13.6299 -1.20215e-33 1.0491e-35)
(13.4862 -1.21433e-33 1.05973e-35)
(13.2719 -1.23249e-33 1.07558e-35)
(13.4555 -1.21693e-33 1.062e-35)
(12.7696 -1.27507e-33 1.11273e-35)
(13.9274 -1.17694e-33 1.0271e-35)
(13.1042 -1.24671e-33 1.08798e-35)
(12.4045 -1.306e-33 1.13973e-35)
(13.7086 -1.19548e-33 1.04328e-35)
(13.5621 -1.2079e-33 1.05412e-35)
(13.8058 -1.18724e-33 1.03609e-35)
(14.0164 -1.1694e-33 1.02052e-35)
(13.8195 -1.18609e-33 1.03508e-35)
(11.6991 -1.36579e-33 1.19191e-35)
(11.574 -1.37639e-33 1.20116e-35)
(12.9862 -1.25671e-33 1.09671e-35)
(12.2055 -1.32287e-33 1.15445e-35)
(11.7331 -1.36291e-33 1.18939e-35)
(12.9312 -1.26137e-33 1.10078e-35)
(13.6686 -1.19887e-33 1.04624e-35)
(11.4114 -1.39017e-33 1.21318e-35)
(13.8043 -1.18737e-33 1.03621e-35)
(12.2473 -1.31933e-33 1.15136e-35)
(11.7408 -1.36226e-33 1.18882e-35)
(12.4609 -1.30122e-33 1.13556e-35)
(11.8451 -1.35342e-33 1.18111e-35)
(11.2294 -1.4056e-33 1.22665e-35)
(11.6068 -1.37361e-33 1.19873e-35)
(11.1541 -1.41198e-33 1.23221e-35)
(11.4933 -1.38323e-33 1.20713e-35)
(11.0633 -1.41968e-33 1.23893e-35)
(11.0413 -9.73134e-34 8.49241e-36)
(14.093 0.515046 -2.1684e-19)
(14.019 0.468468 0)
(14.098 0.425968 -2.1684e-19)
(13.9848 0.318061 -1.0842e-19)
(14.0231 0.265173 0)
(13.9357 0.268328 -2.1684e-19)
(13.9798 0.199718 5.42101e-20)
(14.066 0.10743 2.71051e-20)
(13.9111 0.160143 5.42101e-20)
(13.9521 0.125647 -8.44915e-20)
(13.5225 0.313637 0)
(13.941 0.0710385 0)
(13.9175 0.103211 -5.42101e-20)
(13.9183 0.0575013 -2.71051e-20)
(13.7022 0.156818 0)
(13.9237 0.016287 -3.38813e-21)
(13.1334 0.462655 -5.42101e-20)
(13.5706 0.238781 -5.42101e-20)
(13.7034 0.144891 0)
(13.681 0.17666 -1.05879e-21)
(13.4985 0.222224 0)
(13.3193 0.262429 5.42101e-20)
(13.6316 0.0808057 -5.42101e-20)
(13.1995 0.250711 0)
(13.3472 0.145175 2.71051e-20)
(13.414 0.109286 1.35525e-20)
(13.2325 0.167672 3.38813e-21)
(13.1119 0.217652 -8.13152e-20)
(13.3349 0.0524322 1.35525e-20)
(13.2685 0.137913 -1.35525e-19)
(12.9552 0.311516 0)
(13.2208 0.130353 4.06576e-20)
(13.0716 0.172917 2.71051e-20)
(13.1022 0.13936 -1.0842e-19)
(12.6566 0.399399 0)
(13.0732 0.153048 -2.71051e-20)
(13.1339 0.0890869 0)
(12.8244 0.252932 0)
(12.7088 0.294554 -1.0842e-19)
(12.932 0.119937 -5.42101e-20)
(12.8239 0.16911 0)
(12.5897 0.330677 -2.1684e-19)
(12.7603 0.147072 0)
(12.4643 0.1839 0)
(12.5048 0.148071 -4.06576e-20)
(12.5463 0.101738 -2.71051e-20)
(12.4958 0.166073 0)
(12.5252 0.104631 0)
(12.3175 0.137236 2.71051e-20)
(12.2267 0.202316 5.42101e-20)
(12.2376 0.0883909 0)
(12.0144 0.246846 0)
(12.0991 0.164681 0)
(12.0844 0.15264 0)
(12.0218 0.132157 1.01644e-20)
(11.9563 0.208735 0)
(11.8785 0.268053 -8.13152e-20)
(11.8442 0.122738 0)
(11.7844 0.174104 0)
(11.8014 0.111549 2.71051e-20)
(11.6976 0.152098 0)
(11.6448 0.238887 1.6263e-19)
(11.6124 0.180943 2.71051e-20)
(11.6466 0.0908409 -2.71051e-20)
(11.4473 0.274949 2.71051e-20)
(11.5023 0.0165057 -3.38813e-21)
(11.3494 0.408436 -2.1684e-19)
(11.3787 0.268838 1.69407e-19)
(11.3474 0.257743 -1.35525e-20)
(11.3887 0.14429 0)
(11.3354 0.169363 0)
(11.2946 0.13946 1.0842e-19)
(11.241 0.233529 5.42101e-20)
(11.2216 0.242544 -1.0842e-19)
(11.1026 0.112943 5.42101e-20)
(11.0099 0.00726896 0)
(11.0074 0.0621843 -2.71051e-20)
(10.9664 0.391473 0)
(16.3664 -9.70224e-34 8.46702e-36)
(18.6944 -7.72926e-34 6.74522e-36)
(18.9984 -7.47158e-34 6.52035e-36)
(17.3285 -8.88685e-34 7.75544e-36)
(18.4564 -7.9309e-34 6.92119e-36)
(18.1295 -8.20795e-34 7.16297e-36)
(19.0417 1.48412e-25 1.29517e-27)
(17.3688 -8.85267e-34 7.72561e-36)
(18.8177 -7.62476e-34 6.65403e-36)
(18.0956 -8.23674e-34 7.18809e-36)
(19.0858 -7.39751e-34 6.45571e-36)
(15.845 2.28651e-27 -1.99541e-29)
(15.6869 -1.02781e-33 8.96959e-36)
(17.498 2.19465e-22 -1.91524e-24)
(15.755 -1.02205e-33 8.91925e-36)
(18.4604 -7.92754e-34 6.91826e-36)
(16.6898 -9.42814e-34 8.22782e-36)
(16.4281 -9.64977e-34 8.42151e-36)
(18.8618 -7.58733e-34 6.62137e-36)
(16.8812 -9.26596e-34 8.08628e-36)
(16.274 -9.7806e-34 8.5354e-36)
(18.6628 -7.75604e-34 6.7686e-36)
(18.707 -7.71858e-34 6.7359e-36)
(18.83 -7.61429e-34 6.64489e-36)
(18.2073 -8.14206e-34 7.10547e-36)
(15.6515 -1.03082e-33 8.9958e-36)
(18.9108 -7.54584e-34 6.58515e-36)
(18.7218 1.49053e-21 1.30077e-23)
(15.3514 -1.05625e-33 9.21773e-36)
(15.6199 -1.03349e-33 9.01917e-36)
(15.54 -1.04027e-33 9.07827e-36)
(18.4586 -7.9291e-34 6.91962e-36)
(18.5492 1.32383e-32 -1.15529e-34)
(18.5305 -7.8681e-34 6.86638e-36)
(18.2485 -8.10715e-34 7.075e-36)
(18.7346 -7.69512e-34 6.71543e-36)
(17.7332 -8.54383e-34 7.45609e-36)
(14.62 -1.11824e-33 9.75872e-36)
(17.9038 -8.39926e-34 7.32992e-36)
(16.1089 -9.92046e-34 8.65746e-36)
(17.7838 -8.50097e-34 7.41869e-36)
(17.9224 -8.38347e-34 7.31614e-36)
(18.5546 -6.45354e-34 8.06526e-36)
(17.9819 -8.33308e-34 7.27217e-36)
(14.9645 -1.08904e-33 9.50392e-36)
(18.7577 -7.67534e-34 6.69817e-36)
(18.4239 -7.95851e-34 6.94529e-36)
(15.3519 -1.05621e-33 9.21739e-36)
(18.5812 -7.82518e-34 6.82893e-36)
(16.0725 -9.95133e-34 8.6844e-36)
(14.403 -1.13663e-33 9.9192e-36)
(18.4854 -7.90638e-34 6.89979e-36)
(14.3677 -1.13962e-33 9.94533e-36)
(14.3502 -1.1411e-33 9.95823e-36)
(17.0664 -9.10897e-34 7.94928e-36)
(15.21 -1.06824e-33 9.32235e-36)
(15.0928 -1.07817e-33 9.40902e-36)
(18.5737 -7.83154e-34 6.83448e-36)
(14.9656 -1.08895e-33 9.50312e-36)
(17.3575 -8.86227e-34 7.73399e-36)
(18.909 -7.54731e-34 6.58644e-36)
(18.6689 -7.75081e-34 6.76403e-36)
(18.6417 -7.77385e-34 6.78414e-36)
(18.9793 -7.48776e-34 6.53447e-36)
(14.198 -1.154e-33 1.00708e-35)
(14.197 -1.15409e-33 1.00716e-35)
(18.9007 6.34302e-23 -5.53547e-25)
(17.38 -8.84318e-34 7.71733e-36)
(19.2159 0.683508 -2.1684e-19)
(14.2114 -1.15287e-33 1.0061e-35)
(19.1985 0.567509 0)
(19.2268 0.329395 0)
(19.1295 0.480134 0)
(18.8949 0.320309 0)
(18.1724 0.677114 -2.1684e-19)
(19.2423 0.194092 -1.6263e-19)
(19.1471 0.224635 0)
(19.0496 0.210082 1.0842e-19)
(19.1993 0.170285 0)
(16.2661 -9.78725e-34 8.5412e-36)
(18.5867 0.342849 2.71051e-20)
(18.9473 0.151752 -8.13152e-20)
(19.041 0.137862 6.77626e-20)
(18.1405 0.418111 0)
(18.704 0.259653 2.1684e-19)
(14.1577 -1.15742e-33 1.01007e-35)
(18.7961 0.202944 0)
(18.6088 0.235656 -6.77626e-20)
(19.1908 0.0778022 -1.01644e-20)
(18.1908 0.389276 2.1684e-19)
(18.9615 0.162098 1.0842e-19)
(19.0344 0.0750143 6.77626e-21)
(18.5925 0.189269 -5.42101e-20)
(18.3498 0.266985 1.0842e-19)
(19.0228 0.0124337 6.77626e-21)
(18.8347 0.088991 0)
(18.795 0.0412079 -4.06576e-20)
(18.5029 0.146167 5.42101e-20)
(18.4756 0.146962 0)
(18.6882 0.0621711 -2.71051e-20)
(18.3749 0.130442 -5.42101e-20)
(18.235 0.281966 -2.1684e-19)
(18.1521 0.185194 -4.74338e-20)
(17.7958 0.29738 1.0842e-19)
(18.1683 0.158215 0)
(17.7572 0.298007 0)
(14.7451 -1.10763e-33 9.66617e-36)
(18.2747 0.131838 0)
(17.5473 0.319988 6.77626e-21)
(17.6555 0.311298 0)
(17.4748 0.372403 0)
(18.0683 0.141964 0)
(17.6939 0.222999 -4.06576e-20)
(14.1788 -1.15563e-33 1.00851e-35)
(17.9372 0.120029 0)
(17.9736 0.10518 1.35525e-20)
(18.1414 0.0684118 2.71051e-20)
(17.8903 0.109391 6.77626e-21)
(17.1183 0.518979 -2.1684e-19)
(17.549 0.264651 -1.0842e-19)
(17.8298 0.129106 0)
(17.9499 0.0295228 6.77626e-21)
(17.7515 0.102317 2.71051e-20)
(17.2108 0.21544 -1.0842e-19)
(17.2527 0.296608 0)
(17.2052 0.244075 -1.21973e-19)
(17.4911 0.0898442 0)
(17.3206 0.101922 0)
(16.7122 0.389384 -2.1684e-19)
(17.3387 0.0802978 0)
(16.7542 0.342269 2.1684e-19)
(16.924 0.204231 0)
(17.0925 0.226154 -1.35525e-20)
(17.2983 0.0254168 -6.77626e-21)
(17.2479 0.0464677 -4.23516e-21)
(16.596 0.280017 -9.48677e-20)
(17.0127 0.0589158 0)
(16.8805 0.0300906 0)
(16.4636 0.196455 0)
(16.1311 0.406487 -2.1684e-19)
(16.6496 0.0926053 2.71051e-20)
(16.3502 0.198259 -5.42101e-20)
(16.5929 0.00314239 0)
(16.1616 0.218482 0)
(15.7848 0.586243 -1.35525e-19)
(16.4104 0.0268249 0)
(16.2883 0.0884199 0)
(16.1946 0.143485 0)
(16.1904 0.115504 0)
(16.1976 0.113299 -2.71051e-20)
(16.2027 0.110495 0)
(15.9027 0.317831 0)
(16.1016 0.104862 1.35525e-20)
(15.8549 0.260455 -2.1684e-19)
(15.7382 0.319717 1.0842e-19)
(15.4998 0.658206 1.0842e-19)
(16.051 0.0322195 6.77626e-21)
(15.9114 0.129808 0)
(15.9018 0.16235 8.13152e-20)
(15.7671 0.210974 2.71051e-20)
(15.4351 0.45502 -1.6263e-19)
(15.7025 0.103479 0)
(15.6215 0.157963 -2.71051e-20)
(15.7157 0.0158571 -6.77626e-21)
(15.4074 0.452701 1.55854e-19)
(15.4502 0.261162 1.0842e-19)
(15.4471 0.173822 0)
(15.4468 0.153004 5.42101e-20)
(15.3413 0.204911 0)
(15.4747 0.113587 1.35525e-20)
(15.4794 0.127439 0)
(15.4451 0.143657 -5.42101e-20)
(15.4347 0.0510736 -2.71051e-20)
(15.1136 0.290138 -1.6263e-19)
(15.2641 0.216355 5.42101e-20)
(15.1235 0.277283 -2.43945e-19)
(15.2352 0.054656 -4.06576e-20)
(15.1665 0.112455 0)
(15.0947 0.270167 -1.0842e-19)
(14.9993 0.445672 -2.1684e-19)
(14.8531 0.686147 0)
(14.9624 0.229289 1.0842e-19)
(15.0384 0.0249561 3.38813e-21)
(14.9391 0.185038 0)
(14.8903 0.128029 -1.35525e-20)
(14.7335 0.219537 1.0842e-19)
(14.6449 0.197863 -5.42101e-20)
(14.6481 0.141549 1.35525e-20)
(14.596 0.253986 0)
(14.5396 0.221898 -1.0842e-19)
(14.5641 0.167283 0)
(14.4812 0.430771 -2.1684e-19)
(14.4368 0.204048 0)
(14.3244 0.280808 0)
(14.3366 0.117901 5.42101e-20)
(14.2228 0.35901 0)
(14.2352 0.134892 2.71051e-20)
(14.2259 0.134888 5.42101e-20)
(14.1739 0.192357 -5.42101e-20)
(14.1552 0.286314 0)
(22.1245 -4.82216e-34 4.20824e-36)
(23.7077 -3.48037e-34 3.03728e-36)
(21.258 -5.55653e-34 4.84911e-36)
(21.5205 -5.33405e-34 4.65495e-36)
(22.4536 -4.5432e-34 3.96479e-36)
(21.8887 -5.022e-34 4.38263e-36)
(22.0465 -4.88828e-34 4.26594e-36)
(22.1115 -4.83312e-34 4.2178e-36)
(23.6391 -3.53852e-34 3.08802e-36)
(22.9726 -4.10332e-34 3.58091e-36)
(20.8565 -5.89675e-34 5.14602e-36)
(21.0996 -5.69073e-34 4.96622e-36)
(21.6343 -5.23687e-34 4.5714e-36)
(22.5372 -4.4724e-34 3.90301e-36)
(21.6417 -5.23133e-34 4.56531e-36)
(23.8384 -3.36956e-34 2.94057e-36)
(21.7743 -5.11895e-34 4.46724e-36)
(23.8317 7.20767e-25 6.29004e-27)
(23.7683 -3.42902e-34 2.99246e-36)
(23.8625 -3.34911e-34 2.92272e-36)
(24.3173 -2.96371e-34 2.58639e-36)
(22.986 -4.09199e-34 3.57103e-36)
(24.2118 -3.05312e-34 2.66442e-36)
(23.4968 -3.65906e-34 3.19321e-36)
(20.7762 1.18342e-24 -1.03276e-26)
(22.9665 -4.10849e-34 3.58543e-36)
(21.6901 -5.19028e-34 4.52949e-36)
(21.7168 -5.16765e-34 4.50974e-36)
(21.1171 -5.67592e-34 4.9533e-36)
(21.7174 -5.16713e-34 4.50929e-36)
(20.517 -6.18456e-34 5.39719e-36)
(20.2515 -6.40954e-34 5.59352e-36)
(24.2933 -2.98404e-34 2.60414e-36)
(22.1389 -4.80993e-34 4.19756e-36)
(24.3598 -2.92771e-34 2.55497e-36)
(24.3873 -2.90433e-34 2.53457e-36)
(23.7631 -3.4334e-34 2.99628e-36)
(23.495 -3.66057e-34 3.19453e-36)
(22.2931 -4.67921e-34 4.08348e-36)
(22.136 0.000208714 0)
(22.7184 -4.3188e-34 3.76896e-36)
(22.7718 -4.27356e-34 3.72948e-36)
(21.214 -5.59381e-34 4.88164e-36)
(24.4849 -2.82167e-34 2.46244e-36)
(23.3297 -3.80069e-34 3.31682e-36)
(24.0381 -3.20034e-34 2.79289e-36)
(24.0498 -3.19043e-34 2.78424e-36)
(24.496 -2.81222e-34 2.45418e-36)
(22.221 -4.74036e-34 4.13685e-36)
(22.2969 -4.67602e-34 4.0807e-36)
(20.4735 -6.22136e-34 5.4293e-36)
(23.2241 5.36016e-22 4.67774e-24)
(21.0664 -5.71891e-34 4.99081e-36)
(21.5661 -5.2954e-34 4.62123e-36)
(21.3985 -5.43741e-34 4.74516e-36)
(20.2437 -6.41619e-34 5.59933e-36)
(20.2107 -6.44413e-34 5.62371e-36)
(20.3444 -6.33085e-34 5.52485e-36)
(21.7349 -5.15236e-34 4.4964e-36)
(23.8278 -3.37855e-34 2.94841e-36)
(23.7834 -3.41614e-34 2.98122e-36)
(24.3401 1.10202e-25 9.61718e-28)
(23.0057 -4.07531e-34 3.55647e-36)
(24.4004 -2.89327e-34 2.52492e-36)
(23.1217 -3.97697e-34 3.47065e-36)
(23.8372 -3.37056e-34 2.94145e-36)
(23.0249 -4.05901e-34 3.54224e-36)
(21.5357 -5.32111e-34 4.64367e-36)
(23.9682 1.31345e-24 1.14623e-26)
(23.0936 -4.0008e-34 3.49144e-36)
(20.9046 -5.856e-34 5.11045e-36)
(22.2907 -4.68124e-34 4.08526e-36)
(23.3154 -3.81279e-34 3.32737e-36)
(22.2388 -4.72526e-34 4.12368e-36)
(20.0795 -6.55531e-34 5.72074e-36)
(24.501 -2.80799e-34 2.4505e-36)
(24.191 -3.07073e-34 2.67979e-36)
(21.7599 -5.13118e-34 4.47791e-36)
(20.0848 -6.55085e-34 5.71684e-36)
(20.7607 -5.97795e-34 5.21688e-36)
(22.2079 -4.75141e-34 4.1465e-36)
(22.2607 -4.70671e-34 4.10749e-36)
(23.415 8.61829e-25 7.52107e-27)
(22.0779 -4.86165e-34 4.2427e-36)
(23.9787 -3.25069e-34 2.83684e-36)
(20.3374 -6.33673e-34 5.52998e-36)
(22.6463 -4.37989e-34 3.82227e-36)
(21.173 -5.62853e-34 4.91194e-36)
(22.1657 9.28957e-22 -8.10689e-24)
(23.2507 -3.86762e-34 3.37522e-36)
(21.0636 -5.72131e-34 4.99291e-36)
(20.9412 -5.82502e-34 5.08341e-36)
(24.4921 -2.81553e-34 2.45707e-36)
(21.1199 -5.67358e-34 4.95125e-36)
(24.3947 -2.89808e-34 2.52911e-36)
(23.0399 6.28445e-25 5.48436e-27)
(22.0786 -4.86103e-34 4.24216e-36)
(20.688 -6.03958e-34 5.27066e-36)
(23.2473 -3.8705e-34 3.37773e-36)
(21.5147 -5.33895e-34 4.65923e-36)
(23.9916 -3.23973e-34 2.82727e-36)
(20.7881 -5.95472e-34 5.19661e-36)
(24.205 -3.05887e-34 2.66943e-36)
(20.1446 -6.50017e-34 5.67261e-36)
(22.0086 -4.92037e-34 4.29394e-36)
(19.819 -6.77611e-34 5.91342e-36)
(20.1419 -6.50241e-34 5.67456e-36)
(23.1451 -3.95717e-34 3.45337e-36)
(20.036 -6.59216e-34 5.75289e-36)
(20.1385 -6.50533e-34 5.67712e-36)
(21.7857 -5.10926e-34 4.45878e-36)
(19.7582 -6.82761e-34 5.95837e-36)
(21.9766 -4.94751e-34 4.31762e-36)
(21.6072 -5.2606e-34 4.59085e-36)
(23.227 -3.88773e-34 3.39277e-36)
(20.1457 -6.49919e-34 5.67176e-36)
(22.4588 -4.53884e-34 3.96098e-36)
(19.8695 1.95712e-25 -1.70796e-27)
(23.3157 -3.81257e-34 3.32718e-36)
(20.1185 -6.52225e-34 5.69188e-36)
(20.6039 -6.11089e-34 5.33289e-36)
(21.2139 -5.59386e-34 4.88169e-36)
(23.8051 -3.39777e-34 2.96518e-36)
(23.1486 -3.95419e-34 3.45077e-36)
(22.7904 -4.2578e-34 3.71572e-36)
(23.4362 3.59312e-25 3.13567e-27)
(22.6138 -4.40741e-34 3.84629e-36)
(22.8308 -4.22349e-34 3.68579e-36)
(21.7867 -5.10842e-34 4.45805e-36)
(23.0285 -4.05594e-34 3.53957e-36)
(22.9212 -4.14692e-34 3.61897e-36)
(19.7129 5.24374e-25 4.57614e-27)
(23.1351 8.38332e-26 -7.31601e-28)
(19.6558 -6.91438e-34 6.03409e-36)
(22.4141 -4.57673e-34 3.99405e-36)
(19.553 -7.00151e-34 6.11013e-36)
(23.0736 -4.01777e-34 3.50625e-36)
(21.3594 4.46592e-34 -3.89735e-36)
(20.2035 -6.45019e-34 5.629e-36)
(24.4415 -2.85839e-34 2.49448e-36)
(24.0969 -3.15047e-34 2.74937e-36)
(22.2436 -4.72117e-34 4.1201e-36)
(20.3584 -6.31897e-34 5.51448e-36)
(19.5128 -7.03558e-34 6.13985e-36)
(23.8935 -3.32284e-34 2.8998e-36)
(22.0518 -4.88373e-34 4.26197e-36)
(19.5905 -6.96972e-34 6.08238e-36)
(19.4635 -7.07736e-34 6.17632e-36)
(20.571 -6.13873e-34 5.35719e-36)
(23.6023 0.00019587 0)
(19.5473 -7.00641e-34 6.1144e-36)
(20.9741 -5.79714e-34 5.05908e-36)
(21.4991 -5.35218e-34 4.67078e-36)
(19.3937 -7.13654e-34 6.22797e-36)
(22.4577 -4.53973e-34 3.96176e-36)
(22.3175 -4.65856e-34 4.06546e-36)
(24.0184 -3.21704e-34 2.80747e-36)
(23.5794 -3.5891e-34 3.13216e-36)
(22.9544 -4.1188e-34 3.59442e-36)
(20.0477 -6.58227e-34 5.74426e-36)
(22.8614 -4.19763e-34 3.66321e-36)
(21.3047 -5.51696e-34 4.81458e-36)
(20.6409 -6.07955e-34 5.30554e-36)
(19.3148 -7.20338e-34 6.28629e-36)
(20.1624 -6.48509e-34 5.65945e-36)
(20.194 -6.45829e-34 5.63606e-36)
(24.2322 -3.03584e-34 2.64934e-36)
(19.2781 -7.23455e-34 6.31349e-36)
(23.5182 -3.64091e-34 3.17738e-36)
(21.0167 9.12816e-25 7.96602e-27)
(23.6737 -3.50915e-34 3.06239e-36)
(21.7304 -5.15614e-34 4.4997e-36)
(24.4324 -2.86615e-34 2.50125e-36)
(22.833 -4.2217e-34 3.68422e-36)
(23.3243 6.37041e-25 5.55937e-27)
(23.9697 -3.25831e-34 2.84348e-36)
(22.1199 -4.82603e-34 4.21161e-36)
(19.2321 -7.27355e-34 6.34753e-36)
(24.3201 -2.96129e-34 2.58428e-36)
(20.1999 -6.45324e-34 5.63166e-36)
(19.3478 -7.17549e-34 6.26196e-36)
(22.5241 -4.48343e-34 3.91263e-36)
(24.3549 0.503479 0)
(23.8768 0.534451 -3.25261e-19)
(22.0373 -4.89601e-34 4.27268e-36)
(22.9245 -4.14408e-34 3.61648e-36)
(24.3421 0.34332 1.0842e-19)
(24.2545 0.465724 2.1684e-19)
(24.483 0.211307 0)
(24.3816 0.244125 5.42101e-20)
(24.1544 0.254132 5.42101e-20)
(24.3618 0.300204 4.33681e-19)
(23.935 0.359465 0)
(24.272 0.20925 1.0842e-19)
(19.1716 -7.3248e-34 6.39226e-36)
(24.4432 0.111228 2.71051e-20)
(24.3893 0.112094 0)
(24.4806 0.166221 -1.35525e-19)
(22.8456 1.06224 0)
(24.0094 0.254554 5.42101e-20)
(24.0951 0.0254827 0)
(24.0702 0.166379 0)
(24.0806 0.0827499 2.71051e-20)
(23.8411 0.206018 0)
(22.8142 0.604081 0)
(23.5251 0.308437 -2.1684e-19)
(23.7971 0.251021 5.42101e-20)
(23.3776 0.196017 -6.09864e-20)
(23.6907 0.266474 2.71051e-20)
(23.2508 0.364047 8.13152e-20)
(23.4179 0.260894 1.0842e-19)
(23.4006 0.211228 0)
(21.508 -5.34467e-34 4.66422e-36)
(23.0487 0.287285 -2.1684e-19)
(23.5181 0.0927537 -5.42101e-20)
(23.4132 0.165702 0)
(23.5489 0.0730959 -6.77626e-21)
(23.3789 0.135151 0)
(22.7907 0.447582 1.6263e-19)
(23.3164 0.140475 -5.42101e-20)
(22.9317 0.366047 -5.42101e-20)
(23.2016 0.154584 0)
(23.1371 0.331425 5.42101e-20)
(23.3465 0.0715045 5.42101e-20)
(23.1542 0.147193 0)
(22.9992 0.221871 -1.0842e-19)
(22.6211 0.685831 0)
(23.2302 0.0519092 3.38813e-21)
(22.7682 0.201249 0)
(19.9657 -6.65174e-34 5.80488e-36)
(22.7276 0.221979 -2.71051e-20)
(22.8181 0.225092 0)
(22.9481 0.0229433 6.77626e-21)
(22.5438 0.24356 -2.98156e-19)
(22.9353 0.0861007 2.71051e-20)
(22.5985 0.190589 6.77626e-20)
(22.5031 0.273924 -5.42101e-20)
(22.4627 0.423977 0)
(22.4978 0.175474 0)
(22.6791 0.12703 -2.71051e-20)
(22.5956 0.167998 -2.03288e-20)
(22.3333 0.290039 5.42101e-20)
(22.403 0.185938 -7.45389e-20)
(22.5048 0.0622464 0)
(22.5243 0.046815 -1.18585e-20)
(22.3469 0.148458 0)
(22.0882 0.337502 -1.0842e-19)
(21.9427 0.507384 -2.1684e-19)
(21.5999 0.702305 0)
(21.9093 0.416574 1.0842e-19)
(21.8418 0.460061 0)
(22.4104 0.062152 2.71051e-20)
(22.3237 0.0872889 4.23516e-22)