/*--------------------------------*- C++ -*----------------------------------*\
  =========                 |
  \\      /  F ield         | OpenFOAM: The Open Source CFD Toolbox
   \\    /   O peration     | Website:  https://openfoam.org
    \\  /    A nd           | Version:  7
     \\/     M anipulation  |
\*---------------------------------------------------------------------------*/
FoamFile
{
    version     2.0;
    format      ascii;
    class       labelField;
    location    "0.7/lagrangian/reactingCloud1";
    object      origId;
}
// * * * * * * * * * * * * * * * * * * * * * * * * * * * * * * * * * * * * * //


2438
(
3931
3945
3949
3950
3951
3952
3953
3954
3955
3956
3957
3958
3959
3960
3961
3962
3963
3964
3965
3966
3967
3968
3969
3970
3971
3972
3973
3974
3975
3976
3977
3978
3979
3980
3981
3982
3983
3984
3985
3986
3987
3988
3989
3546
3565
3879
3888
3890
3891
3892
3893
3894
3895
3896
3897
3898
3899
3900
3901
3902
3903
3904
3905
3906
3907
3908
3909
3910
3911
3912
3913
3914
3916
3915
3917
3918
3919
3920
3921
3922
3923
3924
3925
3926
3928
3929
3930
3932
3933
3934
3935
3936
3937
3938
3939
3940
3941
3942
3943
3944
3927
3946
3947
3948
3868
3867
3870
3873
3871
3817
3859
3872
3874
3875
3876
3877
3881
3878
3882
3880
3884
3883
3869
3885
3887
3889
3886
3827
3856
3857
3852
3853
3858
3855
3843
3861
3860
3863
3864
3865
3862
3866
3840
3841
3838
3839
3844
3846
3847
3801
3819
3849
3845
3830
3848
3850
3851
3854
3842
3814
3815
3810
3823
3820
3821
3822
3825
3828
3831
3829
3826
3837
3833
3832
3834
3836
3824
3835
3778
3787
3793
3784
3790
3796
3791
3792
3794
3799
3795
3800
3797
3798
3806
3805
3771
3807
3812
3719
3804
3741
3803
3802
3789
3809
3811
3808
3816
3813
3818
3731
3742
3708
3736
3752
3750
3748
3751
3753
3749
3755
3756
3758
3760
3759
3754
3761
3765
3764
3735
3767
3757
3770
3768
3766
3763
3776
3772
3777
3762
3775
3781
3769
3779
3783
3774
3780
3786
3785
3773
3788
3782
1521
1435
2247
2280
3379
3582
3323
3694
3689
3690
3688
3696
3699
3700
3697
3692
3704
3703
3701
3698
3706
3675
3695
3684
3707
3709
3705
3715
3711
3713
3720
3712
3718
3717
3716
3661
3702
3723
3725
3714
3726
3729
3724
3727
3728
3730
3732
3733
3722
3734
3737
3678
3721
3740
3738
3739
3743
3744
3710
3747
3745
3746
172
859
1066
1187
1607
1675
1863
2193
2077
2422
1076
2454
2736
1382
3152
1816
3366
1440
3611
3604
3613
3623
3619
3618
3622
3626
3627
3602
3617
3612
3621
3606
3631
3586
3635
3633
3630
3600
3636
3614
3616
3629
3628
3562
3640
3454
3639
3642
3637
3638
3644
3643
3646
3648
3645
3625
3650
3652
3649
3656
3655
3634
3653
3658
3657
3632
3647
3654
3663
3615
3664
3651
3662
3671
3668
3674
3641
3660
3680
3679
3683
3682
3677
3665
3659
3681
3670
3687
3676
3686
3669
3666
3667
3673
3672
3691
3685
3693
108
543
586
808
923
1143
1241
545
1266
2210
2161
2296
2461
2485
1659
2647
2669
2869
2871
2897
2051
2998
2990
3066
3166
3195
2282
3265
2580
3457
866
2996
3445
3486
3473
3526
3497
3520
3540
3551
3535
3553
3536
3543
3555
3560
3510
3558
3495
3539
3557
3542
3559
3547
3566
3554
3556
3569
3549
3550
3571
3552
3544
3564
3567
3572
3527
3574
3576
3521
3548
3580
3573
3537
3579
3575
3584
3588
3577
3587
3585
3511
3596
3578
3593
3592
3598
3595
3570
3603
3583
3605
3591
3594
3563
3609
3589
3597
3504
3568
3590
3608
3601
3599
3607
3581
3620
3624
3610
3561
192
325
393
410
475
559
737
810
856
937
1007
1034
1127
1213
1468
1478
1554
1639
1648
1769
1797
1793
1864
1916
1941
2072
2098
2118
2163
2269
2302
2314
2400
2434
2447
2498
2508
295
2574
2577
2597
2660
2665
2729
2741
2762
2809
2857
2872
2909
2719
2994
1778
620
3059
3100
3117
3135
3173
3202
3156
3234
3254
3342
2283
3290
3369
3374
3282
3380
3184
3365
3394
3375
3397
3401
3393
3400
3413
3427
3368
3116
3398
3333
3420
3072
3408
3383
3436
3396
3425
3438
3433
3431
3442
3441
3439
3422
3444
3412
3437
3421
3405
3388
3448
3434
3452
3455
3409
3428
3384
3458
3449
3446
3443
3459
3463
3460
3385
3424
3453
3464
3467
3415
3450
3418
3470
3465
3411
3462
3447
3476
3461
3480
3484
3406
3487
3492
3481
3456
3494
3478
3468
3490
3416
3496
3498
3500
3471
3489
3499
3485
3503
3474
3466
3395
3509
3493
3501
3506
3419
3514
3469
3519
3472
3482
3508
3479
3440
3513
3517
3488
3522
3475
3502
3477
3528
3529
3483
3435
3430
3518
3534
3507
3531
3516
3523
3538
3505
3515
3532
3451
3533
3525
3530
3512
3545
3541
3524
3491
3
5
25
19
34
54
14
33
81
74
115
99
113
137
154
223
267
302
345
362
346
361
396
406
504
533
519
552
589
627
629
180
622
660
644
579
690
722
689
782
785
783
809
831
835
849
814
868
918
954
980
987
974
998
1030
174
198
1092
1089
1115
1128
1176
1199
1222
1216
1219
1221
1246
1242
1305
1325
1276
1347
1335
571
1321
1356
1388
1405
1364
1414
1402
1380
1429
1453
1492
1432
1551
1516
1546
1568
1606
1625
1603
1652
1679
1636
1626
1703
1770
1782
1807
1841
1823
1922
1392
1932
1931
1958
1996
2035
1755
2064
2079
2085
2038
2142
2145
2173
2141
2191
2237
2274
2349
2245
2356
2347
2339
2359
2352
2403
2428
2386
2328
2462
493
2460
2502
2529
2497
2532
2540
2537
2550
2573
2608
2606
118
2693
1167
2738
2773
2786
2326
2862
2817
2810
2860
2892
2890
2936
2935
2986
1362
2999
3002
3016
1811
3055
3062
3084
3105
3123
3140
3125
3141
3149
1945
3151
3180
3192
3236
3178
3245
3285
3281
3247
3235
3251
3280
3258
3243
3219
3246
190
3276
3298
3300
3209
3270
3309
3294
3302
3272
3114
3255
3274
3263
3283
3299
3253
3269
3275
3307
3304
3153
3314
3305
3213
3291
3239
3273
3315
3319
3308
3301
3203
3312
3297
2431
3288
3327
3339
3267
3292
3287
3296
3284
3248
3261
3332
3330
3317
3344
3334
3326
3211
3328
3079
3286
3306
3349
3336
3343
3303
3220
3351
3354
3311
3329
3310
3271
3318
3360
3370
3187
3316
3335
3348
3338
3350
3355
3361
3367
3340
3324
3353
3295
380
3240
3364
3377
3250
2821
3381
3389
3331
3313
3352
3325
3356
3372
3390
3321
3320
3345
3337
3341
3391
3402
3378
3392
3362
3358
3399
3359
3407
3347
3376
3387
3382
3371
3417
3423
3403
3373
3414
3363
3404
3386
3429
3357
3432
3426
3322
3410
3346
6
18
4
10
43
45
73
30
92
135
156
155
228
232
263
266
341
256
332
264
425
462
371
520
497
272
567
468
577
576
610
642
649
675
634
687
706
701
733
85
753
744
818
821
754
801
837
901
905
881
885
839
947
945
896
934
1008
1002
962
1014
1006
1079
164
1121
1082
1120
1152
1158
1081
1198
1184
1205
1210
1200
1214
1249
1273
1295
1178
1287
1329
72
1164
1316
1350
1400
1355
1422
1398
1438
1450
1476
1495
1482
1505
1518
1270
1562
1506
1564
1332
1601
1622
1615
1632
638
1694
1690
1723
1660
1758
1784
1737
1744
1680
1796
1779
1783
1794
1774
1820
1821
1801
1781
1271
1901
1923
1918
1787
1934
749
2000
2040
2068
2074
2093
2060
2062
1747
2133
2134
2099
2091
2138
2147
511
2233
2201
2236
2259
2220
2254
1988
2289
2321
2337
420
2369
982
2391
2435
665
2437
2432
1386
2468
2479
2419
2539
2521
2071
2544
2604
2219
1378
2635
899
2644
2690
2681
2691
2726
2701
705
2730
2168
2787
2772
2785
2799
2856
2792
2874
681
2927
2919
2895
2924
2196
2933
2960
3009
2979
3006
3047
3035
3067
3023
2995
3103
1206
3126
3106
2945
3128
3063
1654
3051
3090
3115
3060
3139
3050
3143
3057
3097
3137
3078
3077
3071
3146
3145
3132
2966
3122
3091
2959
3159
3021
3154
1936
3157
3027
3113
3138
3167
3165
3061
2292
3163
3186
3179
3172
3164
3118
3169
3147
3048
3168
3181
3185
3131
3136
3130
3158
3155
3197
2948
3198
3183
3160
3120
3109
3148
3188
3142
3174
3196
3199
3204
3177
3175
3207
3104
3170
3119
3176
3223
3227
3200
3193
3217
3182
3231
3214
3208
3228
3127
3226
3161
3241
3212
3210
3244
3224
3206
3194
3237
3229
3252
3225
3171
3134
3222
3242
3190
3249
3215
3216
3144
3205
3257
104
3108
3150
3201
3262
3266
26
3218
3259
3191
3277
3230
3264
1799
3162
3268
3256
3189
3221
3121
3232
1572
3260
3233
3293
3278
3289
3279
2884
3238
0
23
2
21
36
38
39
49
82
100
152
167
124
144
96
217
211
226
236
215
150
281
293
318
291
163
388
432
397
419
394
489
442
525
514
531
513
534
529
528
415
592
651
670
692
743
760
750
756
780
825
852
845
829
887
910
928
838
902
976
1026
939
1041
994
968
1071
1057
1064
889
1047
1160
1122
1126
892
175
1253
1281
1192
1263
1317
1391
1351
1168
1441
1396
1463
719
1436
1491
1530
1532
1567
1529
1605
1591
1614
1522
1583
1631
1629
1646
1611
1616
1706
612
1741
1657
1357
1730
1780
1749
303
1815
1882
1842
1907
1857
1963
1974
2002
1979
2012
2005
2016
2036
2008
2052
2043
2014
2013
2101
2102
2032
2135
2149
2080
2164
2171
1813
2165
2272
474
2305
2342
2330
682
2309
2401
1833
2456
2377
2483
2516
2522
2022
2490
2499
2514
2547
2543
2589
2558
2484
2619
897
2631
2581
2596
2625
2624
2639
7
2727
2554
2714
2721
2790
2712
2776
2331
2754
2824
2859
2657
2718
2759
2670
2899
2801
2811
2715
2867
2846
2825
2687
2891
2844
2842
2746
2906
2823
2814
2931
2889
2898
2915
2893
2910
22
2925
2873
2929
2839
2930
2822
2905
2914
2902
2887
2918
2920
2923
2941
2950
2797
2908
2876
2951
2877
2949
2879
2934
2864
2820
2942
2900
2904
2964
2962
2928
2943
2944
2956
2798
2916
2803
2967
2836
2853
2953
2025
2911
2921
2976
2974
2969
2937
2913
2973
2903
2952
2985
2983
2901
2965
2815
2775
2978
2940
2926
2981
1773
2732
3015
2955
2907
2993
2984
2992
3003
2896
2912
2954
2975
3017
9
2980
2989
2968
2932
2988
2947
2938
3029
3014
3004
3012
3000
3036
2922
3018
3031
2886
3013
3034
2946
3019
3030
2800
3033
2961
3024
2958
2832
3038
3043
3008
3053
2837
3022
2970
2939
3020
3056
2991
2982
2963
3026
3058
3046
3041
3064
2957
2997
3045
2971
3032
3040
3028
3052
2987
3080
3037
3083
2793
3087
3073
3044
2977
3092
3082
3007
3081
3088
3085
3098
3096
2883
3069
3093
3075
3039
3054
3068
3112
2972
3074
3011
3110
3005
3049
3094
3107
3099
3086
3095
2769
3101
3010
2845
3111
3129
3042
3089
3025
3070
3102
1672
3076
3133
3124
2863
2881
3065
3001
47
46
77
80
52
76
93
86
35
44
114
119
145
97
159
179
191
142
185
134
67
250
280
285
230
219
289
324
262
241
352
333
146
435
460
430
437
407
409
433
391
160
562
558
560
557
615
140
631
618
709
707
677
698
778
827
844
797
798
826
843
876
875
375
890
893
847
913
948
427
946
957
1040
1039
1020
860
1028
277
1083
1073
1074
1056
1060
1050
1112
1118
1125
1133
1171
1175
1086
1226
1247
1183
1261
1278
1286
1268
1248
1237
1315
1272
1330
1294
1360
1328
1338
1310
1448
1426
1403
1469
1387
1517
1536
1555
1528
1519
1575
1599
1634
1624
1645
621
1594
1576
1662
1543
1650
1669
1644
1637
1685
162
1681
1712
1702
1721
1718
1740
1726
1754
1697
1761
1704
1788
1805
1809
1829
1854
1806
1795
1868
1827
1834
1871
1853
1935
116
1877
1912
1818
1978
2017
2011
1965
1859
2006
1985
2042
1848
2048
1883
2073
748
1990
2100
2054
2151
2157
2148
1987
2154
2034
2177
2131
2235
2203
2183
2221
2278
2291
2228
2216
2166
2313
2179
2189
2323
2285
2345
2086
2325
2198
2340
2322
2261
2304
2182
2028
2265
2294
2343
2286
2243
2217
2185
2266
2300
2332
2311
2389
2318
2319
2378
2380
2257
2382
2395
2398
2095
2375
2205
2279
2392
2024
2299
2346
2362
2348
2081
2417
1
2361
2373
2295
2341
2184
2376
2366
2429
2384
2298
2251
2443
2421
2152
2433
2368
2379
2448
2413
2424
2301
2390
2371
2438
2410
2383
2250
2436
2416
2415
2446
2441
2364
2425
2459
2467
2406
2335
2367
2457
2267
2365
2396
2439
2387
2453
2350
2466
2420
2455
2329
2482
2465
2411
2408
2450
2501
2404
2469
2489
2495
2504
2405
2486
2409
2174
2509
2500
2407
2327
2472
2510
2452
2397
2496
2418
2536
2487
2444
2222
2515
2449
2512
2464
2523
2370
2528
2533
2372
2524
2426
2541
2470
2538
2520
2546
2471
2513
2488
2402
2525
2451
2480
2519
308
2227
208
2548
2030
2445
2334
2553
2473
2388
2555
2549
2463
2505
2526
2587
2506
2491
2594
2518
2494
2517
2572
2582
2542
2427
2561
2588
2507
2590
2355
2481
16
2552
2545
2556
2585
2474
2602
2476
2603
2565
207
2240
2567
2394
2559
2607
2601
2534
2575
2620
1928
2615
2530
2599
2527
2442
2414
2611
2412
1851
2609
2562
2571
2593
2570
2531
2646
2357
2653
2651
2633
2605
2564
2626
2563
2584
2648
2475
2617
2618
2641
2640
2566
2560
2663
2458
2338
2630
2642
2622
2393
872
2652
2568
2629
2578
2673
2628
2632
2612
2649
2688
2621
2645
2616
2671
2592
2676
2668
2374
2662
2478
2674
2104
2708
2614
2535
2699
2627
2503
2634
2643
2695
2680
2664
2686
666
2678
2586
2703
2636
2654
2717
2684
2706
2713
2696
2600
2677
2430
2511
2493
2579
2638
2661
2598
2623
2720
2700
2595
2707
2725
2702
2716
2672
2637
2423
2679
2551
2675
2656
2733
2576
2734
2711
2694
2744
2740
2705
2764
2723
2709
2689
2569
2610
2760
2763
2655
2742
2731
2761
2692
2650
2748
2751
2749
2745
2682
2781
2659
2783
2583
2115
2613
2477
2812
2697
2667
2440
2777
2789
2591
2658
2816
2770
2756
2722
1999
2780
2819
2771
2808
2784
2813
2830
2807
2829
2758
2735
2704
2791
2750
2753
2747
2766
2795
2838
2828
2840
2848
2710
2818
2768
2728
2835
2826
2757
2752
2834
2782
2802
2739
2778
2847
2737
2794
2767
2841
2858
2852
2804
2854
2724
2774
2557
2843
2878
2868
2851
1358
2827
1349
2855
2666
2850
188
2779
2698
2743
2880
2831
2755
2865
2765
2685
2796
2788
2106
2866
2849
2806
2870
2894
2492
2833
2882
2885
2683
2888
1844
2805
2875
2917
2861
)


// ************************************************************************* //
