/*--------------------------------*- C++ -*----------------------------------*\
  =========                 |
  \\      /  F ield         | OpenFOAM: The Open Source CFD Toolbox
   \\    /   O peration     | Website:  https://openfoam.org
    \\  /    A nd           | Version:  7
     \\/     M anipulation  |
\*---------------------------------------------------------------------------*/
FoamFile
{
    version     2.0;
    format      ascii;
    class       Cloud<passiveParticle>;
    location    "0.7/lagrangian/reactingCloud1";
    object      positions;
}
// * * * * * * * * * * * * * * * * * * * * * * * * * * * * * * * * * * * * * //

2438
(
(0.447545 0.18346 0.0934075 0.275587) 2584 313943 1
(0.0529356 0.26963 0.204633 0.472802) 2312 313947 1
(0.00458121 0.491594 0.161368 0.342457) 2828 5681 1
(0.317154 0.2922 0.0456594 0.344986) 2814 5518 2
(0.10871 0.445214 0.117518 0.328558) 2698 5289 1
(0.0762999 0.461064 0.237442 0.225194) 2631 5158 1
(0.476652 0.261593 0.254425 0.00733102) 2539 5107 1
(0.0905001 0.454522 0.430854 0.0241236) 2463 4956 1
(0.100806 0.448397 0.039838 0.410959) 2399 4697 1
(0.345231 0.131265 0.193595 0.329909) 2353 4603 2
(0.181732 0.0969883 0.409377 0.311903) 2245 4391 2
(0.0791094 0.14882 0.311285 0.460786) 2193 4286 2
(0.011823 0.154679 0.337523 0.495975) 2134 4168 2
(0.268514 0.365565 0.253193 0.112729) 1998 3901 1
(0.486816 0.256397 0.111773 0.145014) 1934 3774 1
(0.551513 0.224072 0.157371 0.0670443) 1863 3631 1
(0.0878955 0.455672 0.00178372 0.454649) 1809 3526 1
(0.551669 0.223855 0.0285248 0.195951) 1722 3350 1
(0.316418 0.071305 0.270464 0.341813) 1657 3222 2
(0.320767 0.336595 0.193394 0.149244) 1600 3108 1
(0.526052 0.236691 0.200472 0.0367851) 1431 2907 1
(0.204506 0.0100779 0.398167 0.387249) 1415 2876 2
(0.371608 0.311853 0.171303 0.145235) 1329 2705 1
(0.296764 0.351618 0.281852 0.0697659) 1263 2440 1
(0.567931 0.0445661 0.217626 0.169877) 1209 2467 2
(0.486628 0.18171 0.0749757 0.256686) 1113 2142 2
(0.504238 0.0651688 0.182712 0.247881) 1037 1991 2
(0.174432 0.410976 0.168717 0.245875) 748 1552 1
(0.452805 0.152465 0.119795 0.274935) 962 1841 2
(0.22453 0.103149 0.387735 0.284587) 897 1715 2
(0.490884 0.254389 0.013891 0.240837) 843 1605 1
(0.0816057 0.0371589 0.421739 0.459497) 753 1426 2
(0.223125 0.31535 0.0691459 0.392379) 707 1335 2
(0.00172213 0.496779 0.283149 0.21835) 620 1162 1
(0.0219805 9.30504e-05 0.488916 0.489011) 560 1043 2
(0.0332599 0.177952 0.305418 0.48337) 508 941 2
(0.31761 0.00932555 0.341195 0.331869) 435 798 2
(0.151476 0.106103 0.318159 0.424262) 358 643 2
(0.23539 0.381863 0.0451097 0.337637) 289 505 1
(0.289387 0.333628 0.21678 0.160205) 267 462 1
(0.554068 0.191857 0.0288249 0.22525) 161 251 2
(0.401278 0.122512 0.175828 0.300382) 75 80 2
(0.558904 0.0659094 0.220049 0.155138) 2 315127 2
(0.798611 0.100195 0.0679892 0.0332055) 3332 6547 1
(0.73062 0.134628 0.126346 0.00840522) 3808 7627 1
(0.262572 0.365998 0.0183055 0.353125) 6055 12087 1
(0.128834 0.431853 0.372991 0.066322) 6342 12522 1
(0.834997 0.0822293 0.0228781 0.059896) 6350 12538 1
(0.368889 0.313914 0.200185 0.117011) 5991 11825 1
(0.156926 0.337642 0.081033 0.424398) 5992 11827 2
(0.102443 0.447156 0.0843647 0.366036) 6298 12435 1
(0.464556 0.265183 0.233593 0.0366675) 6074 11990 1
(0.0401599 0.425421 0.477722 0.0566969) 5931 11709 2
(0.266566 0.282934 0.365475 0.0850254) 5789 11427 2
(0.356476 0.128731 0.193424 0.321369) 5584 11018 2
(0.573414 0.211097 0.00904938 0.20644) 5801 11583 1
(0.729027 0.134525 0.0402871 0.0961609) 5730 11442 1
(0.159811 0.130634 0.288273 0.421282) 5656 11160 2
(0.282152 0.351034 0.00943131 0.357383) 5831 11509 2
(0.326724 0.0625603 0.273296 0.33742) 5671 11190 2
(0.321371 0.199711 0.341098 0.137821) 5451 10888 2
(0.407964 0.295142 0.082345 0.214549) 5529 10908 1
(0.128916 0.435452 0.00903695 0.426595) 5458 10767 1
(0.102101 0.449304 0.123781 0.324815) 5106 10069 1
(0.366972 0.31463 0.233562 0.084835) 4902 9663 1
(0.0203104 0.350994 0.48881 0.139885) 5327 10510 2
(0.653907 0.17037 0.171294 0.00442873) 5340 10533 1
(0.80366 0.0973069 0.06043 0.0386035) 5269 10392 1
(0.648398 0.155229 0.177353 0.0190194) 5117 10225 2
(0.555817 0.22239 0.10746 0.114333) 4972 9803 1
(0.353043 0.0313385 0.323852 0.291767) 5057 10106 2
(0.0272735 0.0418185 0.444664 0.486244) 5153 10163 2
(0.0725458 0.464266 0.200465 0.262723) 4842 9545 1
(0.359695 0.27936 0.0325761 0.328369) 5082 10021 2
(0.171702 0.413372 0.329488 0.0854374) 4773 9542 1
(0.177484 0.0303624 0.411177 0.380977) 4859 9581 2
(0.761219 0.0407639 0.12007 0.0779473) 4797 9590 2
(0.260238 0.37026 0.154699 0.214803) 4637 9140 1
(0.671975 0.0294939 0.134571 0.163961) 4647 9158 2
(0.104548 0.405339 0.0429027 0.447211) 4576 9017 2
(0.251308 0.0996507 0.274822 0.374219) 4591 9047 2
(0.0134476 0.278285 0.493061 0.215206) 4517 8902 2
(0.665167 0.0779567 0.167393 0.0894833) 4456 8781 2
(0.142757 0.428467 0.291892 0.136884) 4297 8463 1
(0.404613 0.0151898 0.297931 0.282266) 4251 8506 2
(0.689549 0.0807924 0.15533 0.0743281) 4166 8205 2
(0.0736251 0.0171346 0.463616 0.445624) 4127 8260 2
(0.252785 0.373288 0.349669 0.0242577) 3974 7956 1
(0.552824 0.102746 0.224459 0.119971) 3816 7642 2
(0.128604 0.225009 0.440025 0.206362) 3849 7708 2
(0.00951809 0.490306 0.0461476 0.454028) 3762 7535 1
(0.356618 0.265308 0.324454 0.0536192) 3691 7394 2
(0.00730552 0.489555 0.0548634 0.448276) 3639 7291 1
(0.0766987 0.458275 0.41178 0.0532461) 3543 6965 1
(0.471492 0.0633252 0.200426 0.264756) 3404 6689 2
(0.597071 0.158105 0.20272 0.0421046) 3336 6689 2
(0.197609 0.398822 0.152004 0.251565) 3415 6846 1
(0.562561 0.218697 0.215881 0.00286039) 3268 6554 1
(0.463619 0.265807 0.0369547 0.23362) 3283 6584 1
(0.457205 0.2708 0.123446 0.148549) 3202 6289 1
(0.557123 0.128203 0.222395 0.0922783) 2992 6007 2
(0.275044 0.361384 0.238405 0.125166) 3078 6043 1
(0.67179 0.164088 0.00367131 0.16045) 3002 5892 1
(0.362409 0.02512 0.293327 0.319145) 2955 5798 2
(0.205806 0.397097 0.102404 0.294693) 19106 37728 1
(0.105096 0.104796 0.341768 0.44834) 8372 16552 2
(0.00992694 0.287181 0.207855 0.495037) 19114 37744 2
(0.146053 0.12426 0.428749 0.300938) 8124 16195 2
(0.315948 0.342709 0.189712 0.151631) 8041 15898 1
(0.0427256 0.396809 0.0836549 0.476811) 7823 15463 2
(0.0526129 0.262419 0.212507 0.472461) 7687 15193 2
(0.0747807 0.464361 0.0838055 0.377053) 7836 15491 1
(0.251576 0.28866 0.377648 0.0821152) 7777 15506 2
(0.423568 0.286908 0.128169 0.161355) 7499 14819 1
(0.0999496 0.202302 0.452048 0.2457) 7293 14545 2
(0.735535 0.0330114 0.132068 0.099385) 7296 14419 2
(0.833061 0.0811371 0.00184358 0.0839579) 7258 14476 1
(0.235675 0.00670086 0.375496 0.382129) 7088 14004 2
(0.357546 0.236413 0.0860162 0.320025) 7116 14060 2
(0.687703 0.155599 0.0538593 0.102839) 6955 13739 1
(0.463538 0.0125106 0.255785 0.268166) 6835 13502 2
(0.014636 0.422916 0.497181 0.0652664) 6684 13336 2
(0.598374 0.201085 0.149262 0.0512782) 6597 13031 1
(0.133329 0.433415 0.418321 0.0149357) 6623 13083 1
(0.423303 0.123041 0.290333 0.163323) 6564 13098 2
(0.130801 0.393016 0.0436542 0.432529) 6573 12982 2
(0.294941 0.0304191 0.352369 0.322271) 6552 12942 2
(0.531117 0.233242 0.0964555 0.139186) 33052 66126 1
(0.205033 0.14019 0.251902 0.402875) 33096 65657 2
(0.142275 0.428862 0.0489123 0.37995) 30566 60607 1
(0.168628 0.0030717 0.415686 0.412614) 30829 61134 2
(0.0502616 0.470345 0.407217 0.0721764) 29996 59468 1
(0.456559 0.27172 0.125858 0.145862) 29447 58375 1
(0.133893 0.333389 0.433054 0.0996648) 29152 57786 2
(0.950908 0.00576724 0.0187786 0.0245459) 28590 56662 2
(0.205958 0.397021 0.36276 0.0342611) 27780 55047 1
(0.499858 0.247762 0.184672 0.0677072) 27490 54465 1
(0.718352 0.140824 0.00671218 0.134112) 27227 53941 1
(0.713128 0.142932 0.112696 0.0312435) 25825 51698 1
(0.621276 0.189362 0.129993 0.0593686) 25552 50599 1
(0.531957 0.234022 0.070122 0.1639) 24970 49437 1
(0.333642 0.332244 0.0598557 0.274259) 24150 47797 1
(0.209873 0.393751 0.120688 0.275687) 41434 82303 1
(0.704657 0.0458533 0.10123 0.148259) 41161 81758 2
(0.409984 0.164654 0.295008 0.130354) 40866 81172 2
(0.125382 0.39396 0.0394095 0.441249) 41150 81736 2
(0.032322 0.232949 0.25089 0.483839) 40904 81246 2
(0.241757 0.026899 0.352222 0.379121) 39507 78457 2
(0.263904 0.16418 0.183345 0.388571) 39243 77929 2
(0.117499 0.44117 0.00965857 0.431672) 38630 76705 1
(0.0294758 0.485262 0.439534 0.0457284) 38630 76706 1
(0.257944 0.371028 0.325564 0.045464) 37277 74005 1
(0.351319 0.193763 0.326447 0.128472) 37248 74503 2
(0.404557 0.297721 0.189231 0.108491) 37244 73939 1
(0.168816 0.415592 0.0576645 0.357927) 36702 72857 1
(0.0629078 0.461026 0.421109 0.0549571) 36151 71756 1
(0.562276 0.218862 0.0189953 0.199867) 34470 68401 1
(0.552608 0.223696 0.120269 0.103427) 34207 67876 1
(0.190348 0.142515 0.406342 0.260795) 33620 67260 2
(0.0721769 0.139865 0.465231 0.322727) 52586 105124 2
(0.961817 0.011384 0.0190917 0.00770771) 52587 104572 2
(0.00130193 0.499349 0.462235 0.0371139) 51467 102334 1
(0.303967 0.151959 0.191836 0.352238) 52063 103523 2
(0.26329 0.367585 0.0677119 0.301412) 51480 102359 1
(0.471162 0.262662 0.104475 0.161702) 50920 101798 1
(0.38574 0.182021 0.30713 0.125109) 50077 99561 2
(0.358512 9.25766e-06 0.320734 0.320744) 49246 97899 2
(0.52089 0.237885 0.13438 0.106844) 48981 97927 1
(0.118086 0.433105 0.0248226 0.423986) 47870 95709 1
(0.620849 0.188075 0.114038 0.0770382) 47859 95130 1
(0.0122744 0.474335 0.498703 0.0146876) 46452 92878 2
(0.488336 0.255832 0.00350545 0.252327) 45380 90182 1
(0.276384 0.361808 0.0605934 0.301214) 45059 89541 1
(0.596905 0.120638 0.0809095 0.201547) 45060 89543 2
(0.322168 0.0130179 0.338916 0.325898) 45063 89551 2
(0.532659 0.23367 0.193921 0.0397497) 44513 88451 1
(0.38219 0.268499 0.0380509 0.31126) 43933 87292 2
(0.0289457 0.413761 0.490229 0.0670641) 43667 87318 2
(0.583317 0.208342 0.203891 0.00445023) 62341 124043 1
(0.254936 0.21061 0.161922 0.372532) 62072 123506 2
(0.274906 0.362468 0.362547 7.91559e-05) 62093 123550 2
(0.288814 0.355593 0.167943 0.18765) 60950 121266 1
(0.708867 0.01181 0.145678 0.133645) 61514 122948 2
(0.136383 0.35374 0.431809 0.0780687) 61844 123053 2
(0.325893 0.297945 0.337053 0.0391086) 61520 122406 2
(0.696119 0.0746393 0.0773013 0.151941) 61244 121853 2
(0.484265 0.0883029 0.257868 0.169565) 60960 121288 2
(0.424086 0.284727 0.0780315 0.213155) 60140 120205 1
(0.374699 0.251682 0.312651 0.0609683) 60122 119615 2
(0.582418 0.208791 0.114374 0.0944172) 60147 119663 1
(0.237579 0.377426 0.340594 0.0444012) 60128 119624 1
(0.455621 0.268938 0.266638 0.00880295) 59574 118518 1
(0.141398 0.365925 0.43561 0.0570667) 57911 115755 2
(0.312772 0.183206 0.343614 0.160408) 57619 114618 2
(0.383526 0.109121 0.309162 0.198192) 56765 113467 2
(0.0908969 0.173391 0.454552 0.28116) 56782 112947 2
(0.104598 0.338598 0.447701 0.109103) 56536 112456 2
(0.0309121 0.484544 0.425802 0.0587416) 55931 111246 1
(0.258702 0.370649 0.327975 0.0426743) 55932 111250 1
(0.274001 0.170901 0.192098 0.362999) 55644 110673 2
(0.00317755 0.042857 0.455157 0.498808) 55933 111249 2
(0.599229 0.0185645 0.181821 0.200385) 55653 110691 2
(0.246681 0.373372 0.0315473 0.348399) 55656 111253 1
(0.258843 0.370578 0.186081 0.184498) 55379 110144 1
(0.599964 0.200018 0.0191061 0.180912) 55387 110160 1
(0.125442 0.435673 0.25905 0.179834) 54537 109019 1
(0.235576 0.162868 0.382212 0.219344) 54566 108523 2
(0.0693501 0.465325 0.0873492 0.377976) 53988 107369 1
(0.207905 0.200221 0.195826 0.396048) 53445 106283 2
(0.784543 0.072515 0.107728 0.0352133) 72670 144666 2
(0.351238 0.321745 0.121433 0.205583) 72689 145258 1
(0.43934 0.277992 0.266571 0.0160972) 71834 142994 1
(0.0205705 0.409163 0.0805522 0.489715) 72692 144708 2
(0.524586 0.237707 0.0237227 0.213984) 72429 144183 1
(0.297055 0.351472 0.243692 0.10778) 72127 143580 1
(0.339777 0.290015 0.0400964 0.330111) 71555 142438 2
(0.342417 0.328791 0.0688832 0.259908) 71846 143019 1
(0.167267 0.411999 0.279518 0.141216) 72138 143601 1
(0.0449967 0.0423919 0.434659 0.477953) 71564 142455 2
(0.227477 0.382367 0.0942074 0.295948) 71295 142475 1
(0.394201 0.3029 0.114441 0.188459) 71298 141927 1
(0.520649 0.200916 0.239676 0.0387599) 71027 141386 2
(0.23815 0.208137 0.401739 0.151974) 70769 141425 2
(0.22313 0.388435 0.32183 0.0666048) 70747 140825 1
(0.0431978 0.220927 0.478401 0.257474) 70761 140855 2
(0.170648 0.411933 0.187025 0.230394) 69617 139125 1
(0.391318 0.304341 0.271993 0.0323486) 69633 138601 1
(0.397153 0.104468 0.195215 0.303165) 69628 138590 2
(0.287949 0.0511905 0.356025 0.304835) 68192 135726 2
(0.267777 0.366111 0.353287 0.012824) 68785 136908 1
(0.15456 0.172464 0.42272 0.250256) 68491 136323 2
(0.58928 0.201676 0.0837808 0.125263) 68526 136947 1
(0.0156482 0.267905 0.224271 0.492176) 68217 135774 2
(0.0576685 0.187921 0.283244 0.471166) 67089 133522 2
(0.562768 0.0613149 0.219127 0.15679) 66808 133517 2
(0.70687 0.013798 0.132192 0.14714) 67414 134170 2
(0.486551 0.256074 0.202731 0.0546444) 67106 134112 1
(0.852376 0.0738122 0.0721477 0.00166445) 67140 133626 1
(0.230602 0.38291 0.218268 0.168221) 66543 132988 1
(0.774708 0.0553242 0.0566931 0.113275) 66545 132435 2
(0.0680503 0.252675 0.465975 0.2133) 65722 130795 2
(0.290307 0.354847 0.290549 0.0642978) 65137 129627 1
(0.00159275 0.385602 0.113601 0.499204) 65427 130204 2
(0.0225173 0.328844 0.488741 0.159897) 65166 129685 2
(0.227213 0.386393 0.28121 0.105183) 64864 129082 1
(0.286259 0.356376 0.052435 0.30493) 64863 129077 1
(0.333139 0.297971 0.0142929 0.354597) 64632 129173 1
(0.897871 0.0509664 0.00822201 0.0429401) 64595 128542 1
(0.408816 0.194449 0.29736 0.0993751) 63465 126843 2
(0.466186 0.266907 0.0129402 0.253967) 63488 126333 1
(0.428715 0.285642 0.0656092 0.220033) 62916 125191 1
(0 9.29053e-154 0.73029 0.26971) 81934 397127 2
(0 2.69521e-36 0.896072 0.103928) 76912 392105 2
(0 2.78728e-51 0.225794 0.774206) 80260 395453 2
(0 0.266665 0.733335 6.58585e-155) 78586 551171 1
(0 0 0.826083 0.173917) 78865 394058 2
(0 4.50046e-101 0.912833 0.0871673) 82492 397685 2
(0 2.00838e-154 0.921257 0.0787427) 72727 387920 2
(0.278747 0.360627 0.0892985 0.271328) 82479 164247 1
(0.0911065 0.411604 0.0382689 0.45902) 82447 164182 2
(0.00497836 0.497511 0.0270297 0.470481) 81599 162490 1
(0.326696 0.336652 0.0194664 0.317185) 81889 163069 1
(0.275093 0.0858156 0.362454 0.276638) 82187 163666 2
(0.354668 0.140952 0.322666 0.181715) 81925 163143 2
(0.705704 0.147148 0.0089749 0.138173) 81641 162574 1
(0.308143 0.129328 0.345928 0.2166) 81914 163121 2
(0.0343297 0.289968 0.190451 0.485252) 81037 161367 2
(0.0996151 0.234384 0.215808 0.450192) 81080 161454 2
(0.4966 0.2517 0.244511 0.00718909) 81077 161450 1
(0.171263 0.102686 0.311683 0.414368) 81068 161430 2
(0.287719 0.353203 0.0711875 0.287891) 80212 160277 1
(0.113641 0.438943 0.116945 0.330471) 80222 160297 1
(0.555232 0.222384 0.209589 0.012795) 79074 157451 1
(0.864574 0.00047288 0.0672401 0.067713) 79967 159232 2
(0.419921 0.202833 0.0827967 0.294449) 80516 160327 2
(0.0594122 0.470294 0.308029 0.162264) 79940 159180 1
(0.0311384 0.313075 0.165335 0.490451) 80234 159764 2
(0.480678 0.25929 0.21409 0.0459417) 78525 156909 1
(0.162313 0.0604759 0.420283 0.356928) 79123 158103 2
(0.466726 0.159677 0.266637 0.106959) 78820 156944 2
(0.0789852 0.43298 0.0275272 0.460507) 78541 156385 2
(0.471757 0.212421 0.0441144 0.271708) 78572 156446 2
(0.207814 0.396093 0.281671 0.114422) 78551 156405 1
(0.773292 0.113354 0.0540266 0.0593273) 78556 156415 1
(0.359734 0.156302 0.162168 0.321796) 78260 155823 2
(0.494926 0.250704 0.157641 0.096729) 78265 155833 1
(0.430537 0.113498 0.285647 0.170319) 77408 154679 2
(0.879395 0.037498 0.0228046 0.0603026) 76556 152422 2
(0.429913 0.048977 0.285043 0.236066) 77432 154173 2
(0.0512588 0.474036 0.451976 0.0227287) 77158 154180 1
(0.450401 0.272124 0.262199 0.015276) 76864 153036 1
(0.292252 0.239447 0.111824 0.356476) 76866 153040 2
(0.202921 0.327309 0.403995 0.0657755) 76603 153072 2
(0.294933 0.351249 0.227978 0.12584) 76306 152479 1
(0.90193 0.00439305 0.0490798 0.0445971) 76305 152477 2
(0.137791 0.427791 0.26512 0.169298) 76594 152497 1
(0.158796 0.420602 0.386375 0.0342267) 76318 151949 1
(0.0117942 0.242349 0.498431 0.247426) 76047 151962 2
(0.0953496 0.44654 0.00687529 0.451235) 75758 151385 1
(0.414008 0.292974 0.290285 0.00273218) 75455 150780 1
(0.18537 0.329393 0.0779214 0.407315) 75476 150266 2
(0.325648 0.336396 0.0405366 0.297419) 75492 150297 1
(0.352465 0.322378 0.163932 0.161225) 74902 149676 1
(0.0421224 0.348923 0.127961 0.480994) 74874 149063 2
(0.304362 0.343944 0.216997 0.134697) 74932 149179 1
(0.204357 0.262512 0.401467 0.131664) 74644 149161 2
(0.511988 0.0531778 0.245114 0.18972) 74656 149185 2
(0.689313 0.0316003 0.123743 0.155343) 74380 148078 2
(0.0104564 0.494772 0.244457 0.250315) 73519 146361 1
(0.241447 0.376282 0.359306 0.0229642) 73505 146330 1
(0.0290173 0.485491 0.359007 0.126484) 73256 145836 1
(0.305874 0.241122 0.349867 0.103137) 72963 145805 2
(0.498203 0.250898 0.158731 0.0921674) 72961 145245 1
(0 5.75385e-155 0.557714 0.442286) 89746 404939 2
(0 0.00619529 0.993805 1.03618e-40) 88351 560936 1
(0 0.037699 0.962301 4.37088e-128) 91141 563726 1
(0.51293 0.223511 0.131779 0.131779) 88909 177640 1
(0 1.83807e-92 0.440403 0.559597) 88909 404102 2
(0 0.858535 0.141465 5.40031e-52) 90583 563168 1
(0 0.754224 0.245776 5.56777e-63) 88072 560657 1
(0 1.43014e-154 0.157058 0.842942) 91978 407171 2
(0 0.589873 0.410127 2.54401e-116) 85561 558146 1
(0 4.74625e-99 0.231717 0.768283) 89746 404939 2
(0 0.0946607 0.905339 1.25468e-154) 85003 557588 1
(0 1.36945e-101 0.367468 0.632532) 85003 400196 2
(0 0.573879 0.426121 6.76117e-154) 84445 557030 1
(0 0.008714 0.991286 5.90682e-134) 84166 556751 1
(0 0.667891 0.332109 3.8152e-28) 85282 557867 1
(0 0.444428 0.555572 3.17039e-154) 83608 556193 1
(0 1.06939e-154 0.374657 0.625343) 91699 406892 2
(0 0.444247 0.555753 2.63107e-96) 83050 555635 1
(0.780624 0.109111 0.0491453 0.0611191) 92205 184220 1
(0.00208482 0.363208 0.498958 0.135749) 92198 183652 2
(0.0335389 0.479594 0.0795723 0.407295) 91644 183100 1
(0.0597868 0.16882 0.472451 0.298942) 91942 183695 2
(0.208642 0.393692 0.230715 0.166952) 91658 183128 1
(0.102077 0.414298 0.448961 0.0346633) 91657 182572 2
(0.32933 0.335335 0.0869613 0.248374) 91659 182576 1
(0.292628 0.164518 0.189168 0.353686) 91941 183137 2
(0.199568 0.400216 0.133175 0.267041) 91954 183165 1
(0.051638 0.472057 0.0987356 0.377569) 89658 179135 1
(0.381184 0.309408 0.302145 0.00726333) 90808 180875 1
(0.144034 0.427983 0.418917 0.00906635) 90246 179755 1
(0.309908 0.344563 0.0521716 0.293358) 90530 180319 1
(0.225409 0.384755 0.30488 0.0849563) 90245 179750 1
(0.110431 0.329321 0.451645 0.108602) 91117 182048 2
(0.341336 0.32731 0.169573 0.161781) 90544 180904 1
(0.634902 0.0377565 0.144792 0.182549) 91121 181500 2
(0.399976 0.299813 0.283532 0.0166786) 90542 180900 1
(0.445428 0.245556 0.277286 0.0317297) 90544 180350 2
(0.0849205 0.135143 0.459272 0.320664) 90265 180347 2
(0.605065 0.197467 0.0458928 0.151575) 90845 180951 1
(0.187118 0.0951938 0.311247 0.406441) 89685 178633 2
(0.181683 0.318957 0.0902013 0.409159) 89978 179218 2
(0.421302 0.28591 0.0108488 0.281938) 90264 180345 1
(0.142259 0.428871 0.267663 0.161207) 89696 178657 1
(0.683594 0.15763 0.0283344 0.130441) 87959 175743 1
(0.293992 0.35146 0.1019 0.252648) 89993 179247 1
(0 3.13394e-147 0.406292 0.593708) 82771 397964 2
(0.0628918 0.400325 0.0630967 0.473686) 89707 178676 2
(0.215384 0.00648159 0.385577 0.392557) 90012 179285 2
(0.802054 0.0982736 0.0713308 0.0283414) 89138 177540 1
(0.339561 0.329514 0.266018 0.0649073) 89143 178107 1
(0.298795 0.350602 0.062131 0.288471) 89438 178140 1
(0.695972 0.134308 0.0177059 0.152014) 88854 176974 2
(0.660723 0.165153 0.152517 0.0216069) 89451 178165 1
(0.430994 0.207316 0.0734845 0.288205) 89160 177584 2
(0.222005 0.00555763 0.383367 0.389071) 88871 177007 2
(0.223072 0.197191 0.191273 0.388464) 88588 176443 2
(0.0891554 0.446241 0.367271 0.0973334) 88890 177045 1
(0.84453 0.0129566 0.0777349 0.0647784) 88624 176517 2
(0.187436 0.406282 0.251919 0.154363) 88034 175337 1
(0.0203251 0.489837 0.13277 0.357067) 87773 174816 1
(0.574625 0.186772 0.216423 0.0221803) 87768 175362 2
(0.428486 0.28355 0.0452301 0.242734) 86902 173633 1
(0.0579447 0.460643 0.471028 0.0103844) 87186 173646 2
(0.254769 0.372615 0.301663 0.0709526) 87202 173678 1
(0.448169 0.222269 0.275915 0.0536459) 86911 173097 2
(0.0552695 0.471912 0.42294 0.049879) 86344 172519 1
(0.0728046 0.0143202 0.449278 0.463598) 86340 171955 2
(0.298213 0.350894 0.181599 0.169295) 86350 171977 1
(0.505517 0.167456 0.247241 0.0797857) 86645 172566 2
(0.35702 0.320796 0.142818 0.179366) 85459 170195 1
(0.566689 0.216656 0.172911 0.0437447) 86083 171442 1
(0.39865 0.300564 0.0104468 0.290339) 86073 171421 1
(0.100368 0.199949 0.449816 0.249867) 86083 171444 2
(0.27368 0.334149 0.0220498 0.370121) 85537 170351 2
(0.162544 0.413709 0.0523506 0.371396) 85246 170327 1
(0.389631 0.0876366 0.215643 0.30709) 85259 169796 2
(0.241777 0.379111 0.0384652 0.340646) 84366 168016 1
(0.892174 0.0448856 0.00860403 0.0543365) 84392 168065 2
(0.240297 0.095593 0.284259 0.379852) 84417 168116 2
(0.638004 0.180998 0.127745 0.053253) 84135 167555 1
(0.191323 0.1317 0.266053 0.410924) 84156 167594 2
(0.0183865 0.106006 0.492927 0.38268) 83862 167564 2
(0.032612 0.483694 0.351405 0.132289) 83846 166976 1
(0.206345 0.33496 0.399619 0.0590756) 83548 166937 2
(0.202962 0.396197 0.150064 0.250778) 83555 166951 1
(0.0278691 0.486065 0.0306313 0.455434) 83574 166433 1
(0.0685861 0.465707 0.147877 0.31783) 83271 165830 1
(0.505201 0.247399 0.0322068 0.215193) 83303 165894 1
(0.136446 0.155504 0.276273 0.431777) 83290 165866 2
(0.522527 0.238524 0.0119257 0.227024) 83302 165889 1
(0.101601 0.159355 0.450732 0.288312) 82998 165839 2
(0.503259 0.147105 0.101266 0.24837) 82996 165279 2
(0.5881 0.0385949 0.20595 0.167355) 82996 165281 2
(0.455166 0.0404861 0.272417 0.231931) 83000 165289 2
(0.177545 0.411227 0.0397776 0.37145) 82718 164724 1
(0.186198 0.108317 0.409157 0.296327) 82747 165338 2
(0.604616 0.173771 0.199667 0.0219467) 82727 165298 2
(0.117377 0.0629849 0.441311 0.378327) 82752 164794 2
(0 0.0655922 0.934408 4.99398e-154) 100627 573212 1
(0 3.34917e-154 0.343308 0.656692) 100348 415541 2
(0 2.45299e-154 0.970028 0.0299719) 99511 414704 2
(0 0.996502 0.00349825 6.08116e-156) 100348 572933 1
(0 4.91388e-78 0.402043 0.597957) 98116 413309 2
(0 2.0583e-103 0.224384 0.775616) 101743 416936 2
(0 5.41866e-149 0.11209 0.88791) 99232 414425 2
(0 0.64839 0.35161 4.83393e-154) 97000 569585 1
(0 3.39185e-63 0.805095 0.194905) 100906 416099 2
(0 0.816798 0.183202 2.33023e-51) 100627 573212 1
(0 0.119579 0.880421 4.99295e-51) 101185 573770 1
(0 0.804601 0.195399 7.12593e-157) 102022 574607 1
(0 0.969078 0.0309219 3.71235e-156) 101464 574049 1
(0 0.485887 0.514113 3.53022e-51) 94768 567353 1
(0 6.59628e-154 0.123202 0.876798) 94489 409682 2
(0 0.196102 0.803898 2.55903e-112) 98674 571259 1
(0 0.85834 0.14166 8.87244e-155) 96442 569027 1
(0 0.10772 0.89228 9.79946e-152) 94768 567353 1
(0 9.71775e-155 0.194637 0.805363) 98674 413867 2
(0 4.12976e-77 0.362131 0.637869) 100906 416099 2
(0 2.91554e-154 0.314718 0.685282) 93931 409124 2
(0 5.58006e-145 0.862826 0.137174) 101185 416378 2
(0 1.24033e-72 0.605387 0.394613) 96442 411635 2
(0 0.0223582 0.977642 0) 94768 567353 1
(0 7.47509e-143 0.977643 0.0223575) 97000 412193 2
(0 0.863333 0.136667 1.73757e-153) 95326 567911 1
(0 0.710483 0.289517 9.10006e-37) 93373 565958 1
(0 0 0.48831 0.51169) 94489 409682 2
(0 6.39577e-106 0.451922 0.548078) 93094 408287 2
(0 0.774097 0.225903 0) 94210 566795 1
(0 0.559279 0.440721 8.14008e-154) 92815 565400 1
(0 1.00147e-31 0.1963 0.8037) 92815 408008 2
(0.0245738 0.487604 0.462752 0.0250707) 101908 203591 1
(0.445096 0.276485 0.202885 0.0755337) 101918 203054 1
(0.0727393 0.060144 0.40317 0.463947) 102206 203629 2
(0.0630641 0.468468 0.359249 0.109219) 101672 202566 1
(0.446807 0.0412365 0.276597 0.23536) 101963 203147 2
(0.143109 0.244731 0.183714 0.428445) 101684 202588 2
(0.391525 0.302018 0.106739 0.199717) 101699 203174 1
(0.0132639 0.493368 0.284641 0.208727) 101999 203217 1
(0.0896344 0.452558 0.189009 0.268799) 101708 202635 1
(0.123542 0.43667 0.438229 0.00155912) 101715 202652 2
(0.0895059 0.455247 0.245055 0.210192) 100278 199783 1
(0.271331 0.239365 0.124969 0.364334) 101728 202676 2
(0.101769 0.0647307 0.449115 0.384385) 101720 202662 2
(0.248422 0.37444 0.0350616 0.342076) 101731 202681 1
(0.0474527 0.476274 0.233753 0.24252) 100871 200967 1
(0.366937 0.293068 0.187709 0.152286) 101740 202699 1
(0.555972 0.158387 0.222014 0.0636268) 99129 197489 2
(0.556423 0.0504121 0.170901 0.222264) 100574 200371 2
(0.506543 0.105545 0.248378 0.139534) 100874 201527 2
(0.906728 0.0458487 0.046636 0.000787319) 100867 200959 2
(0.739061 0.110069 0.0203999 0.130469) 100299 199823 2
(0.780229 0.104805 0.00508034 0.109886) 99732 198691 2
(0.0934102 8.7038e-05 0.453297 0.453205) 100609 200998 2
(0.0118659 0.16223 0.331837 0.494067) 99456 198140 2
(0.391751 0.226719 0.307667 0.0738633) 99758 199299 2
(0.810313 0.0948435 0.0438519 0.0509916) 100045 199318 1
(0.892242 0.0538792 0.0340541 0.0198251) 99474 198178 1
(0.394855 0.300607 0.192641 0.111897) 99184 197596 1
(0.588017 0.205992 0.03837 0.167622) 99779 198785 1
(0.133868 0.43094 0.303344 0.131849) 99481 198746 1
(0.858064 0.0317797 0.0391881 0.0709678) 98605 196441 2
(0.224868 0.292336 0.387566 0.09523) 99482 198194 2
(0.49807 0.249264 0.119975 0.132691) 98915 197616 1
(0.179716 0.0344408 0.375146 0.410697) 99201 197630 2
(0.296994 0.0226484 0.328727 0.351631) 97748 194729 2
(0.362002 0.318999 0.268718 0.050281) 98919 197070 1
(0.208287 0.3367 0.0591567 0.395857) 99213 197655 2
(0.0195567 0.480293 0.00564015 0.49451) 98339 195909 2
(0.429327 0.285336 0.0573996 0.227937) 97772 194778 1
(0.407411 0.296093 0.0108644 0.285631) 98648 196526 1
(0.0099898 0.492033 0.225863 0.272114) 98358 195947 1
(0.310266 0.251888 0.092979 0.344867) 97485 194205 2
(0.307036 0.145425 0.201057 0.346482) 98084 195401 2
(0.0288731 0.0578238 0.427034 0.486269) 97238 193711 2
(0.140075 0.394563 0.429963 0.0353993) 97246 193730 2
(0.150273 0.420449 0.226194 0.203084) 97257 194306 1
(0.180938 0.27405 0.409531 0.135481) 97242 193722 2
(0.618726 0.0568101 0.191872 0.132592) 97256 194304 2
(0.702917 0.0332946 0.115247 0.148542) 96691 192620 2
(0.369265 0.192111 0.315367 0.123256) 96397 192035 2
(0.521863 0.236879 0.00218957 0.239068) 96423 192085 2
(0.0368939 0.112314 0.368218 0.482574) 95829 190898 2
(0.0815727 0.456788 0.28215 0.179489) 95848 191493 1
(0.180399 0.409801 0.296396 0.113405) 95850 190943 1
(0.200643 0.393276 0.384167 0.0219143) 95855 190950 1
(0.745724 0.127037 0.00946929 0.11777) 95559 190359 1
(0.266446 0.366777 0.359012 0.00776459) 95267 189777 1
(0.255085 0.284021 0.083177 0.377717) 95299 189840 2
(0.231924 0.346712 0.037326 0.384038) 95009 189262 2
(0.174134 0.412933 0.261866 0.151067) 95023 189290 1
(0.0609681 0.466644 0.00287167 0.469516) 94735 188715 2
(0.178414 0.263631 0.41328 0.144674) 94436 188674 2
(0.820705 0.0896475 0.0498451 0.0398023) 94449 188146 1
(0.139228 0.21829 0.435843 0.206639) 94469 188740 2
(0.572471 0.120209 0.21475 0.09257) 93870 187544 2
(0.651449 0.173852 0.00338484 0.171314) 94207 187660 1
(0.372643 0.313679 0.124487 0.189192) 93561 186373 1
(0.0846144 0.457693 0.45035 0.00734255) 93592 186435 1
(0.795453 0.101937 0.0636462 0.038963) 93595 186995 1
(0.12309 0.164073 0.271818 0.441019) 93899 187045 2
(0.350035 0.294497 0.0304859 0.324983) 93615 186479 2
(0.0298364 0.132071 0.35088 0.487212) 93621 186490 2
(0.311954 0.263161 0.344023 0.0808617) 93321 185894 2
(0.338983 0.0335182 0.330508 0.29699) 93319 185890 2
(0.243972 0.102055 0.380055 0.273918) 92790 185388 2
(0.306098 0.286825 0.166574 0.240503) 92535 184879 1
(0.226232 0.386884 0.0676361 0.319248) 92523 184299 1
(0.725606 0.040209 0.0967565 0.137428) 92449 184150 2
(0 2.85844e-114 0.498996 0.501004) 106765 421958 2
(0 0.744903 0.255097 1.20568e-153) 111229 583814 1
(0 0.70133 0.29867 4.99225e-154) 111787 584372 1
(0 1.00397e-120 0.0363393 0.963661) 108718 423911 2
(0 5.93003e-96 0.653923 0.346077) 110671 425864 2
(0 0.549169 0.450831 1.54412e-153) 110113 582698 1
(0 0.410588 0.589412 3.31465e-23) 111787 584372 1
(0 5.63131e-74 0.309404 0.690596) 108718 423911 2
(0 0.915799 0.0842012 4.30647e-154) 111508 584093 1
(0 6.82042e-153 0.221765 0.778235) 110113 425306 2
(0 3.28442e-153 0.885594 0.114406) 111787 426980 2
(0 5.10672e-25 0.938759 0.0612408) 105649 420842 2
(0 0.143206 0.856794 1.20576e-60) 105370 577955 1
(0 4.90154e-20 0.184001 0.815999) 108997 424190 2
(0 3.57e-74 0.322705 0.677295) 105649 420842 2
(0 0.319441 0.680559 1.66401e-96) 110671 583256 1
(0 0.298997 0.701003 1.26287e-41) 107323 579908 1
(0 0.0803265 0.919673 3.57729e-36) 106765 579350 1
(0 0.619033 0.380967 9.19469e-153) 111508 584093 1
(0 3.43706e-127 0.00185755 0.998142) 107881 423074 2
(0 0.131261 0.868739 1.83308e-61) 106486 579071 1
(0 1.12646e-152 0.0425539 0.957446) 111229 426422 2
(0 3.69365e-107 0.339803 0.660197) 111229 426422 2
(0 1.74298e-153 0.167219 0.832781) 111508 426701 2
(0 0.0247781 0.975222 1.68312e-131) 110113 582698 1
(0 0.385973 0.614027 5.7702e-74) 105370 577955 1
(0 0.289995 0.710005 1.0188e-152) 111508 584093 1
(0 0.56043 0.43957 3.32896e-19) 111229 583814 1
(0 0.443783 0.556217 2.67695e-154) 104812 577397 1
(0 0.602429 0.397571 3.82576e-153) 105370 577955 1
(0 0.15001 0.84999 9.93344e-38) 105091 577676 1
(0 0.331796 0.668204 3.93977e-153) 110671 583256 1
(0 3.13203e-30 0.278154 0.721846) 110950 426143 2
(0 5.73343e-153 0.152835 0.847165) 110950 426143 2
(0 0.747141 0.252859 4.66405e-115) 110392 582977 1
(0 2.21549e-82 0.525964 0.474036) 111229 426422 2
(0 0.224952 0.775048 1.91275e-73) 109276 581861 1
(0 1.04677e-92 0.48881 0.51119) 103417 418610 2
(0 9.43957e-77 0.92751 0.0724898) 109555 424748 2
(0 1.64728e-111 0.74253 0.25747) 106207 421400 2