/*--------------------------------*- C++ -*----------------------------------*\
  =========                 |
  \\      /  F ield         | OpenFOAM: The Open Source CFD Toolbox
   \\    /   O peration     | Website:  https://openfoam.org
    \\  /    A nd           | Version:  7
     \\/     M anipulation  |
\*---------------------------------------------------------------------------*/
FoamFile
{
    version     2.0;
    format      ascii;
    class       scalarField;
    location    "0.7/lagrangian/reactingCloud1";
    object      pressure;
}
// * * * * * * * * * * * * * * * * * * * * * * * * * * * * * * * * * * * * * //


2438
(
587.215
581.662
591.362
591.397
590.353
589.87
588.449
586.942
586.666
587.792
581.018
584.505
585.339
584.594
584.695
584.13
584.911
583.191
583.359
584.001
581.093
584.148
583.523
583.501
583.732
582.88
582.593
582.569
582.439
582.57
582.914
582.579
582.916
582.712
582.811
582.977
582.939
582.9
582.916
583.032
582.963
582.965
582.975
601.702
601.82
598.981
590.656
589.212
599.24
598.99
588.331
594.779
598.251
601.415
603.221
598.559
599.863
601.81
594.516
598.716
603.304
600.829
601.819
605.294
605.025
601.48
599.516
600.169
603.033
604.792
601.753
598.719
603.409
599.054
603.414
601.032
600.368
603.017
601.835
602.062
600.426
600.952
600.13
602.071
599.788
601.363
598.457
599.45
601.714
597.888
599.584
599.704
597.392
601.287
601.451
601.176
598.768
600.757
596.865
599.301
597.905
594.866
595.109
592.63
501.007
501.491
504.906
524.86
526.856
541.034
548.543
538.221
541.185
554.342
563.148
562.598
562.246
570.829
567.188
574.72
576.398
582.376
587.948
582.937
583.332
582.387
585.079
308.263
369.633
389.014
384.278
392.441
398.817
398.147
393.888
415.459
416.893
421.289
434.32
437.865
439.852
451.586
336.063
336.422
306.825
334.888
336.535
339.05
339.642
219.292
219.292
345.674
345.245
344.009
347.695
350.312
359.085
361.607
363.223
288.471
302.909
244.03
331.577
331.503
331.357
322.049
331.889
332.309
332.541
332.577
331.211
333.129
332.968
333.179
333.413
333.636
254.466
334.114
117.638
244.726
328.475
171.173
246.989
328.559
314.916
326.156
298.723
329.001
291.279
329.013
327.063
328.891
329.71
329.343
179.087
329.693
330.188
226.776
241.928
101.506
256.969
243.058
287.612
313.389
330.249
247.692
330.831
329.581
331.177
170.535
322.869
181.586
325.959
327.117
306.94
182.254
292.47
326.949
266.783
325.499
326.715
327.204
327.244
327.22
327.244
320.985
327.332
327.282
37.3874
326.9
241.396
327.446
293.244
171.802
150.417
327.569
324.703
327.602
301.629
316.573
327.775
187.119
306.891
327.872
256.804
245.364
327.971
326.537
215.207
328.16
316.758
326.696
326.865
326.74
326.796
326.786
326.683
327.1
326.671
232.104
160.27
234.584
325.62
326.693
326.691
326.585
133.834
326.69
326.639
324.604
220.383
292.69
63.6807
326.743
326.548
272.895
326.247
129.094
326.725
248.705
250.029
326.793
317.739
325.613
235.906
274.482
122.266
21.0482
307.68
324.512
233.971
250.069
326.296
236.325
228.155
305.545
320.695
326.684
314.993
123.403
297.318
326.876
166.025
5.67172
326.862
323.584
326.95
326.986
274.99
151.14
326.939
294.982
277.875
326.573
326.59
326.554
326.583
326.583
326.562
326.594
326.54
326.628
326.573
326.637
326.637
326.646
326.65
326.632
326.66
326.545
326.671
159.941
123.74
145.855
244.231
218.783
213.51
224.075
238.891
307.178
14.4107
153.077
133.082
159.013
127.744
310.939
233.909
322.074
223.009
233.909
235.06
325.095
117.945
192.498
229.559
177.131
2.46286
275.511
326.677
237.393
326.283
178.628
206.118
295.083
151.988
325.959
301.79
246.712
225.003
325.234
326.573
250.546
325.371
319.508
161.628
189.698
284.512
213.958
162.827
139.544
198.12
293.441
3.19062
272.421
211.036
272.421
324.586
276.992
325.355
25.7826
173.367
320.958
312.021
326.642
325.179
252.197
131.078
175.495
299.029
144.148
324.977
268.442
324.216
183.472
170.455
170.455
196.558
177.69
326.028
237.623
326.566
325.695
325.779
325.985
325.779
326.213
325.252
326.04
326.33
325.602
325.695
325.498
325.098
325.382
326.464
326.475
326.135
326.374
326.464
326.135
325.602
326.494
325.498
326.374
326.464
326.33
326.439
326.51
326.475
326.517
326.485
326.523
326.523
9.56632
14.692
22.1477
61.9685
99.3067
99.9353
162.707
259.326
204.338
237.332
64.9262
298.379
261.076
310.456
208.798
324.79
12.5947
127.228
222.997
189.95
146.09
108.464
291.097
122.169
228.813
265.714
206.331
155.33
320.099
239.814
68.605
244.619
204.213
236.422
23.5902
223.386
294.056
121.203
83.8557
263.446
211.605
56.1267
237.055
197.216
236.118
290.186
216.626
285.346
253.516
181.137
307.931
133.991
227.571
237.499
262.55
179.393
115.993
275.435
221.13
291.944
247.521
148.369
213.344
312.437
109.601
326.457
15.9409
115.312
130.57
256.5
231.902
263.031
156.788
146.621
298.372
326.527
325.785
19.4091
294.443
194.887
184.324
250.03
206.085
217.929
184.324
250.03
189.527
217.929
184.324
311.701
314.549
243.391
311.701
206.085
282.813
294.443
189.527
270.024
299.606
194.887
194.887
189.527
217.929
314.549
189.527
194.887
318.728
314.549
316.867
206.085
200.405
200.405
211.927
194.887
236.836
323.626
230.395
304.231
230.395
224.088
200.405
224.088
322.307
194.887
206.085
318.728
200.405
304.231
324.414
206.085
324.414
324.414
263.4
320.209
321.381
200.405
322.307
250.03
189.527
194.887
200.405
184.324
324.688
324.912
189.527
250.03
7.53787
324.688
15.4419
56.9376
25.3159
59.822
6.44684
105.407
92.2288
100.783
115.427
299.606
53.3292
129.973
134.544
34.1855
81.9733
324.912
105.155
91.9563
159.314
41.1568
121.375
164.979
112.953
79.9596
183.84
162.284
186.534
138.784
138.784
179.115
146.555
74.6137
119.636
68.5438
135.094
68.7436
323.04
149.047
60.4974
63.6673
43.6992
145.975
103.827
324.912
162.948
171.932
191.498
172.044
16.2316
82.3419
159.712
217.96
181.692
109.627
69.3752
94.6432
191.899
192.057
38.6186
206.191
52.5205
120.579
105.517
249.851
235.206
78.8168
234.12
264.758
131.571
32.8483
214.336
130.049
282.813
118.79
7.75484
284.159
229.853
175.66
204.155
204.155
208.368
63.3327
216.064
91.668
61.427
4.19243
286.114
197.892
165.188
126.656
21.0785
226.235
174.289
307.557
20.684
94.0231
164.498
181.092
139.065
220.484
207.087
189.623
284.589
78.9456
129.538
87.3795
286.913
226.75
90.3341
21.4605
2.92019
121.474
315.774
161.222
218.934
130.577
152.775
210.7
105.923
133.774
183.373
22.348
150.414
87.2774
238.974
42.6842
222.365
222.365
168.788
85.0156
108.095
87.9718
124.082
118.362
103.464
113.052
110.532
108.095
87.9718
97.1107
133.574
127.116
118.362
103.464
118.362
86.3267
115.66
86.3267
86.3267
86.3267
81.6811
97.1107
81.6811
89.6717
133.574
97.1107
115.66
115.66
127.116
115.66
140.582
148.157
81.6811
108.095
80.2192
80.2192
86.3267
89.6717
105.739
108.095
99.1504
99.1504
124.082
80.2192
91.4311
84.7322
84.7322
80.2192
108.095
105.739
140.582
93.2546
127.116
118.362
121.167
148.157
148.157
144.298
115.66
86.3267
86.3267
81.6811
95.1465
80.2192
95.1465
86.3267
95.1465
118.362
84.7322
95.1465
130.279
105.739
91.4311
108.095
152.16
80.2192
83.1847
115.66
152.16
133.574
108.095
105.739
91.4311
110.532
84.7322
144.298
101.268
127.116
108.095
93.2546
127.116
130.279
80.2192
127.116
80.2192
95.1465
110.532
137.008
93.2546
118.362
84.7322
133.574
81.6811
152.16
110.532
160.603
152.16
95.1465
152.16
152.16
115.66
160.603
110.532
118.362
93.2546
152.16
103.464
156.308
91.4311
152.16
137.008
124.082
86.3267
95.1465
99.1504
91.4311
101.268
99.1504
115.66
95.1465
97.1107
160.603
95.1465
165.046
103.464
165.046
95.1465
121.167
148.157
80.2192
83.1847
108.095
144.298
169.639
86.3267
110.532
165.046
169.639
140.582
89.6717
169.639
130.279
118.362
174.382
103.464
105.739
84.7322
89.6717
97.1107
152.16
97.1107
124.082
137.008
174.382
148.157
148.157
81.6811
174.382
89.6717
130.279
87.9718
115.66
80.2192
99.1504
91.4311
84.7322
108.095
179.277
81.6811
148.157
174.382
103.464
27.6231
24.4319
110.532
97.1107
46.2733
31.7605
63.0902
58.9672
59.0506
51.2089
44.4561
64.4921
179.277
74.8647
74.4503
68.678
1.47203
59.6859
82.8764
70.6857
79.7604
66.9996
17.4531
53.1197
60.3184
71.753
58.8721
44.8226
60.7428
68.8459
118.362
57.3197
84.6758
75.9874
86.3696
80.6027
33.7452
79.9717
45.1906
79.2263
49.8998
88.3596
80.5921
69.8707
11.7475
91.4526
74.9403
156.308
70.7463
69.9053
96.6547
68.0865
91.5916
77.7103
61.9359
36.8532
81.5011
89.1192
81.9536
59.8962
79.7332
100.28
101.516
88.1288
51.2607
25.6614
9.57787
37.6321
31.811
100.28
98.9867
105.502
108.095
35.61
76.3682
102.284
82.3479
106.667
46.6861
63.8655
113.012
87.2851
111.453
9.43748
49.1758
89.6776
156.308
34.029
98.4144
98.2874
103.934
112.588
94.7452
95.8261
84.8065
106.896
114.28
44.4581
99.6711
119.255
53.4915
179.277
118.35
127.116
27.8797
70.9882
59.8254
25.3896
94.5828
98.6434
125.391
77.3379
60.5225
81.253
103.306
70.9904
104.708
133.036
142.529
94.8447
64.3398
84.5197
147.62
45.5537
127.281
16.981
156.005
84.3586
90.59
39.8885
144.793
160.502
107.005
126.715
152.29
35.4705
112.271
72.34
174.254
71.3722
172.971
125.674
40.4587
134.024
48.6177
51.6031
58.6229
63.866
63.866
54.8142
66.781
63.866
64.8117
51.6031
60.2937
66.781
49.476
63.866
52.8119
62.9429
65.7824
66.781
49.476
65.7824
54.1219
50.4939
57.8174
66.781
62.0406
58.6229
51.0364
68.8741
61.1577
55.5305
62.9429
57.0329
49.9743
57.8174
56.2703
69.9742
53.4543
57.0329
66.781
64.8117
69.9742
53.4543
49.476
51.0364
62.0406
56.2703
55.5305
49.476
49.476
49.476
54.1219
65.7824
64.8117
63.866
54.8142
68.8741
48.9972
53.4543
51.0364
55.5305
56.2703
51.0364
52.1948
71.113
65.7824
61.1577
67.8106
66.781
62.0406
71.113
65.7824
63.866
57.8174
50.4939
55.5305
57.0329
50.4939
66.781
51.6031
69.9742
57.0329
62.9429
72.2919
72.2919
49.476
62.0406
64.8117
72.2919
53.4543
51.0364
61.1577
54.8142
54.8142
51.0364
63.866
68.8741
56.2703
73.5116
72.2919
64.8117
62.0406
73.5116
57.0329
51.6031
49.9743
49.9743
62.0406
54.1219
60.2937
58.6229
57.0329
51.0364
71.113
62.0406
48.9972
49.476
51.6031
54.1219
53.4543
61.1577
55.5305
55.5305
68.8741
52.1948
52.8119
74.7724
57.0329
58.6229
67.8106
59.4486
64.8117
74.7724
73.5116
74.7724
50.4939
49.9743
65.7824
56.2703
74.7724
66.781
48.9972
52.1948
68.8741
71.113
72.2919
54.8142
68.8741
57.8174
56.2703
53.4543
54.8142
76.0738
62.9429
76.0738
59.4486
61.1577
72.2919
67.8106
74.7724
76.0738
56.2703
64.8117
76.0738
50.4939
55.5305
76.0738
49.9743
54.1219
59.4486
54.8142
56.2703
77.4156
68.8741
74.7724
77.4156
77.4156
62.0406
77.4156
53.4543
66.781
55.5305
55.5305
72.2919
56.2703
51.6031
52.8119
77.4156
76.0738
57.0329
60.2937
68.8741
77.4156
63.866
57.8174
77.4156
66.781
58.6229
50.4939
73.5116
78.7972
52.1948
62.9429
67.8106
68.8741
52.8119
59.4486
58.6229
64.8117
72.2919
4.70627
59.4486
78.7972
62.0406
31.3168
3.34459
49.9743
6.1256
54.1219
19.6482
44.5951
31.754
45.7258
47.7432
48.9972
48.497
49.9576
34.1703
55.5305
49.6528
42.1969
27.3548
49.1234
48.4374
45.7032
21.0078
35.0067
46.3187
8.41984
49.4921
20.6921
55.5305
78.7972
49.8695
5.66352
37.3146
48.5614
51.5932
50.145
26.547
34.8856
47.1741
35.6146
51.1896
46.3187
50.8743
51.8177
34.0865
52.6107
5.56834
54.1219
29.9391
54.2137
38.1598
24.5284
56.045
61.1577
56.9841
56.2703
3.78403
53.5798
54.9772
55.4766
15.0596
24.8754
41.8905
56.6594
35.3484
35.8504
58.5709
46.2793
58.5709
51.4041
57.2807
56.3532
18.006
35.7704
35.6029
48.1997
73.5116
59.9528
60.2
58.3175
44.1372
44.517
61.8895
62.0317
50.5003
60.791
39.8943
61.6393
46.1338
61.6393
56.9487
63.835
63.2701
62.9227
46.9708
57.9877
56.0172
43.3511
65.5209
43.7984
8.55948
35.2089
54.107
67.3584
47.7482
46.3357
52.4205
62.2336
24.5105
58.7461
65.3783
78.7972
33.0555
1.99165
42.9735
31.8136
67.7504
60.8742
24.0769
65.5736
47.4977
68.0749
53.1159
66.5324
78.7972
27.1819
73.7233
63.4584
32.4244
29.7374
31.1269
54.236
46.9341
69.1223
67.2272
73.5608
72.098
74.8198
74.0452
78.7454
65.0566
41.128
41.5461
40.2866
39.8636
43.6022
40.7081
41.128
43.1961
36.8645
39.8636
39.0134
45.2055
42.3761
36.4315
38.1577
39.0134
34.2649
44.8067
37.7278
35.564
40.7081
41.128
34.6971
44.8067
37.7278
46.0053
35.9978
34.6971
39.0134
36.8645
43.1961
46.0053
34.6971
43.1961
38.5862
39.0134
34.2649
45.2055
38.5862
39.0134
34.6971
45.6047
37.7278
36.8645
44.8067
35.9978
44.8067
39.4392
37.7278
40.2866
46.4091
38.1577
34.2649
35.9978
38.1577
36.4315
35.9978
43.6022
40.7081
46.0053
35.1303
35.9978
41.5461
42.7874
44.407
41.9622
37.2967
44.407
46.8175
36.4315
36.8645
37.2967
40.2866
46.8175
46.8175
42.3761
41.128
39.8636
46.4091
42.7874
35.564
38.5862
46.8175
44.0057
38.1577
36.2362
46.8175
41.9622
38.1577
44.8067
39.0134
40.2866
45.2055
35.564
43.6022
39.4392
46.4091
38.1577
39.4392
41.5461
40.2866
39.8636
43.1961
41.128
45.6047
36.8645
34.2649
47.2324
39.8636
43.6022
38.5862
47.2324
44.0057
46.4091
44.0057
39.4392
41.5461
46.8175
39.8636
40.2866
45.6047
46.4091
38.5862
37.2967
34.2649
46.0053
41.9622
35.1303
42.7874
36.4315
41.9622
39.4392
46.8175
44.0057
36.8645
41.128
43.6022
41.5461
47.6558
40.7081
46.8175
37.2812
46.0053
36.4315
45.2055
47.2324
48.0897
36.4315
48.0897
38.1577
40.2866
38.5862
46.0053
34.6971
48.0897
45.6047
41.128
43.6022
48.0897
34.2649
42.3761
38.1577
44.8067
39.0134
48.0897
35.9978
41.9622
41.5461
34.2649
40.7081
38.5862
48.0897
45.6047
47.2324
48.5363
42.3761
35.1303
40.7081
41.128
48.5363
44.8067
47.2324
45.2055
3.76395
8.94446
17.2823
7.61776
44.8067
26.182
16.2851
32.3998
28.4675
31.28
30.1937
10.8277
30.9675
26.6731
31.6772
16.285
29.9618
17.6676
10.0153
31.725
32.483
31.5148
24.4749
33.3371
29.8046
34.4181
34.6952
32.5826
31.0519
16.6499
35.0963
32.9659
17.365
35.5147
22.5797
35.0717
34.6529
35.0275
29.9505
35.564
30.363
35.5147
16.8355
35.4403
34.1686
17.7282
31.7283
23.1541
36.4315
29.4224
12.5902
31.7579
18.0896
27.392
36.8645
36.8645
35.8449
34.4319
28.8629
34.4671
2.80149
12.7297
26.0331
35.3982
27.4039
16.029
37.0897
27.4051
18.9728
32.0257
33.4509
23.4335
34.0977
36.9365
35.947
30.4461
26.1433
32.3289
37.9722
32.6058
36.5326
32.7591
30.5127
15.0524
37.5867
34.4902
35.3945
30.0493
38.3326
38.4607
26.8285
32.8259
16.5245
39.4091
36.2797
38.8025
26.9223
30.6642
30.106
28.593
38.2229
39.6912
48.5363
23.8342
35.899
29.9188
22.8548
22.9095
31.6112
32.7098
40.0355
32.8895
36.5079
39.8061
40.2598
22.8548
30.4757
39.207
32.385
34.7237
37.8251
38.8035
22.7595
37.9596
39.6529
12.7655
37.4445
33.7741
36.1279
35.9556
14.0017
41.9622
34.5758
40.6378
40.9884
11.2513
41.5378
24.9259
34.5758
36.4041
41.5378
35.7612
30.898
34.6416
32.8014
36.1995
37.0307
25.9849
40.0582
16.0184
23.153
41.5616
25.6026
36.2533
35.2633
40.9486
43.001
24.9796
43.5214
41.7638
44.1789
12.2619
41.3377
43.544
43.9724
4.52186
37.1618
34.6075
19.487
41.2027
44.6879
43.9225
44.6154
44.5427
13.9907
48.0897
45.0096
37.8309
39.6611
39.4653
45.3592
40.0462
45.7035
43.3954
1.30036
46.3957
38.2872
40.661
41.2656
46.5001
47.6558
40.661
42.5275
46.8175
44.7266
38.5079
30.4048
46.9068
47.2183
47.2324
39.1944
32.1213
26.9493
44.8037
48.5363
41.2561
48.0592
48.0383
28.9557
1.96934
48.521
26.4564
28.4708
30.8843
25.0727
28.4708
22.6381
32.1323
26.9278
26.5497
24.7132
26.5497
26.9278
22.6381
29.2637
26.9278
22.3054
25.8037
31.2975
26.5497
21.9765
27.6924
31.2975
26.9278
28.0797
21.0161
22.9747
22.6381
31.2975
32.1323
26.5497
32.554
20.7076
26.1748
23.3154
21.6516
23.6597
30.0679
24.3582
21.0161
29.6645
20.7076
27.3088
23.3154
32.554
24.0073
21.3309
31.2975
32.554
27.3088
22.6381
22.3054
23.3154
21.3309
32.9785
21.0161
27.6924
24.7132
31.2975
23.6597
24.0073
26.9278
25.4363
29.6645
23.6597
32.9785
26.1748
28.8657
32.554
30.4744
26.1748
32.9785
28.0797
32.9785
31.2975
22.3054
28.0797
22.3054
32.9785
26.5497
25.8037
26.5497
25.0727
22.3054
22.3054
32.9785
29.6645
24.0073
29.2637
22.6381
32.9785
23.3154
28.0797
24.7132
24.0073
32.9785
30.8843
24.7132
30.0679
31.2975
24.0073
24.3582
26.9278
28.8657
24.0073
21.9765
21.9765
29.6645
20.7076
24.3582
21.9765
24.0073
23.3154
24.3582
27.6924
28.4708
28.4708
30.8843
21.0161
22.6381
21.3309
22.6381
29.2637
25.8037
28.0797
23.3154
32.1323
21.6516
28.8657
25.0727
22.3054
26.9278
23.6597
25.8037
21.3309
33.4053
25.8037
32.554
32.1323
28.0797
25.4363
30.0679
21.6516
22.9747
24.3582
31.7136
33.4053
28.4708
30.0679
30.4744
25.4363
24.3582
24.7132
25.8037
23.3154
29.6645
22.3054
32.1323
30.4744
30.0679
22.3054
22.6381
25.4363
25.4363
24.0073
24.7132
24.0073
23.3154
24.7132
30.4744
23.6597
22.6381
33.4053
28.0797
23.3154
23.3154
33.4053
25.8037
23.6597
23.6597
25.0727
30.0679
28.4708
20.7076
27.3088
20.7076
25.0727
21.6516
24.0073
23.6597
33.4053
27.6924
24.3582
21.3309
21.0161
21.9765
1.29813
21.0161
3.2039
1.29813
30.8843
28.8657
30.0679
15.6033
21.8176
12.7624
19.969
28.0797
21.9765
20.7076
8.2441
6.2917
13.7066
14.415
20.7059
7.85834
16.501
13.5868
14.3191
7.51586
14.9763
20.6367
8.41293
18.5422
19.3088
20.416
17.3959
19.9108
17.288
20.5306
19.7885
16.359
1.29813
20.0251
17.6405
19.594
20.1887
1.29814
16.3219
15.9356
28.0797
12.6657
33.8343
33.4053
23.6597
20.8744
18.8175
20.999
14.9144
13.52
20.3355
22.9747
32.9785
4.26208
11.5074
16.7
19.5157
18.1147
16.9235
21.0162
16.512
18.5452
16.1386
2.86513
21.0546
6.0317
17.3647
20.3634
24.3582
21.3645
20.9098
5.6656
21.6981
21.3449
19.3874
21.4531
21.6078
13.097
32.1323
20.8873
21.2602
21.6218
19.629
11.7144
21.9697
18.7003
5.6656
21.651
21.9765
21.1508
21.6981
19.8299
16.4127
20.9453
20.2803
17.5393
21.276
21.3796
21.6982
19.7652
17.6473
32.1323
17.0504
20.1307
21.4088
20.7864
22.2732
18.6175
18.5527
19.6568
3.44997
22.589
22.5488
17.5617
20.4872
21.7132
21.4489
17.7502
22.1483
22.5704
30.4744
21.1046
28.8657
5.75104
22.4821
17.848
19.0118
19.2071
11.0375
18.3563
16.2257
22.7967
22.2246
24.0073
24.7132
22.7622
20.5285
21.2024
24.0073
22.9532
27.3088
22.9747
19.7434
22.6409
9.62111
22.7293
21.9487
9.18432
16.9637
23.2425
10.0088
22.7967
21.3249
22.9702
19.8079
19.2034
22.8431
20.0282
15.7104
23.2064
22.9688
16.3798
22.7045
19.4844
23.0757
22.5044
23.6515
17.7113
14.1668
5.05627
22.5458
28.4708
29.2637
20.8469
15.4177
23.808
23.8751
22.9762
23.7489
1.29814
17.6315
23.9286
21.0382
22.7351
23.9286
23.4888
21.7266
23.2889
19.2091
22.1994
24.1701
23.1337
14.7789
24.2765
23.5996
18.8194
20.9052
24.3448
22.6499
24.7132
19.6273
24.5541
24.1964
9.44127
24.1318
21.0587
25.0718
8.67193
22.8761
19.4072
33.8343
21.7084
24.2567
22.237
21.2064
24.9973
23.6398
24.6272
24.6556
24.6272
24.6272
17.3763
5.62858
20.5275
27.6924
19.6673
21.2072
24.3361
24.807
4.3172
25.7351
9.09594
25.3001
25.4335
25.0865
25.3311
13.3347
14.103
24.3806
24.8473
24.829
24.9126
33.8343
25.8037
18.7781
25.3702
23.1215
22.3491
25.4932
20.6965
22.4223
11.6887
25.7747
25.782
23.9324
22.5246
25.7091
12.6374
26.1738
31.2975
1.29814
26.2081
16.0562
15.257
23.535
23.3288
15.5684
11.4882
26.1588
24.6164
10.1131
24.1581
25.2747
26.0767
22.2915
26.0673
22.0093
26.5816
23.3436
23.2362
17.6135
17.1927
26.5386
25.1581
25.1573
26.4926
26.7079
26.1266
9.58353
25.7736
10.7511
1.29814
6.87237
1.29813
26.2492
25.4764
22.8461
22.6938
25.3513
27.0057
17.489
23.2722
27.3784
27.6477
27.3206
12.2104
23.1034
11.5561
25.9215
1.29815
18.5465
14.8596
27.3784
21.2985
27.543
27.0429
24.9686
27.5236
26.7832
27.8593
24.5442
21.8816
26.9532
15.6701
26.0149
21.9804
28.0718
28.4335
22.9741
28.467
28.8644
27.0384
28.0547
20.8755
28.3831
28.6031
26.0149
28.0038
29.2637
26.9438
15.89
29.0916
18.0484
32.1323
24.1198
10.6936
28.0038
26.3604
29.3535
13.9007
25.8208
29.0674
26.786
20.2533
29.948
25.6346
29.859
24.7144
27.973
30.3073
26.9207
22.9024
29.0161
23.3957
30.4029
30.4029
27.9123
26.2777
26.7615
19.023
26.5705
29.9763
22.5501
29.5074
28.4044
26.2777
30.8499
30.7756
30.8499
30.7558
27.9786
26.7544
26.7544
31.0932
29.5074
31.2875
27.831
31.1646
31.2975
31.2499
29.4529
30.705
24.5895
32.1323
27.4214
1.29816
26.1849
1.29815
27.9361
31.6644
31.6874
29.4912
31.3084
9.87498
10.3931
4.98465
32.0943
28.7393
32.0121
30.2419
33.8343
22.7011
33.8343
32.4504
15.5454
32.554
32.4297
25.3827
10.5181
26.5906
26.3458
31.577
22.5822
31.8446
32.531
13.1492
27.1867
21.3568
33.8343
32.7451
31.9077
22.7248
31.957
33.2726
1.29817
23.8234
29.8932
23.6871
4.88754
32.099
15.7345
30.7381
32.6928
33.3569
27.7066
)


// ************************************************************************* //
