/*--------------------------------*- C++ -*----------------------------------*\
  =========                 |
  \\      /  F ield         | OpenFOAM: The Open Source CFD Toolbox
   \\    /   O peration     | Website:  https://openfoam.org
    \\  /    A nd           | Version:  7
     \\/     M anipulation  |
\*---------------------------------------------------------------------------*/
FoamFile
{
    version     2.0;
    format      ascii;
    class       scalarField;
    location    "0.7/lagrangian/reactingCloud1";
    object      T;
}
// * * * * * * * * * * * * * * * * * * * * * * * * * * * * * * * * * * * * * //


2438
(
592.789
591.009
590.786
590.802
590.504
590.37
589.979
589.564
589.482
589.791
589.229
588.876
589.107
588.898
588.926
588.769
588.987
588.507
588.554
588.733
588.097
588.775
588.6
588.594
588.659
588.421
588.342
589.658
588.299
588.335
588.431
588.353
588.432
588.376
588.403
588.449
588.438
588.427
588.431
588.465
588.445
588.444
588.45
598.141
597.916
594.938
590.731
590.306
593.86
593.511
590.027
591.809
592.785
593.975
594.642
592.822
593.189
593.805
591.684
592.843
594.256
593.43
593.715
596.041
596.378
593.599
593.044
593.224
594.057
595.242
593.668
592.816
594.226
592.908
594.271
593.461
593.274
594.185
593.699
593.779
593.291
593.443
593.21
593.95
593.117
593.611
592.745
593.03
594.41
592.592
593.084
593.132
592.459
594.086
594.913
594.537
592.897
594.299
592.335
593.415
596.141
591.781
591.934
591.142
565.874
566.532
566.876
572.57
573.256
578.763
580.849
576.463
577.22
580.9
583.326
583.153
582.942
585.424
584.312
586.449
586.836
588.503
592.033
588.622
588.701
588.424
589.208
481.18
521.539
528.976
527.608
530.42
532.527
532.592
528.628
538.252
538.885
540.184
544.661
545.763
546.784
550.328
508.853
508.851
489.259
508.222
508.56
509.627
509.66
419.001
419.001
512.285
512.641
512.056
513.348
514.287
517.822
518.558
519.72
478.59
489.26
442.317
506.508
506.889
506.853
501.641
507.083
507.001
507.026
507.211
506.682
506.997
507.562
507.653
507.693
507.619
450.08
508.012
329.164
443.735
505.404
378.104
445.642
505.136
498.212
504.586
487.113
505.625
481.527
505.524
504.997
505.735
505.876
505.961
385.234
506.107
505.828
427.75
440.886
314.992
453.637
441.831
478.286
496.739
506.341
445.689
506.306
506.075
506.525
377.608
502.994
387.714
504.442
504.665
493.212
388.319
482.828
504.771
462.57
504.267
504.735
504.786
504.625
504.807
504.66
501.998
504.822
504.88
256.8
504.843
441.087
504.763
483.374
378.722
359.106
504.778
503.927
504.765
489.46
499.406
505.079
392.676
493.101
505.088
454.132
444.409
504.901
504.766
417.936
505.272
499.421
504.448
504.491
504.457
504.472
504.469
504.446
504.568
504.474
433.259
368.371
435.406
504.181
504.462
504.484
504.497
343.948
504.503
504.513
503.753
422.884
482.982
279.763
504.496
504.513
467.595
504.436
339.503
504.549
447.51
448.633
504.51
500.086
504.224
436.479
468.862
333.184
242.571
493.69
503.759
434.769
448.644
504.507
436.811
429.664
492.242
501.802
504.624
498.449
334.217
486.413
504.648
373.498
230.437
504.673
503.34
504.661
504.637
469.248
359.78
504.733
484.7
471.548
504.443
504.442
504.444
504.442
504.442
504.444
504.442
504.444
504.441
504.443
504.442
504.442
504.442
504.443
504.442
504.443
504.444
504.445
369.284
336.597
356.356
444.152
422.062
417.402
426.712
439.588
493.308
243.031
362.705
344.363
368.057
339.515
495.781
435.193
502.417
425.682
435.193
436.171
503.899
330.468
398.412
431.395
384.441
231.25
469.84
504.445
438.153
504.373
385.736
410.585
484.779
361.338
504.26
489.584
446.089
427.301
503.966
504.444
449.301
504.029
501.021
369.948
395.627
476.811
417.436
371
349.569
403.197
483.543
233.698
467.283
414.785
467.283
503.695
470.912
504.039
248.722
380.543
501.853
496.486
504.458
503.977
450.562
341.524
382.449
487.608
353.575
503.895
464.021
503.544
389.717
377.799
377.799
401.614
384.419
504.33
438.066
504.484
504.187
504.218
504.29
504.218
504.366
504.019
504.309
504.4
504.153
504.187
504.114
503.958
504.069
504.434
504.435
504.341
504.412
504.434
504.341
504.153
504.439
504.114
504.412
504.434
504.4
504.428
504.441
504.435
504.442
504.437
504.443
504.443
235.86
241.799
249.414
286.247
319.729
320.166
375.689
458.037
411.937
439.947
288.518
487.62
459.381
495.706
415.447
503.816
240.343
343.835
427.605
399.119
360.354
326.828
482.314
338.797
432.215
462.783
412.808
367.946
501.405
441.439
291.209
445.458
410.774
438.52
251.305
427.353
484.355
337.367
304.228
460.763
417.025
279.909
438.815
404.1
437.862
481.405
421.088
477.782
452.398
389.601
493.882
347.397
430.291
438.815
459.732
387.769
331.168
470.009
424.558
482.603
447.174
359.596
417.641
496.768
324.801
504.43
244.612
329.715
343.307
454.6
433.724
459.952
366.76
357.598
487.209
504.443
504.188
247.5
487.016
414.501
405.904
457.089
423.519
432.893
405.904
457.089
410.147
432.893
405.904
497.191
498.748
452.248
497.191
423.519
479.625
487.016
410.147
471.111
490.173
414.501
414.501
410.147
432.893
498.748
410.147
414.501
500.944
498.748
499.98
423.519
418.961
418.961
428.167
414.501
447.383
503.33
442.519
492.925
442.519
437.683
418.961
437.683
502.717
414.501
423.519
500.944
418.961
492.925
503.676
423.519
503.676
503.676
466.559
501.692
502.271
418.961
502.717
457.089
410.147
414.501
418.961
405.904
503.792
503.884
410.147
457.089
228.034
503.792
238.625
283.405
250.153
286.221
227.129
331.175
318.376
326.51
340.844
490.173
279.664
354.208
358.838
260.14
308.017
503.884
330.387
317.594
382.778
267.375
346.291
387.64
337.66
305.867
405.445
384.632
406.742
361.731
361.731
399.853
368.946
300.676
343.504
294.704
357.883
294.883
503.061
370.987
286.844
289.943
270.18
367.918
328.326
503.884
383.146
391.259
409.227
391.047
241.15
307.92
379.949
432.263
399.325
333.354
295.4
319.378
407.966
407.403
265.262
419.986
278.98
343.091
329.387
456.229
444.099
304.018
442.224
466.358
352.401
259.489
425.024
350.771
479.625
340.331
231.462
479.624
436.91
390.947
415.453
415.453
419.016
288.816
425.172
315.12
286.913
225.761
480.38
409.505
381.181
346.671
247.56
432.793
388.555
494.59
247.217
316.698
379.723
394.19
357.006
427.757
416.482
401.56
478.485
302.489
348.288
310.159
479.924
432.526
312.839
248.187
223.461
340.666
499.132
375.865
425.585
348.568
367.997
418.243
326.378
351.008
394.753
249.421
365.715
309.362
441.696
268.862
427.684
427.684
381.319
307.091
341.639
323.392
355.718
350.713
337.522
346.028
343.798
341.639
323.392
331.814
363.879
358.347
350.713
337.522
350.713
321.853
348.332
321.853
321.853
321.853
317.499
331.814
317.499
324.976
363.879
331.814
348.332
348.332
358.347
348.332
369.794
376.119
317.499
341.639
316.129
316.129
321.853
324.976
339.548
341.639
333.657
333.657
355.718
316.129
326.609
320.359
320.359
316.129
341.639
339.548
369.794
328.291
358.347
350.713
353.174
376.119
376.119
372.904
348.332
321.853
321.853
317.499
330.026
316.129
330.026
321.853
330.026
350.713
320.359
330.026
361.067
339.548
326.609
341.639
379.443
316.129
318.908
348.332
379.443
363.879
341.639
339.548
326.609
343.798
320.359
372.904
335.559
358.347
341.639
328.291
358.347
361.067
316.129
358.347
316.129
330.026
343.798
366.787
328.291
350.713
320.359
363.879
317.499
379.443
343.798
386.425
379.443
330.026
379.443
379.443
348.332
386.425
343.798
350.713
328.291
379.443
337.522
382.877
326.609
379.443
366.787
355.718
321.853
330.026
333.657
326.609
335.559
333.657
348.332
330.026
331.814
386.425
330.026
390.087
337.522
390.087
330.026
353.174
376.119
316.129
318.908
341.639
372.904
393.866
321.853
343.798
390.087
393.866
369.794
324.976
393.866
361.067
350.713
397.762
337.522
339.548
320.359
324.976
331.814
379.443
331.814
355.718
366.787
397.762
376.119
376.119
317.499
397.762
324.976
361.067
323.392
348.332
316.129
333.657
326.609
320.359
341.639
401.775
317.499
376.119
397.762
337.522
252.062
248.036
343.798
331.814
274.842
257.191
295.321
290.341
289.966
280.973
272.399
296.732
401.775
309.594
309.09
302.082
218.239
290.505
318.535
303.868
314.771
298.926
239.655
282.289
291.047
303.724
289.161
272.453
290.994
300.361
350.713
286.735
319.096
308.627
321.087
313.982
259.404
313.249
272.725
312.062
278.233
323.016
313.636
300.81
232.196
326.197
306.262
382.877
301.539
300.592
331.29
298.033
325.496
309.063
291.181
262.873
312.959
321.857
313.816
288.7
310.991
333.942
335.33
319.95
278.8
249.684
229.489
263.497
256.857
333.942
332.009
338.757
341.639
261.204
306.356
335.189
312.886
340.05
273.57
292.343
345.984
318.279
344.274
229.5
276.315
320.539
382.877
259.445
330.036
329.496
335.602
344.989
325.32
326.478
314.679
338.355
345.799
271.015
330.224
351.123
280.779
401.775
349.625
358.347
252.569
299.217
287.447
249.737
324.171
328.078
355.951
305.451
287.952
309.495
332.165
298.525
333.602
362.692
371.107
323.163
291.806
312.362
375.577
271.934
355.134
239.991
382.574
311.526
317.76
265.858
371.47
386.323
333.774
353.158
378.252
261.144
338.638
299.156
397.637
298.068
396.405
351.353
266.468
359.04
274.952
287.769
295.136
300.375
300.375
291.278
303.291
300.375
301.324
287.769
296.801
303.291
285.152
300.375
289.137
299.45
302.296
303.291
285.152
302.296
290.552
286.442
294.331
303.291
298.546
295.136
287.101
305.359
297.663
292.018
299.45
293.544
285.793
294.331
292.773
306.433
289.838
293.544
303.291
301.324
306.433
289.838
285.152
287.101
298.546
292.773
292.018
285.152
285.152
285.152
290.552
302.296
301.324
300.375
291.278
305.359
284.519
289.838
287.101
292.018
292.773
287.101
288.448
307.535
302.296
297.663
304.312
303.291
298.546
307.535
302.296
300.375
294.331
286.442
292.018
293.544
286.442
303.291
287.769
306.433
293.544
299.45
308.665
308.665
285.152
298.546
301.324
308.665
289.838
287.101
297.663
291.278
291.278
287.101
300.375
305.359
292.773
309.826
308.665
301.324
298.546
309.826
293.544
287.769
285.793
285.793
298.546
290.552
296.801
295.136
293.544
287.101
307.535
298.546
284.519
285.152
287.769
290.552
289.838
297.663
292.018
292.018
305.359
288.448
289.137
311.019
293.544
295.136
304.312
295.959
301.324
311.019
309.826
311.019
286.442
285.793
302.296
292.773
311.019
303.291
284.519
288.448
305.359
307.535
308.665
291.278
305.359
294.331
292.773
289.838
291.278
312.244
299.45
312.244
295.959
297.663
308.665
304.312
311.019
312.244
292.773
301.324
312.244
286.442
292.018
312.244
285.793
290.552
295.959
291.278
292.773
313.503
305.359
311.019
313.503
313.503
298.546
313.503
289.838
303.291
292.018
292.018
308.665
292.773
287.769
289.137
313.503
312.244
293.544
296.801
305.359
313.503
300.375
294.331
313.503
303.291
295.136
286.442
309.826
314.798
288.448
299.45
304.312
305.359
289.137
295.959
295.136
301.324
308.665
220.738
295.959
314.798
298.546
258.668
219.184
285.793
222.604
290.552
241.881
278.023
259.341
279.64
282.664
284.519
283.779
285.768
262.812
292.018
285.322
274.401
253.094
284.447
283.449
279.479
244.099
264.02
280.284
226.02
284.867
243.679
292.018
314.798
285.277
222.174
267.214
283.399
287.588
285.673
251.975
263.684
281.15
264.848
287.012
280.284
286.204
287.327
262.507
288.649
222.141
290.552
256.723
290.198
267.953
249.067
292.463
297.663
293.477
292.773
219.795
288.826
290.734
291.416
235.822
249.46
272.581
292.755
263.764
264.564
295.065
278.28
295.065
285.142
293.317
291.787
239.935
264.078
263.726
280.633
309.826
296.343
296.675
293.865
275.039
275.181
298.344
298.534
283.029
296.594
268.979
297.434
276.952
297.434
291.021
300.334
299.587
298.84
277.871
292.377
289.351
273.057
301.651
273.632
226.796
262.48
286.682
303.727
278.386
276.589
284.329
296.566
248.508
291.892
300.262
314.798
259.419
218.129
271.91
257.768
302.936
294.303
247.884
300.198
277.573
303.01
284.381
301.082
314.798
251.821
309.708
296.947
258.366
254.991
256.652
285.313
276.158
303.287
300.963
308.745
306.944
310.297
308.965
314.733
297.998
273.497
274.044
272.411
271.871
276.824
272.952
273.497
276.262
268.157
271.871
270.799
279.107
275.147
267.633
269.736
270.799
265.051
278.531
269.208
266.593
272.952
273.497
265.562
278.531
269.208
280.273
267.113
265.562
270.799
268.157
276.262
280.273
265.562
276.262
270.267
270.799
265.051
279.107
270.267
270.799
265.562
279.688
269.208
268.157
278.531
267.113
278.531
271.334
269.208
272.411
280.863
269.736
265.051
267.113
269.736
267.633
267.113
276.824
272.952
280.273
266.078
267.113
274.044
275.703
277.958
274.594
268.681
277.958
281.458
267.633
268.157
268.681
272.411
281.458
281.458
275.147
273.497
271.871
280.863
275.703
266.593
270.267
281.458
277.389
269.736
267.332
281.458
274.594
269.736
278.531
270.799
272.411
279.107
266.593
276.824
271.334
280.863
269.736
271.334
274.044
272.411
271.871
276.262
273.497
279.688
268.157
265.051
282.058
271.871
276.824
270.267
282.058
277.389
280.863
277.389
271.334
274.044
281.458
271.871
272.411
279.688
280.863
270.267
268.681
265.051
280.273
274.594
266.078
275.703
267.633
274.594
271.334
281.458
277.389
268.157
273.497
276.824
274.044
282.663
272.952
281.458
268.657
280.273
267.633
279.107
282.058
283.275
267.633
283.275
269.736
272.411
270.267
280.273
265.562
283.275
279.688
273.497
276.824
283.275
265.051
275.147
269.736
278.531
270.799
283.275
267.113
274.594
274.044
265.051
272.952
270.267
283.275
279.688
282.058
283.894
275.147
266.078
272.952
273.497
283.894
278.531
282.058
279.107
219.553
226.17
238.659
224.308
278.531
252.384
237.066
262.117
256.072
260.359
258.655
228.884
259.869
253.045
260.982
237.037
258.292
239.135
227.704
260.912
262.248
260.584
249.639
263.433
257.794
264.814
265.559
262.109
259.73
237.506
266.025
262.706
238.61
266.517
246.576
265.829
265.333
265.918
257.901
266.593
258.422
266.517
237.784
266.251
264.286
239.095
260.402
247.204
267.633
256.773
231.44
260.335
239.575
253.601
268.157
268.157
266.459
264.425
255.829
264.354
218.701
231.63
251.475
265.776
253.54
236.511
268.364
253.466
240.826
260.43
262.692
247.46
263.675
268.129
266.372
258.045
251.506
260.888
269.454
261.211
267.262
261.442
258.059
235.005
268.748
264.056
265.424
257.282
269.766
269.852
252.466
261.364
237.128
271.289
266.464
270.37
252.486
257.985
257.155
254.907
269.493
271.61
283.894
247.827
265.804
256.876
246.386
246.433
259.328
260.962
272.031
261.23
266.635
271.592
272.276
246.386
257.583
270.689
260.414
263.894
268.53
270.082
246.182
268.732
271.196
231.644
267.82
262.36
265.857
265.601
233.422
274.594
263.496
272.602
273.129
229.48
273.886
249.296
263.496
266.211
273.886
265.207
257.991
263.508
260.791
265.814
267.092
250.78
271.557
236.331
246.659
273.807
250.212
265.858
264.393
272.844
275.92
249.301
276.661
273.995
277.615
230.965
273.359
276.662
277.305
220.409
267.133
263.365
241.358
273.134
278.352
277.203
278.243
278.112
233.465
283.275
278.813
268.103
270.813
270.523
279.319
271.385
279.82
276.363
218.543
280.843
268.771
272.28
273.176
280.981
282.663
272.28
275.042
281.458
278.313
269.098
257.234
281.57
282.036
282.058
270.11
259.768
252.26
278.389
283.894
273.145
283.23
283.198
256.84
218.225
283.871
251.576
258.06
261.015
253.719
258.06
250.479
262.51
256.108
255.634
253.235
255.634
256.108
250.479
259.038
256.108
249.997
254.686
261.511
255.634
249.597
257.057
261.511
256.108
257.55
248.223
250.896
250.479
261.511
262.51
255.634
263.02
247.846
255.177
251.368
249.117
251.782
260.01
252.714
248.223
259.516
247.846
256.562
251.368
263.02
252.258
248.734
261.511
263.02
256.562
250.479
249.997
251.368
248.734
263.523
248.223
257.057
253.235
261.511
251.782
252.258
256.108
254.225
259.516
251.782
263.523
255.177
258.545
263.02
260.505
255.177
263.523
257.55
263.523
261.511
249.997
257.55
249.997
263.523
255.634
254.686
255.634
253.719
249.997
249.997
263.523
259.516
252.258
259.038
250.479
263.523
251.368
257.55
253.235
252.258
263.523
261.015
253.235
260.01
261.511
252.258
252.714
256.108
258.545
252.258
249.597
249.597
259.516
247.846
252.714
249.597
252.258
251.368
252.714
257.057
258.06
258.06
261.015
248.223
250.479
248.734
250.479
259.038
254.686
257.55
251.368
262.51
249.117
258.545
253.719
249.997
256.108
251.782
254.686
248.734
264.031
254.686
263.02
262.51
257.55
254.225
260.01
249.117
250.896
252.714
262.011
264.031
258.06
260.01
260.505
254.225
252.714
253.235
254.686
251.368
259.516
249.997
262.51
260.505
260.01
249.997
250.479
254.225
254.225
252.258
253.235
252.258
251.368
253.235
260.505
251.782
250.479
264.031
257.55
251.368
251.368
264.031
254.686
251.782
251.782
253.719
260.01
258.06
247.846
256.562
247.846
253.719
249.117
252.258
251.782
264.031
257.057
252.714
248.734
248.223
249.597
218.068
248.223
219.084
218.131
261.015
258.545
260.01
238.172
249.294
233.056
246.413
257.55
249.597
247.846
225.524
222.641
234.731
235.905
247.843
224.948
239.833
234.43
235.831
224.391
237.024
247.708
225.748
243.675
244.954
247.279
241.506
246.301
241.303
247.502
246.065
239.436
218.147
246.522
241.812
245.496
246.632
218.037
239.299
238.592
257.55
232.692
264.537
264.031
251.782
247.95
244.023
248.19
236.741
234.016
246.913
250.896
263.523
220.12
230.777
239.994
245.261
242.621
240.262
248.128
239.648
243.254
238.834
218.779
248.202
222.23
241.071
246.666
252.714
248.568
247.923
221.704
249.067
248.531
244.827
248.738
249.033
233.373
262.51
247.659
248.369
249.06
245.165
230.942
249.584
243.437
221.704
249.116
249.597
248.028
249.067
245.541
239.247
247.639
246.197
241.298
248.265
248.253
248.851
245.241
241.351
262.51
240.174
245.919
248.174
247.015
249.936
243.017
242.899
245.04
219.281
250.387
250.311
240.962
246.459
248.743
248.249
241.439
249.558
250.352
260.505
247.419
258.545
221.827
250.186
241.477
243.582
243.938
229.691
242.541
238.579
250.563
249.496
252.258
253.235
250.499
246.357
247.6
252.258
250.856
256.562
250.896
244.793
250.272
227.439
250.278
248.833
226.764
239.802
251.232
228.044
250.563
247.684
250.887
244.91
243.669
250.49
245.151
237.515
251.165
250.723
238.678
250.022
244.173
250.922
249.655
251.767
240.945
234.84
221.016
249.731
258.06
259.038
246.515
236.968
251.893
252.016
250.372
251.784
218.05
240.805
252.114
246.859
249.774
252.114
251.136
247.962
250.774
243.49
248.81
252.372
250.387
235.801
252.566
251.337
242.805
246.412
252.69
249.52
253.235
244.157
252.947
252.301
227.139
252.303
246.567
253.717
225.945
249.786
243.671
264.537
247.714
252.253
248.782
246.827
253.583
251.148
252.918
252.969
252.918
252.918
240.082
221.69
245.632
257.057
244.034
246.723
252.258
253.241
220.14
254.564
226.547
253.981
254.22
253.599
254.036
233.187
234.498
252.338
253.171
253.281
253.288
264.537
254.686
242.385
254.106
249.94
248.583
254.134
245.699
248.712
230.539
254.635
254.648
251.369
248.761
254.518
232.101
255.175
261.511
218.073
254.85
237.606
236.35
250.527
250.166
236.797
230.221
255.148
252.578
228.055
251.443
253.395
255.003
248.2
254.786
247.581
255.502
249.877
249.838
240.133
239.362
255.614
253.02
252.839
255.347
255.723
254.708
227.246
253.902
229.022
218.086
223.336
218.211
254.725
253.389
248.874
248.757
253.173
256.036
239.796
249.602
256.516
256.98
256.416
231.268
249.313
230.213
254.011
218.064
241.546
235.497
256.516
246.149
256.8
255.938
252.379
256.598
255.332
257.173
251.521
247.028
255.477
236.703
253.885
247.194
257.38
257.997
248.758
258.054
258.543
255.453
257.171
245.147
257.727
258.1
253.885
256.916
259.038
255.136
236.952
258.748
240.432
262.51
250.418
228.817
256.916
253.999
258.995
233.76
253.103
258.516
254.707
243.939
259.81
252.793
259.662
251.031
256.529
260.229
254.787
248.077
258.096
248.985
260.387
260.387
256.277
253.59
254.384
241.809
254.071
259.522
247.505
258.752
256.943
253.59
260.959
260.837
260.959
260.804
256.245
254.244
254.244
261.177
258.752
261.495
255.855
261.294
261.511
261.433
258.497
260.542
250.6
262.51
255.053
218.196
253.182
218.224
255.885
261.931
261.968
258.402
261.352
227.54
228.305
220.891
262.448
257.037
262.315
259.457
264.537
247.378
264.537
262.853
236.126
263.02
262.82
251.653
228.471
253.47
253.194
261.45
247.105
261.711
262.808
232.419
254.421
245.17
264.537
263.15
261.812
247.244
261.729
263.82
218.045
248.975
258.456
248.76
220.778
261.955
236.319
259.647
262.733
263.782
254.997
)


// ************************************************************************* //
