/*--------------------------------*- C++ -*----------------------------------*\
  =========                 |
  \\      /  F ield         | OpenFOAM: The Open Source CFD Toolbox
   \\    /   O peration     | Website:  https://openfoam.org
    \\  /    A nd           | Version:  7
     \\/     M anipulation  |
\*---------------------------------------------------------------------------*/
FoamFile
{
    version     2.0;
    format      ascii;
    class       scalarField;
    location    "0.7/lagrangian/reactingCloud1";
    object      tTurb;
}
// * * * * * * * * * * * * * * * * * * * * * * * * * * * * * * * * * * * * * //


2438
(
0.0003235
0.0002985
0.004115
0.00401
0.003905
0.0038
0.003695
0.00359
0.003485
0.00338
2.05e-05
0.00317
0.003065
0.00296
0.002855
0.00275
0.002645
0.00254
0.002435
0.00233
0.0005905
0.00212
0.002015
0.00191
0.001805
0.0017
0.001595
1.55e-05
0.00149
0.001385
0.00128
0.001175
0.00107
0.000965
0.00086
0.000755
0.00065
0.000545
0.00044
0.000335
0.00023
0.000125
2e-05
0.00095
0.0008535
0.000327492
0.010105
0.01
0.00435311
0.001787
0.0097
0.0096
0.0095
0.000422148
0.0043085
0.0092
0.0091
0.009
0.0089
0.0088
0.0087
0.0086
0.0085
0.0024355
0.0021705
0.0082
0.0081
0.008
0.0079
0.0024755
0.0077
0.0076
0.0074
0.0075
0.0073
0.0072
0.0071
0.007
0.0069
0.0068
0.0067
0.0066
0.0065
0.0064
0.0062
0.0061
0.006
0.005795
0.001635
0.005585
0.00548
0.005375
0.00527
0.000790187
0.0002035
3.55e-05
0.004955
0.00032
0.004745
0.00464
8.55e-05
0.00443
0.004325
0.00422
0.000290261
0.001887
0.011995
0.01168
0.01189
0.0008285
3.0692e-05
0.011785
0.011575
0.01147
0.011365
0.01126
0.01084
0.011155
0.010735
0.010945
0.010525
0.01063
0.000715
0.01042
0.01021
0.0101012
0.010315
0.0011735
0.01336
0.013255
0.0032855
0.003282
0.01315
0.0017435
0.003777
0.012835
0.000702
0.01273
0.012625
0.01252
0.000832955
0.012415
0.00288764
0.0002185
0.000415835
0.0005055
0.014515
0.014305
0.0142
0.001017
0.0009885
0.01399
0.00240537
0.0023105
0.014095
0.013885
0.01378
0.01357
0.0057885
0.0008255
0.0003535
0.0006855
0.01668
0.00499236
0.0009355
0.0003905
0.00448792
0.01618
0.01588
0.003842
0.001232
0.01525
0.0013385
0.0016455
0.00350709
0.0027485
0.00165176
0.00355
0.0016235
0.0024605
0.01968
0.0029485
0.002988
0.01938
0.00171
0.0015185
0.002492
0.01908
0.00155773
0.01898
0.007287
0.0017255
0.01838
0.0055755
0.000192
0.00623525
0.01778
0.0006355
0.0022155
8.5e-06
0.0015255
0.0008585
0.0033005
0.000483172
0.005795
0.0005935
0.01738
0.00576346
0.01718
0.0047185
0.0092835
0.0017455
0.01161
0.02376
0.007032
0.0025885
0.00219822
0.0027485
0.005127
0.0104205
0.002527
0.02313
0.02292
0.023025
0.0057635
0.0052305
0.0225
0.0061105
0.0016305
0.005772
0.0035035
0.021975
0.005262
0.0005305
0.000625
0.0214462
0.00971084
0.021345
0.0035485
0.0003735
0.020925
0.003485
0.00121
0.020715
0.003517
0.00289
0.0204
0.007722
0.0016455
0.0037785
0.0029085
0.00321974
0.00330196
0.00226247
0.000984789
0.000438001
0.000302879
0.000754168
0.02956
0.005827
0.0059585
0.005542
0.00334
0.02906
0.02896
0.0017955
0.0022385
0.02856
0.0003305
0.000392236
0.005382
0.00219689
0.0093735
0.0100535
0.0111085
0.006977
0.0062855
0.0069735
0.02746
0.0011985
0.0058255
0.02696
0.000432148
0.0039305
0.0032085
0.0006205
0.005882
0.0099505
0.001277
0.008777
0.000887
0.0021005
0.0027185
0.0007885
0.00617
0.00192
0.0061285
0.0024135
0.000883071
0.004075
0.00332
0.0019935
0.0026405
0.009985
0.0010135
0.00369554
0.002057
0.024705
0.0032121
0.0040205
0.0009435
0.00276109
0.003272
0.00186478
0.00424614
0.0042703
0.0003885
0.00320473
0.000885083
0.00276194
0.00214736
0.00248152
0.00192665
0.00335246
0.00195397
0.00136007
4.0242e-05
0.000771601
0.00304478
0.000528656
0.00337067
0.0065235
0.0031505
0.007755
0.00850276
0.007602
0.007062
0.002907
0.0029385
0.0097985
0.0041973
0.009147
0.008325
0.0068455
0.003627
0.000792134
0.0034035
0.0054355
0.00982664
0.0066085
0.0094335
0.0057235
0.0036455
0.0093755
0.0048005
0.0067285
0.013967
0.001602
0.000385201
0.009157
0.0065655
0.0049885
0.0051505
0.0025555
0.0062655
0.0042805
0.008245
8.85e-05
0.005172
0.0062505
0.001097
0.00765
0.0056205
0.012717
0.005882
0.0059705
0.002062
0.008435
0.00497617
0.0014455
0.0063955
0.001157
0.0031255
0.0016105
0.008682
0.00415004
0.0085085
0.001147
0.006122
0.002542
0.008662
0.00678
0.0011285
0.03059
0.004675
0.0038085
0.0058155
0.00654283
0.0021255
0.0017655
0.0003035
0.002092
0.0021755
0.005685
0.0069505
0.000632
0.0080235
0.006562
0.0037055
0.0030835
0.0007955
0.0042169
0.00361415
0.00367785
0.00476337
0.00346058
0.00284012
0.00284159
0.0042055
0.00274323
0.00163538
0.00160706
0.00484655
0.00540333
0.001584
0.00273166
0.00109982
0.00124353
0.0041562
0.000834919
0.000789123
0.00233869
0.00120021
0.000716072
0.00484133
0.000502052
0.000583337
0.00194136
0.000406105
0.00159804
0.000214224
0.00420714
0.000897292
0.002032
0.007847
0.000627
0.0138535
0.01202
0.01255
0.0014205
0.000661425
0.0078435
0.0066705
0.0022255
0.00399
0.003957
0.00486066
0.011207
0.0116455
0.0143905
0.0110035
0.001947
0.002852
0.0013335
0.0126655
0.0110885
0.0014535
0.0041705
0.0026185
0.00711299
0.0012455
0.0138155
0.006095
0.011757
0.0009805
0.0015805
0.0002855
0.0117962
0.00860074
0.0114255
0.0099005
0.0026655
0.000882
0.008342
0.005055
0.005207
0.0067655
0.0068855
0.001072
0.0043135
0.000512
0.00886
0.000891213
0.0083505
0.006322
0.0022405
0.0004455
0.000442
0.009957
0.0020835
0.0001105
0.01001
0.0114985
0.0112226
0.0073035
0.0079285
0.0099155
0.0028285
0.0074955
0.0152875
0.002197
0.0044955
0.00958
0.00547268
0.0043685
0.0112335
0.009132
0.0108435
0.0035955
0.0225035
0.014977
0.00388663
0.00387902
0.0121281
0.00678108
0.00351469
0.00341488
0.0032182
0.00313497
0.0114482
0.0030003
0.00287638
0.00448171
0.0027712
0.00266581
0.0024325
0.00367316
0.00231886
0.00224096
0.00212448
0.00425921
0.00264511
0.00195502
0.00186657
0.00181814
0.00309125
0.00171068
0.00159567
0.00162594
0.00968249
0.00148488
0.0014732
0.00134723
0.00122942
0.000490507
0.0011119
0.00143219
0.0011372
0.00391459
0.00106513
0.00111155
0.0010005
0.000943613
0.00120896
0.00087935
0.000971859
0.0104278
0.000775899
0.000797492
0.000676178
0.00069914
0.000969892
0.000551776
0.00209571
0.00347557
0.00175484
0.000520224
0.000489
0.00874598
0.000402
0.000155113
0.000271827
0.00890685
0.000191999
0.000126492
0.00152068
0.000323214
0.000129986
0.000115193
0.0033905
0.000208938
0.0115485
0.0021105
0.0042085
0.018902
0.0043635
0.0127635
0.0148255
0.011947
0.01375
9.48862e-05
0.0060405
0.0041605
0.011115
0.017547
0.008147
0.000647005
5e-07
0.0170555
0.00808083
0.009367
0.00699811
0.00931
0.0044505
0.001622
0.00536734
0.014037
0.0046405
0.0150305
0.0085785
0.01271
0.0097455
0.0121005
0.01501
0.0107435
0.0115505
0.0054035
9.89999e-05
0.0082505
0.0092455
0.0136155
0.0036435
0.012
0.003457
0.000108
0.0083985
0.0002435
0.00628196
0.0118985
0.0118235
0.0134585
0.0016355
0.0104235
0.012382
0.0061655
0.0148785
0.01086
0.0056235
0.0026035
0.0073555
0.0036955
0.010875
0.000167
0.0063935
0.0010055
0.001565
0.0078205
0.0064855
0.001245
0.0079255
0.003997
0.0002185
0.000207
0.010015
0.0108335
0.0012005
0.015432
0.0121755
0.011152
0.0029005
0.007737
0.0016755
0.0019585
0.0006455
0.0090855
0.015132
0.002117
0.01249
0.0009105
0.00618
0.0062555
0.0128355
0.0068
0.001365
0.0099705
0.0118505
0.007122
0.002577
0.0088905
0.0069185
0.000142
0.0032705
0.011825
0.0002185
0.0033655
0.0121735
0.008632
0.001172
0.0124205
0.0023185
0.011387
0.0002205
0.011832
0.0127705
0.007217
0.01251
0.0109635
0.0027105
0.00557
0.0078485
0.0046605
0.0125305
0.005897
0.006442
0.0115405
0.0028305
0.0057855
0.0130701
0.005702
0.0058935
0.0062135
0.00490592
0.00392832
0.0145928
0.00393551
0.00390464
0.000405819
0.00400209
0.00198305
0.00384493
0.00193407
0.00388357
0.00203051
0.00418787
0.00379297
0.00381317
0.00361349
0.000510598
0.00136602
0.0035292
0.0183469
0.00349037
0.00227268
0.00344651
0.00581201
0.000685499
0.0165826
0.00340831
0.00337025
0.00722841
0.00325908
0.00329165
0.00381261
0.00315228
0.0072726
0.00311681
0.00310614
0.00311828
0.00309483
0.00172384
2.35e-05
0.0158465
0.00300642
0.0030405
0.0115206
0.00293951
0.00290066
0.00287711
0.00286383
0.00291305
0.00102275
0.00240534
0.00278562
0.00285523
0.00282576
0.00279354
0.0125634
0.00381445
0.00277862
0.00269842
0.00471794
0.00259319
0.000466042
0.000246425
0.00765557
0.00105565
0.00248379
0.00249779
0.00253922
0.00242761
0.00240835
0.00245386
0.00239282
0.00291967
0.000211503
0.00337514
0.00233664
0.00227993
0.00233804
0.00229186
0.00239531
0.00232923
0.00229742
0.00226686
0.0136134
0.0022363
0.00227335
0.00283834
0.0185734
0.00213988
0.00239718
0.00215224
0.0115876
0.00197567
0.00208788
0.0220762
0.00196078
0.00195794
0.00198337
0.00190327
0.000889533
0.00117665
0.00186184
0.00173423
0.00182528
0.00171744
0.00241163
0.000253456
0.00163974
0.00167959
0.00167985
0.0018437
0.00198356
0.0015367
0.0118958
0.00148817
0.00156212
0.00156635
0.00151834
0.00168696
0.00145032
9.04415e-05
0.00445182
0.00122298
0.00880625
0.000148069
0.00314046
0.00118052
0.0011805
0.0011836
0.00115598
0.00169654
0.00118825
0.0010801
0.00547613
0.00212094
0.00350416
0.000984159
0.00357349
0.00107793
0.000914313
0.000918417
0.000962064
0.000987085
0.00105469
0.000872031
0.00153334
0.000943612
0.00390081
0.000836996
0.0110135
0.000858803
0.000720835
0.0176633
0.00133132
0.000581064
0.000579565
0.0005218
0.000517438
0.0111789
0.000605286
0.000601412
0.000505277
0.000491839
0.00240546
0.000512774
0.000466366
0.00358712
0.000770725
0.00458583
0.00267297
0.00781699
0.000316631
0.000220812
0.000225468
0.000204938
0.00016407
0.00646806
0.00177613
0.000148452
0.000260514
0.00029063
0.000111068
0.0177855
0.023672
0.0139786
0.000255082
0.025722
0.012377
0.021057
0.023462
0.0081155
0.0184705
0.016797
0.0012605
0.00384627
0.0069085
0.0223455
0.0223612
0.0371885
0.0149435
0.0219335
0.015337
0.0194405
0.0080705
0.0143105
0.0191835
0.0062855
0.0095635
0.0234535
0.004667
0.0197555
0.008427
6.18523e-05
0.0029755
0.02159
0.0200921
0.02102
0.003162
0.000122
0.0107835
0.01947
0.008382
0.0151285
0.018022
0.0038255
0.0085035
0.0087035
0.016232
0.0072505
0.00114843
0.002765
0.002682
0.020555
0.0040605
0.0217635
0.014442
0.0153655
0.0027335
0.0105535
0.006097
0.0162755
0.010402
0.0021085
0.0150855
0.0116885
0.008277
0.0019735
0.0062335
0.0109755
0.0176985
0.0137085
0.01024
0.0168035
0.015932
0.0015735
0.0138585
0.01651
0.0155085
0.0154385
0.000337
0.0101785
0.0151555
0.0070335
0.0192869
0.01193
0.0057385
0.0117155
0.012712
5.14841e-05
0.019052
0.0089205
0.0137655
0.010922
0.0071705
0.0148105
0.0091
0.0117955
0.005107
0.00714
0.009327
0.0116085
0.007732
0.0191455
0.00762586
0.016835
0.0111901
0.0136755
0.007762
0.021072
0.0158185
0.003887
0.0180785
0.004237
0.0075085
0.0106855
0.00612
0.0028835
0.004332
0.0098705
0.0173435
0.016055
0.0170785
0.002007
0.0028505
0.01161
0.0182955
0.0120055
0.0136205
0.0120655
0.0118805
0.002657
0.0016635
0.0151805
0.002707
0.0147635
0.0058835
0.0082205
0.020657
0.002325
0.014182
0.0161155
0.005192
0.0103685
0.010217
0.0035255
0.0145105
0.01995
0.0138625
0.00171261
0.00378663
0.00344922
0.00372165
5.28062e-05
0.00375959
0.00376327
0.0101202
0.00366027
0.0106788
0.0034762
0.000713372
0.00349315
0.000157475
0.00352168
0.0109253
0.00332133
0.018843
0.00333857
0.0198142
0.00324003
0.00326798
0.00321933
0.00318227
0.012939
0.00323152
0.0099212
0.00395764
0.029552
0.00306788
0.00189264
0.00900454
0.00300199
0.00307527
0.0117074
0.00177341
0.00315984
0.00282458
0.00295433
0.0105764
0.020193
0.0334141
0.0237388
0.00105952
0.00277981
0.00270508
0.0183396
0.00188926
0.0113576
0.00280917
0.00274306
0.00169765
0.0032534
0.00272108
0.00484418
0.00257823
0.000845273
0.00258273
0.00520684
0.00246571
0.0028769
0.000682963
0.00459692
0.00249288
0.0267055
0.00249399
0.012031
0.0024613
0.0170447
0.00250611
0.00625159
0.0102198
0.00458155
0.0023297
0.00596892
0.00379962
0.00223974
0.00539973
0.00224899
0.0239471
0.00377631
0.0024683
0.0106918
0.0192369
0.00219317
0.00228216
0.00208757
0.00204424
0.0171477
0.00412641
0.0266406
0.00568767
0.00205928
0.00536978
0.00199177
0.00379887
0.00542373
0.00199982
0.00197635
0.0022338
0.00197246
0.000543001
0.0020978
0.00101924
0.00184224
0.00455956
0.00182093
0.00586418
0.000430787
0.00164823
0.00130606
0.00292732
0.00335619
0.00170085
0.00698765
0.00164134
0.000813897
0.00169122
0.00166071
0.006762
0.00292823
0.00157718
0.00158474
0.00235441
0.00154924
0.00152478
0.00156656
0.00151961
0.00153502
0.00297105
0.00171185
0.0221534
0.00731897
0.0149863
0.00235839
0.00133928
0.00138942
0.0260513
0.00171753
0.00501783
0.00132819
0.00135232
0.00134836
0.00517089
0.00421845
0.00655863
0.00114728
0.00111596
0.0299926
0.00119985
0.00179261
0.00553447
7.52788e-05
0.00105369
0.00110059
0.00324474
0.00106558
0.002728
0.0167479
0.00647194
0.00306967
0.000862453
0.00563774
0.00225431
0.000800711
0.0148451
0.000852469
0.0136866
0.000767522
0.00143689
0.000799257
0.000831306
0.00418067
0.0022688
0.00070174
0.00281435
0.000589984
0.0263444
0.000588
0.000552628
0.00064133
0.000554639
0.00721857
0.000489585
0.00104313
0.00175874
0.000491704
0.00522769
0.000483107
0.00179636
0.000422239
0.000548361
0.0067603
0.0167933
0.000333722
0.000259118
0.0049031
0.00353729
0.000244673
0.000307996
0.0165588
0.000362539
0.000182977
0.0127283
0.000415422
0.000178567
0.00020297
0.0174554
0.000142257
0.00239207
0.000120361
0.0141885
0.0346505
0.00552126
0.0184885
0.00337051
0.0367205
0.0231755
0.0134005
0.007982
0.0126535
0.0217705
0.0096355
0.0076635
0.0101585
0.0100508
0.0055015
0.0207405
0.0090555
0.035257
0.0331355
0.02842
0.0134921
0.0083985
0.0037585
0.000592927
0.034323
0.000445
0.000159592
0.00158079
0.0231935
0.0266285
0.0313455
0.0290685
0.0230955
0.010067
0.0074635
0.023957
0.0218085
0.023578
0.0174735
0.0237434
0.030432
0.0214805
0.0243735
0.0308085
0.0065805
0.0134385
0.0055535
0.004022
1.55e-05
0.006532
0.0134785
0.000791906
0.0090835
0.000142
0.02268
0.0116655
0.022847
0.0315705
0.003442
0.025657
0.006622
0.0214755
0.0281755
0.022217
0.0035535
0.0031305
3.5e-05
0.0217755
0.0187705
0.029002
0.0161285
0.018302
0.0063535
0.0142635
0.024027
0.027782
0.0059135
0.0204605
0.0296255
0.0202355
0.0002285
0.00407
0.0172455
0.0038555
0.011682
0.0045885
0.0233705
0.025387
0.0032055
0.00202
0.000462
0.0016935
0.0192905
0.0009435
0.009357
0.0001235
0.0257335
0.0074585
0.00362343
0.0114735
0.022027
0.0104585
0.0147235
0.012967
0.0194555
0.0176405
0.0284385
0.0262085
0.023872
0.00290872
0.0228485
0.0109705
0.0184135
0.014867
0.004997
0.0156735
0.025095
0.0169555
0.014192
0.0009405
0.01681
0.0157555
0.00182898
0.015312
0.024812
0.0061085
0.013625
0.0074105
0.0161085
0.0001305
0.0090155
0.0167635
0.0261485
0.016877
0.0253935
0.026057
0.0253155
0.0239835
0.0198105
0.00366003
0.00140126
0.0036464
0.00360911
0.00566096
0.00265517
0.00360866
0.00358892
0.00345301
0.00350087
0.00394234
0.0158621
0.00345319
0.00338543
0.00338606
0.0141728
0.00327272
0.00534603
0.00340002
0.00323811
0.00336532
0.042462
0.00403961
0.00330676
0.00318851
0.00348183
0.00301402
0.0256203
0.0030946
0.00301072
0.0282605
0.00310705
0.0395575
0.0034461
0.000411797
0.00615025
0.00460255
0.00303065
0.00366375
0.00288251
0.0027802
0.00407298
0.00274692
0.00265341
0.00569113
0.00709451
0.00504435
0.0026896
0.0026307
0.00264807
0.00185496
0.00253823
0.00593238
0.00252563
0.00514944
0.0102851
0.00243569
0.00255863
0.00246913
0.00948314
0.0361207
0.00229241
0.00239062
0.00240385
0.00311847
0.0225916
0.00496559
0.00301004
0.0025453
0.00216447
0.00152017
0.00214951
0.0160691
0.00261684
0.00350824
0.00213721
0.0056138
0.00205329
0.00215137
0.00198526
0.00182957
0.0129211
0.00226297
0.0375593
0.00184688
0.0131535
0.00282705
0.00226516
0.00174737
0.00182931
0.00293832
0.00185832
0.00177682
0.00624219
0.00172961
0.0162222
0.00174924
0.0257352
0.00159895
0.00164635
0.0015964
0.00159655
0.00164283
0.0119555
0.0046652
0.00071279
0.00141453
0.0208126
0.00308546
0.00155098
0.0204741
0.00334303
0.00112329
0.00145559
0.00139485
0.00130785
0.00133879
0.0013842
0.000461551
0.0273733
0.00129859
0.0017336
0.00116431
0.00340832
0.00106532
0.00706676
0.00120425
0.00104434
0.00118173
0.0133262
0.00774752
0.0101611
0.00119435
0.00222981
0.013146
0.00103767
0.00108512
0.00102802
0.0015481
0.000925567
0.00289704
0.01533
0.0395238
0.0013517
0.000890569
0.00195664
0.000919289
0.00149806
0.00147156
0.000688032
0.000665695
0.0268936
0.00241646
0.00278801
0.00131175
0.000666063
0.000614909
0.000383485
0.000658195
0.00846722
0.0271736
0.001609
0.000552644
0.000438244
0.0116961
0.0319544
0.000488975
0.0103282
0.00299113
0.0260831
0.000380505
0.00369056
0.000459447
0.000699504
0.000556833
0.00207422
0.0466538
0.000307909
0.00687402
0.00581963
0.000325611
0.0133184
0.00537698
0.0547105
0.007657
0.0509455
0.0126281
0.00162392
0.049197
0.042452
0.006257
0.0410555
0.001062
0.008287
0.0216435
0.034067
0.0457285
0.0007655
0.0356085
0.011682
0.0313655
0.006922
0.0071205
0.0037035
0.0197335
0.0179635
0.0161785
0.041312
0.01276
0.0495335
0.0481605
0.0417805
0.023647
0.01429
0.0335735
0.0345355
0.0054935
0.0220435
0.007507
0.0115585
0.043265
0.0239385
0.0478105
0.03848
0.0044385
0.00391076
0.0042935
0.0395105
0.001837
0.0143505
0.0321055
7.45591e-06
0.013445
0.0413365
0.029747
0.039515
0.0039055
0.041902
0.038528
0.0413885
0.0469005
0.0348135
0.0028655
0.0438835
0.0035705
0.0418005
0.0005655
0.0295285
0.0193285
0.0439155
0.0165
0.0145805
0.0315285
0.0226735
0.0318135
0.034482
0.0002485
0.012582
0.0450735
0.038167
0.0027955
0.024105
0.03754
0.0167666
0.0384555
0.0212255
0.027627
0.021222
0.037002
0.010982
0.013257
0.012092
0.0065935
0.01425
0.0335705
0.0236455
0.0035435
0.001607
0.0117555
0.027687
0.022042
0.037502
0.0007755
0.01944
0.0227535
0.00369374
0.0239235
0.0075885
0.0174755
0.0293455
0.012365
0.0080185
0.01777
0.002677
0.009372
0.0280885
0.00688
0.0211685
0.0177435
0.0424655
0.0128905
0.0315355
0.0334355
0.0133735
0.0256585
0.029637
0.042697
0.0113135
0.0333985
0.0081535
0.013332
0.0087005
0.01764
0.013057
0.006625
0.0034405
0.006757
0.0294135
0.0146635
0.0011285
0.0094135
0.0041805
0.0026585
0.00927
0.029302
0.039967
0.0049155
0.01243
0.0011835
0.0243705
0.004852
0.00807
0.0006785
0.0056135
0.000925
0.005807
0.0338805
0.009537
0.0378355
0.0332005
0.0298535
0.007587
0.0012735
0.0210485
0.00444828
0.0351735
0.0263755
0.0042655
0.022497
0.0067035
0.0095935
0.0396905
0.0116555
0.0368535
0.0005755
0.035967
0.0081655
0.010082
4.59157e-05
0.003727
0.0022305
0.0371605
0.000842
0.004202
0.01555
0.00569
0.0349955
0.023462
0.0081555
0.0085585
0.018687
0.0110505
0.005837
7.25099e-06
0.026857
0.0059805
0.005232
0.004117
0.0060405
0.0040655
0.0091485
0.0244885
0.0190035
0.018107
0.026307
0.00556
0.0216
0.00169272
0.004565
0.0168635
0.0285335
0.0180335
0.0210035
0.0299585
0.0062785
0.00493563
0.0330113
0.00155644
0.00509845
0.00458491
0.00338511
0.00456205
0.00532991
0.0123393
0.00532447
0.0103732
0.00718107
0.00393564
0.00490643
0.0105918
0.0249666
0.00324802
0.00461744
0.00380711
0.00362668
0.00318982
0.00204735
0.00659439
0.00094098
0.00414486
0.00367571
0.00349138
0.0455613
0.00468828
0.00319469
0.00346465
0.00456703
0.00375851
0.00400796
0.0615336
0.0120176
0.00328282
0.003698
0.00334583
0.028568
0.00389553
0.00424969
0.00278892
0.00352462
0.0345467
0.00421479
0.0031477
0.0184496
0.0428794
0.0032769
0.0265186
0.00324442
0.00385873
0.00367796
0.002633
0.00182777
0.00246091
0.00757884
0.00871117
0.00280734
0.00466262
0.0296044
0.0706167
0.00297577
0.00303272
0.0231167
0.00236354
0.00225285
0.00439596
0.00318914
0.00361804
0.00223662
0.00217926
0.00250256
0.00465285
0.00223578
0.00217722
0.00334289
0.0121852
0.0032969
0.0119651
0.00228724
0.00199982
0.00211343
0.045886
0.0378388
0.0027721
0.0588634
0.0173
0.0052757
0.00284234
0.0139068
0.00266891
0.00193837
0.0255111
0.00381112
0.0149137
0.0073483
0.00220279
0.00178862
0.00698292
0.0129015
0.0220312
0.0155361
0.0745582
0.00188951
0.000885923
0.00203098
0.0185953
0.0100124
0.00204588
0.0562567
0.00194823
0.00292571
0.00249062
0.028802
0.00458158
0.00143245
0.0705438
0.00142365
0.0178709
0.00891721
0.0190625
0.00488557
0.00612383
0.00179299
0.0018377
0.00228601
0.00127428
0.0155554
0.0107218
0.00156623
0.00143834
0.00708789
0.00215793
0.00948653
0.00134816
0.00140188
0.00127075
0.0133578
0.00215643
0.00154912
0.00121612
0.0133121
0.00942766
0.00187935
0.00114335
0.0240779
0.0643813
0.000998684
0.0156531
0.0103995
0.000971131
0.00208454
0.0730344
0.0011616
0.00101501
0.00169213
0.00101571
0.00105233
0.00102452
0.000832017
0.000801626
0.00103211
0.00102084
0.00077404
0.000740756
0.000966744
0.00076551
0.00842032
0.00129811
0.0077766
0.021483
0.000774884
0.0155772
0.00104726
0.0174159
0.0506384
0.000946727
0.000793883
0.00123003
0.000775703
0.000887315
0.0164973
0.000749802
0.000877703
0.000582535
0.019097
0.0130214
0.000969897
0.013501
0.000457451
0.000207
0.000279155
0.0017855
0.0124039
0.0280019
0.099192
0.0337329
0.000929282
0.0533562
0.0044305
0.04041
0.07055
0.001405
0.0151025
0.0183811
0.0848855
0.0390365
0.0612034
0.06515
0.0036705
0.0407935
0.013602
0.0442555
0.037867
0.019787
0.0035605
0.0103835
0.0226135
0.054297
0.0695755
0.0573555
0.0550905
0.043232
0.0629285
0.0391655
0.040397
0.045235
0.0602105
0.109643
0.026275
0.08282
0.0490885
0.0157335
0.160622
0.0316685
0.0584735
0.000460883
0.05491
0.00099713
0.000574494
0.0112362
0.0209755
0.012837
0.0495385
0.0622185
0.048067
0.0146885
0.000260001
0.02157
0.0063955
0.0239605
0.0808935
0.047112
0.0734055
0.026097
0.070667
0.0464305
0.033342
0.019562
0.0167819
0.033917
0.0546205
0.0144255
0.0197055
0.000232909
0.0557905
0.0783955
0.039005
0.0458705
0.0518655
0.0025735
0.0787235
0.0233305
0.00567686
0.000497031
0.011977
0.0373285
0.0050635
0.042087
0.04565
0.083332
0.0517235
0.0292407
0.014548
0.035893
0.0688235
0.01732
0.0751405
0.004767
0.0491655
0.0409905
0.013457
0.0239385
0.060762
0.0161755
0.0528835
0.023372
0.00044916
0.0596752
0.070407
0.0790405
0.0414305
0.0604285
0.0089705
0.0276705
0.074022
0.0111131
0.052103
0.061292
0.04511
0.0485905
0.0205705
0.0372255
0.063737
0.026542
0.0437485
0.000359009
0.040312
0.000468978
0.0158368
0.059565
0.032907
0.042865
0.0152185
0.037232
0.0402005
0.0205035
0.0634385
0.0045205
0.027874
0.00636554
0.012695
0.061187
0.0477705
9.3093e-05
0.035915
0.00485816
2.4886e-05
0.013007
0.0416955
0.02939
0.0555285
0.0674505
0.0119785
0.00131764
0.014337
0.0283705
0.0010135
0.01855
0.0579235
0.059717
0.0227435
0.061727
0.0184385
0.021212
0.0073285
0.0707385
0.020067
0.0193085
0.0345455
0.028187
0.052432
0.0694255
0.019172
0.01239
0.0486505
0.05705
0.00532515
0.000408909
0.0014755
0.06479
0.0558615
0.050112
0.0682135
0.0054135
0.100595
0.0690905
0.055292
0.0706135
0.0378335
0.0695505
0.0463235
0.0106455
0.0701305
0.0379035
0.0419485
0.057062
0.0316535
0.027482
0.0630005
0.0114305
0.007937
0.0674935
0.0269935
0.04791
0.070062
0.0495135
0.0388335
0.0230385
0.0087205
0.03012
0.0348155
0.0095435
0.02063
0.0262085
0.0329285
0.0012482
0.0368955
0.0161135
0.007425
0.0313105
0.0437185
0.030627
0.027267
0.0011955
0.0459185
0.0526505
0.002642
0.013822
0.0227455
0.000195036
0.0343705
0.03642
0.052087
0.0008135
0.0159305
0.005472
0.0463135
0.0547985
0.0373485
0.0519785
0.0507005
0.027905
0.0304472
0.0206135
0.0561585
0.0031455
0.0212955
0.00238044
0.0323898
0.0088255
0.005823
7.35e-05
0.0502835
0.0482135
0.02308
0.0077955
0.0278785
0.0699935
0.0022885
0.04065
0.0077035
0.052337
0.0328005
0.041142
0.000208469
0.119633
0.0233355
0.0314735
0.0306785
0.029052
0.0142835
0.00017
0.0234985
0.0383285
0.029852
3.2e-05
0.0509255
0.0207705
0.0423435
0.047082
0.0210255
0.0480235
0.013792
0.022377
0.059272
0.0273185
0.026032
0.0523435
0.0137035
0.05182
0.006807
0.0379055
0.0220485
0.0453285
0.062887
0.001687
0.0678105
0.013257
0.0420285
0.0415835
0.0552835
0.0306635
0.0428885
0.0305955
0.0123685
0.0303285
0.0177385
0.047895
0.0294535
0.053532
0.0272306
0.0556655
0.0580985
0.0107755
0.0805205
0.0523935
0.0613505
0.0459135
0.0429735
0.0042885
0.0022655
0.0233105
0.0398935
0.011187
0.030502
0.010165
0.0156985
0.0047355
0.017517
0.0307655
0.026762
0.0550655
0.0060505
0.0272435
0.050402
0.0236205
0.026922
0.0520655
0.0389735
0.0327035
0.060397
0.0361784
0.002562
0.0083235
0.010832
0.01343
0.0115855
0.0163035
0.0088089
0.040345
0.020612
0.04291
0.03862
0.0051555
0.03722
0.0386405
0.0149855
0.05745
0.055112
0.018767
0.0434105
0.019647
0.049157
0.0334105
0.033945
0.048297
0.0521355
0.0366755
0.0075655
0.0112585
0.0207885
0.038457
0.0456905
0.034692
0.017332
0.037125
0.021782
0.0334085
0.012875
0.0193885
0.0273655
0.040907
0.0444685
0.0507135
0.046367
0.0098505
0.0412755
0.023652
0.0163985
0.048335
0.0559505
0.0033985
0.055052
8.62139e-06
0.0128785
0.0254435
0.0243885
0.0266005
0.00184985
0.0142255
0.0598235
0.0249855
0.0618005
0.040292
0.0448805
0.0298785
0.0243985
0.0371785
0.009507
0.033487
0.02502
0.026072
0.039462
0.0527705
0.0103555
0.0127859
0.014752
0.000310146
0.01101
0.040667
0.035252
0.0228435
0.0021285
0.01135
0.0317305
0.0281685
0.0256555
0.0467455
0.0176255
0.032047
0.0111455
0.0102535
0.02673
0.000955493
0.0448205
0.0232856
0.00874565
0.0278455
0.007202
0.10012
0.0409505
0.0217485
0.0174385
0.0267869
0.012017
0.0068205
0.0437285
0.0414205
0.0072785
0.011687
)


// ************************************************************************* //
