/*--------------------------------*- C++ -*----------------------------------*\
  =========                 |
  \\      /  F ield         | OpenFOAM: The Open Source CFD Toolbox
   \\    /   O peration     | Website:  https://openfoam.org
    \\  /    A nd           | Version:  7
     \\/     M anipulation  |
\*---------------------------------------------------------------------------*/
FoamFile
{
    version     2.0;
    format      ascii;
    class       vectorField;
    location    "0.7/lagrangian/reactingCloud1";
    object      U;
}
// * * * * * * * * * * * * * * * * * * * * * * * * * * * * * * * * * * * * * //


2438
(
(75.9967 17.6173 0)
(88.6187 17.4373 0)
(135.686 6.60234 0)
(136.367 11.211 0)
(138.176 4.90962 0)
(139.307 4.33681 0)
(141.712 11.7796 0)
(144.091 15.345 0)
(145.531 12.0527 0)
(144.16 5.01248 0)
(148.487 11.5202 0)
(150.629 10.5642 0)
(149.061 7.06422 0)
(149.996 6.34871 0)
(149.986 5.12645 0)
(151.22 5.1046 0)
(149.683 2.94924 0)
(153.158 4.3627 0)
(152.879 3.67076 0)
(151.652 2.57156 0)
(154.994 -12.2567 0)
(151.126 0.830964 0)
(152.421 1.72226 0)
(152.523 1.42003 0)
(152.021 0.698799 0)
(153.735 1.22849 0)
(154.268 0.836921 0)
(105.024 -1.52685 0)
(154.52 0.345554 0)
(154.269 0.402492 0)
(153.662 0.629497 0)
(154.222 -0.130006 0)
(153.644 0.43577 0)
(153.997 -0.0921284 0)
(153.816 0.128931 0)
(153.54 0.289795 0)
(153.596 0.218098 0)
(153.674 0.0583666 0)
(153.639 0.0226418 0)
(153.438 0.0465264 0)
(153.555 0.112728 0)
(153.559 -0.159971 0)
(153.531 -0.274042 0)
(-0.808796 1.5677 0)
(-5.19325 1.3244 0)
(89.3211 -16.4522 0)
(133.423 -24.6444 0)
(138.273 -20.991 0)
(110.169 -22.7793 0)
(112.81 -22.8356 0)
(140.453 -12.3714 0)
(126.202 -18.9621 0)
(118.757 -19.3979 0)
(109.883 -18.217 0)
(98.2866 -15.1182 0)
(118.946 -15.5366 0)
(115.563 -15.129 0)
(109.938 -14.1698 0)
(129.081 -5.74828 0)
(118.504 -11.1254 0)
(106.886 -11.2475 0)
(113.168 -10.3998 0)
(110.444 -9.56105 0)
(82.3156 -1.75546 0)
(75.3962 -0.735664 0)
(112.41 -7.05189 0)
(117.318 -5.46238 0)
(115.743 -5.20062 0)
(108.188 -4.59957 0)
(97.4639 -1.77035 0)
(111.921 -3.73016 0)
(119.362 -1.75954 0)
(106.582 -0.318976 0)
(118.691 -1.74626 0)
(106.287 0.644552 0)
(113.868 -1.12866 0)
(115.486 -0.885448 0)
(107.708 2.29086 0)
(111.499 1.02664 0)
(110.69 1.93633 0)
(115.268 0.824489 0)
(114.098 1.59751 0)
(116.113 1.5499 0)
(109.489 4.65046 0)
(116.811 2.69985 0)
(112.516 4.88524 0)
(120.066 2.08533 0)
(117.254 4.95945 0)
(105.077 6.71992 0)
(121.256 4.01909 0)
(116.607 7.31003 0)
(116.313 8.30637 0)
(122.141 6.06625 0)
(106.05 7.07731 0)
(99.2489 10.3089 0)
(102.263 11.3189 0)
(117.892 11.651 0)
(102.259 13.2879 0)
(122.788 12.2407 0)
(113.576 16.8064 0)
(59.685 17.3341 0)
(127.335 14.3715 0)
(125.643 18.9406 0)
(133.762 9.32524 0)
(265.513 -39.3344 0)
(257.855 -47.4335 0)
(260.318 -32.4281 0)
(239.525 -25.7824 0)
(233.567 -40.7493 0)
(200.047 -56.6867 0)
(190.728 -59.7558 0)
(217.88 -41.8815 0)
(216.764 -33.2735 0)
(194.05 -37.6932 0)
(183.8 -37.5612 0)
(182.915 -34.829 0)
(187.621 -12.2965 0)
(167.923 -35.9279 0)
(178.758 -16.2793 0)
(163.035 -32.3422 0)
(162.062 -20.6331 0)
(152.171 -28.8343 0)
(113.758 -31.7812 0)
(151.974 -23.6536 0)
(151.636 -17.893 0)
(152.964 -12.9005 0)
(145.351 -24.1392 0)
(388.129 -6.25592 0)
(404.939 -0.360835 0)
(386.976 -3.21482 0)
(392.963 -13.8774 0)
(379.282 -20.6508 0)
(376.523 -4.88986 0)
(372.68 -7.00024 0)
(367.974 -15.2264 0)
(360.817 -5.3969 0)
(364.612 -10.565 0)
(354.548 -4.9692 0)
(340.978 -7.88461 0)
(337.525 -6.58867 0)
(331.741 -10.5444 0)
(321.434 -10.7678 0)
(439.986 4.21163 0)
(442.542 1.3758 0)
(421.173 -4.05881 0)
(435.831 0.372102 0)
(437.908 0.715806 0)
(435.235 0.949924 0)
(435.225 0.201564 0)
(386.984 -10.6639 0)
(376.824 6.89261 0)
(429.047 0.852451 0)
(428.715 2.42584 0)
(436.63 -1.4881 0)
(426.804 1.5957 0)
(423.48 1.04886 0)
(415.6 0.531095 0)
(413.576 0.116039 0)
(420.519 -14.0893 0)
(425.356 3.26449 0)
(435.104 -1.25631 0)
(389.153 3.25299 0)
(442.922 -0.0450762 0)
(439.94 -1.93213 0)
(444.338 -6.20699 0)
(438.615 -0.531738 0)
(440.139 -0.944461 0)
(441.772 -0.0242968 0)
(441.725 0.0277585 0)
(437.801 -3.11652 0)
(440.47 0.574928 0)
(441.87 0.0512683 0)
(440.81 -0.176104 0)
(440.892 -0.355033 0)
(440.304 0.82441 0)
(443.458 -2.46371 0)
(415.085 -1.9295 0)
(443.497 -5.16198 0)
(382.514 24.9682 0)
(416.03 -0.478328 0)
(445.559 0.061503 0)
(388.479 -1.00849 0)
(419.903 2.68033 0)
(446.351 0.00331243 0)
(442.787 -6.60374 0)
(445.36 -0.771656 0)
(441.149 -0.799401 0)
(445.048 0.0512519 0)
(439.715 -3.52031 0)
(445.262 0.0394722 0)
(442.498 -0.0864609 0)
(446.747 -0.557373 0)
(444.469 0.0193095 0)
(442.005 -0.964954 0)
(398.921 -35.1741 0)
(442.268 -1.53253 0)
(444.623 -0.00135626 0)
(405.071 1.37565 0)
(416 5.97032 0)
(366.223 -1.4253 0)
(420.77 -0.991323 0)
(418.239 -2.29438 0)
(457.814 -8.66459 0)
(438.031 -0.528509 0)
(443.801 -0.0848993 0)
(419.966 -1.74765 0)
(443.402 -0.0441247 0)
(442.304 -2.50023 0)
(442.865 -0.074513 0)
(396.194 -0.59692 0)
(442.741 -6.16432 0)
(400.836 -5.77396 0)
(447.117 -8.19763 0)
(447.331 0.00731302 0)
(439.115 -0.591334 0)
(395.642 9.18281 0)
(433.284 2.49135 0)
(446.819 0.153931 0)
(427.851 -2.7739 0)
(446.753 0.662345 0)
(447.465 4.40554 0)
(447.017 0.0122477 0)
(447.57 0.00263217 0)
(446.943 0.0134073 0)
(456.231 -34.0206 0)
(452.173 -4.46699 0)
(446.918 0.0154345 0)
(446.738 -4.04806 0)
(368.945 15.0306 0)
(445.488 -1.27539 0)
(427.113 -5.35589 0)
(447.113 0.0125007 0)
(437.619 1.01785 0)
(397.228 -0.0221348 0)
(397.463 1.67059 0)
(447.107 0.0119833 0)
(445.01 -0.665809 0)
(447.2 0.00741238 0)
(436.717 -3.97789 0)
(442.05 2.83348 0)
(446.318 0.0407726 0)
(398.839 7.18565 0)
(448.971 3.28629 0)
(446.302 0.0409418 0)
(420.123 -1.3209 0)
(424.191 6.84796 0)
(446.912 0.00662338 0)
(452.486 2.74635 0)
(398.961 -5.71176 0)
(453.021 -4.53561 0)
(435.174 -14.9821 0)
(446.225 -1.18398 2.53906)
(446.549 -2.85001 0.0497472)
(447.747 -0.342178 0.00597274)
(452.51 0.0944535 -0.0880793)
(449.696 0.739386 0.913066)
(442.422 -1.80875 0.0315719)
(449.696 -0.626671 0.544757)
(447.878 0.00298611 0)
(420.308 0.685621 0)
(393.658 6.44951 0)
(417.539 -1.70046 0)
(447.621 1.99541 0)
(447.961 0.00207672 0)
(447.846 0.00315814 0)
(452.077 -1.02447 0)
(385.986 3.38553 0)
(447.746 0.00407779 0)
(452.986 0.455291 0)
(449.294 0.184066 0)
(414.377 0.170575 0)
(438.788 -0.124752 0)
(366.33 6.90314 0)
(422.977 -18.2364 0)
(456.322 -14.6909 0)
(433.73 -0.227995 0)
(449.835 -3.14863 0)
(387.028 5.86984 0)
(447.608 0.00520442 0)
(424.02 -1.73027 0)
(423.606 0.24325 0)
(447.772 0.00439893 0)
(446.42 -0.491791 0)
(445.451 2.04561 0)
(420.404 -0.140163 0)
(433.093 -2.93782 0)
(386.791 -1.38287 0)
(361.587 9.74642 0)
(443.69 -0.800449 0)
(447.284 -0.079389 0)
(422.735 0.752853 0)
(431.451 8.05803 0)
(445.705 2.59928 0)
(419.685 7.02002 0)
(413.21 3.73307 0)
(441.767 1.05914 0)
(445.897 2.64587 0)
(447.513 -0.0417636 0)
(444.431 1.39464 0)
(393.65 8.77681 0)
(434.84 -1.12616 0)
(447.459 -6.117 0)
(402.66 2.46759 0)
(365.105 15.5923 0)
(448.916 2.10747 0)
(445.99 -10.222 0)
(447.347 0.481335 0)
(447.385 0.00720807 0)
(435.854 4.59929 0)
(396.894 -0.359188 0)
(444.153 0.641747 0)
(434.677 -0.474609 0)
(436.873 2.26897 0)
(448.335 -0.0614185 0.03546)
(449.197 -1.55068 -0.0270672)
(453.701 -1.68986 -0.0294967)
(445.668 6.96454 0)
(448.068 -0.0353426 0.000616908)
(446.816 -0.217454 -0.00379567)
(447.546 -1.3333 -0.0232729)
(448.03 -0.249846 0.535796)
(448.123 -0.310581 -0.00542121)
(448.746 -5.57197 0.0972591)
(448.796 0.0273003 -0.781779)
(448.464 -0.985048 0.0171941)
(446.933 -0.922998 -2.17445)
(448.068 -0.552896 -0.00965083)
(449.244 -1.78249 -0.0934164)
(447.492 1.02107 -0.986038)
(441.346 0.12846 0.0273051)
(448.056 -0.0144227 -0.000251748)
(396.117 -2.17807 0)
(392.555 0.60151 0)
(390.4 6.85024 0)
(424.013 2.55832 0)
(416.664 -0.454215 0)
(415.94 -1.67516 0)
(419.786 -4.17598 0)
(423.418 10.8487 0)
(442.873 0.171202 0)
(355.209 2.79061 0)
(400.796 1.93762 0)
(390.153 0.367427 0)
(398.513 0.608305 0)
(389.312 -0.675343 0)
(445.241 4.89431 0)
(422.648 0.419242 0)
(452.222 3.07191 0)
(422.943 2.10712 0)
(422.21 -0.471869 0)
(426.082 -6.45704 0)
(447.724 0.00599411 0)
(384.457 -2.18255 0)
(404.888 -2.18744 0)
(422.064 0.268142 0)
(402.887 -2.43385 0)
(314.241 0.830904 0)
(422.88 -0.979639 0)
(449.32 -3.09524 0.0540275)
(421.377 0.0850013 0)
(445.564 -4.9227 0)
(399.967 6.7948 0)
(412.506 4.39138 0)
(439.727 3.22972 0)
(396.454 12.0714 0)
(447.893 0.337803 0)
(446.785 2.20919 0)
(445.643 -13.977 0)
(418.6 0.3216 0)
(447.763 -1.19744 0)
(451.571 -9.79713 0)
(426.833 0.0644847 0)
(447.561 -0.0306603 0)
(445.989 -2.19037 0)
(398.554 -2.37311 0)
(408.688 6.22752 0)
(437.755 0.197361 0)
(422.177 3.6246 0)
(399.844 10.6389 0)
(389.215 -1.89409 0)
(413.711 0.750795 0)
(440.219 0.332181 0)
(342.084 -10.9696 0)
(432.6 -0.305651 0)
(426.076 -4.83836 0)
(439.692 -3.20922 0)
(442.623 -2.31752 0)
(434.245 3.65222 0)
(447.198 -1.37001 0)
(368.265 -6.40043 0)
(402.055 -0.694639 0)
(449.154 1.13333 0)
(448.386 -0.651717 0)
(447.969 0.00177973 0)
(446.283 0.971866 0)
(425.131 -2.20105 0)
(390.492 0.491529 0)
(403.212 0.420182 0)
(440.775 6.7178 0)
(383.127 8.80527 0)
(446.251 0.937102 0)
(429.394 1.8148 0)
(445.003 2.28769 0)
(405.576 0.137114 0)
(397.739 -0.950608 0)
(398.892 5.10108 0)
(408.72 0.276618 0)
(410.195 -3.73508 0)
(447.548 -0.148263 0)
(419.815 1.39099 0)
(447.339 -0.136926 0)
(452.476 -0.216831 -2.06301)
(446.166 -0.581806 1.903)
(448.268 0.12858 0.556942)
(448.719 -0.00712513 -0.00764077)
(445.801 -1.77365 0.0309592)
(448.684 -1.60606 0.0280338)
(449.585 -0.776931 0.0135614)
(449.348 -0.470958 -0.100105)
(448.644 -0.651658 0.0113747)
(452.081 -0.369557 -0.00645064)
(448.656 -0.806466 -0.0140769)
(448.087 -0.00209894 -0.00363548)
(447.988 -0.00372213 -0.0018154)
(447.324 -1.37686 -0.0240332)
(447.049 0.669228 0.204604)
(447.076 -0.95097 -0.0165992)
(448.706 2.15552e-11 -0.211686)
(453.068 -3.03689 -0.0530091)
(448.323 -0.258752 0.448172)
(445.675 -2.71382 0.0473699)
(444.217 -0.499684 0.482539)
(447.927 -0.0178981 0.000312413)
(448.925 -0.660781 0.011534)
(447.669 -0.139718 -0.521434)
(449.236 -2.81194 0.0490826)
(446.054 2.21514 -6.43322)
(448.049 -1.12254 -0.019594)
(450.669 -1.82385 2.51031)
(446.902 -1.93134 0.0337116)
(443.118 1.98065 -4.06094)
(450.408 1.55298 -0.474793)
(450.192 -0.400293 0.00698714)
(338.917 30.6428 0)
(323.649 13.2679 0)
(340.508 -9.16236 0)
(359.283 7.64089 0)
(375.78 1.07307 0)
(377.724 -0.908721 0)
(398.42 -1.00342 0)
(427.815 -6.78892 0)
(412.024 1.10671 0)
(423.868 -0.556884 0)
(360.301 -2.58853 0)
(443.073 -12.4442 0)
(439.188 -1.70986 0)
(445.594 -1.24513 0)
(412.872 -1.78109 0)
(450.654 -2.21342 0)
(327.095 4.03569 0)
(392.203 2.05695 0)
(405.494 1.46715 0)
(410.34 3.80357 0)
(395.49 -0.447721 0)
(377.509 4.09983 0)
(439.559 2.2994 0)
(390.527 -1.29676 0)
(420.289 -9.57233 0)
(431.329 2.02939 0)
(411.649 0.183328 0)
(402.1 3.22534 0)
(442.818 -2.96993 0)
(427.156 1.21068 0)
(370.938 3.43157 0)
(422.111 1.11648 0)
(405.889 -20.3581 0)
(423.491 0.387926 0)
(338.466 -0.809077 0)
(422.016 4.84878 0)
(438.308 1.31139 0)
(385.679 -4.77014 0)
(361.888 3.43282 0)
(438.762 7.06293 0)
(416.411 -0.240442 0)
(374.983 6.01441 0)
(422.324 0.350254 0)
(415.841 -6.3937 0)
(422.455 0.312826 0)
(439.099 -4.2081 0)
(431.96 -11.1376 0)
(435.204 -0.690575 0)
(431.492 -4.45254 0)
(403.144 -4.09013 0)
(442.844 3.13704 0)
(389.335 0.267531 0)
(419.931 -0.913799 0)
(417.591 -2.16991 0)
(431.645 -0.34322 0)
(407.895 6.20577 0)
(383.487 -1.20664 0)
(422.732 2.46879 0)
(421.502 -5.32698 0)
(439.914 0.68761 0)
(423.055 0.602589 0)
(409.149 5.70327 0)
(423.259 -12.6892 0)
(445.262 0.028354 0)
(383.457 -4.42282 0)
(442.567 -1.76354 0)
(342.706 -2.46575 0)
(388.119 0.369336 0)
(390.484 -0.627099 0)
(429.797 0.382048 0)
(418.524 4.64378 0)
(431.584 -1.14595 0)
(403.235 4.82338 0)
(396.118 -0.556282 0)
(440.774 -1.68255 0)
(445.825 -4.67688 0)
(435.704 -8.43495 0)
(346.015 6.51159 0)
(440.891 -2.8584 0.0498935)
(418.564 2.00866 -1.45938)
(410.571 -0.340157 -0.0785315)
(430.981 -1.45621 0.0254183)
(417.963 -4.48589 0.0783015)
(427.57 1.99724 -0.535158)
(404.839 -4.33289 -0.0756308)
(433.582 -2.99762 0.0523237)
(412.144 -0.180775 -1.14137)
(434.931 -4.98927 0.790223)
(412.232 -2.23787 0.516652)
(446.072 -0.0148569 0.000259329)
(446.353 -0.284731 -0.00497)
(429.369 -7.63781 0.400281)
(442.699 -2.40947 0.0420575)
(419.674 -1.25877 -0.0219718)
(443.414 -1.89187 -0.0330227)
(442.767 -0.561361 -0.00979859)
(400.384 7.89563 -2.71868)
(439.637 -2.20186 0.0384336)
(445.58 -0.0353499 -0.000617034)
(413.773 1.70003 0.0593664)
(408.164 -1.59333 0.0278117)
(413.923 -1.4417 0.332844)
(420.313 -1.25073 -0.0218316)
(444.509 -2.79694 -0.0488207)
(399.359 -8.42733 -1.9456)
(415.241 -0.263517 -0.0045997)
(447.05 0.556015 -0.191451)
(447.118 -2.59848 -0.599905)
(447.654 -0.580394 -0.0101308)
(423.083 8.51076 -3.78923)
(412.301 -18.463 0.322273)
(393.987 1.18499 0.0621026)
(430.492 -2.08352 -0.0363679)
(411.466 -13.3803 0.233553)
(433.328 -8.36455 -0.146004)
(449.095 -0.236181 0.00412255)
(421.622 -3.19843 0.0558289)
(445.5 -1.49213 0.0260451)
(431.888 -1.20463 -1.65803)
(432.102 1.06549 -3.09442)
(419.545 -0.183552 -0.00320391)
(414.091 -0.900701 0.0157218)
(445.964 -0.117118 -0.0760576)
(414.015 -1.66177 0.0290063)
(418.639 -2.40257 0.0419371)
(451.726 -1.38021 0.0240917)
(417.6 17.3293 -4.64337)
(445.904 -0.319804 0.0679765)
(448.868 -1.49351 -0.0260693)
(414.927 -1.63776 -0.0285872)
(444.669 0.831042 0.370004)
(448.303 -1.29796 -0.022656)
(436.187 -1.8903 0.0329953)
(447.355 -0.726425 0.0126798)
(446.414 -0.870677 0.0151977)
(419.044 -0.580956 -0.0101406)
(449.527 -6.60007 0.115205)
(422.723 4.93716 -2.96655)
(400.794 -6.13748 -0.10713)
(413.316 -2.24078 0.476292)
(388.41 -4.54677 -0.0793642)
(444.578 1.48505 0.927963)
(442.611 -0.805506 -0.0140602)
(448.216 -0.453338 0.104661)
(409.473 -0.237875 0.00415213)
(455.879 -12.5515 0.219087)
(283.152 11.949 0)
(451.393 0.789419 0.241349)
(316.791 -0.997133 0)
(348.397 -5.61377 0)
(338.074 -3.23389 0)
(348.036 -0.506294 0)
(285.456 2.57698 0)
(374.566 -0.395259 0)
(373.323 -0.393495 0)
(364.597 0.312015 0)
(379.239 -0.215496 0)
(443.359 -3.74699 -0.86506)
(291.03 30.3667 0)
(375.886 -11.2668 0)
(387.625 -1.08236 0)
(323.334 -1.4039 0)
(358.555 5.69354 0)
(447.831 -0.331232 0.00578168)
(390.496 -5.2594 0)
(365.209 -1.00648 0)
(393.607 3.46924 0)
(328.921 4.34123 0)
(390.807 2.54306 0)
(401.68 0.39793 0)
(386.566 -0.227057 0)
(362.517 17.6977 0)
(411.915 -0.253487 0)
(400.749 -0.41923 0)
(410.835 -8.04974 0)
(389.942 0.187162 0)
(391.831 -0.380486 0)
(408.161 -0.525216 0)
(392.243 -2.44928 0)
(363.656 14.4688 0)
(381.182 -0.0593506 0)
(354.123 0.678367 0)
(386.406 4.41745 0)
(355.118 -1.93215 0)
(447.571 -3.34579 0.71117)
(396.475 7.21362 0)
(351.697 -4.40353 0)
(348.356 7.92815 0)
(332.492 -7.9949 0)
(397.417 3.66751 0)
(361.079 1.38538 0)
(447.875 0.0565779 0.266178)
(397.246 1.06418 0)
(405.26 2.86633 0)
(415.204 7.58438 0)
(397.691 0.679905 0)
(316.181 0.899307 0)
(371.103 2.39416 0)
(412.816 -0.593517 0)
(425.246 -5.647 0)
(407.08 0.206985 0)
(373.929 -15.9034 0)
(366.949 8.03155 0)
(369.38 1.71831 0)
(409.862 -5.45596 0)
(401.587 -20.6482 0)
(324.847 1.33938 0)
(413.827 -4.23069 0)
(348.258 2.51032 0)
(389.413 -7.61747 0)
(394.866 5.57236 0)
(424.135 -12.4414 0)
(424.108 11.2897 0)
(364.965 0.629781 0)
(424.197 -2.09843 0)
(430.769 -1.64343 0)
(381.36 1.626 0)
(340.696 -27.1577 0)
(417.224 1.19765 0)
(409.376 13.2637 0)
(440.293 0.291913 0)
(381.867 4.95199 0)
(315.605 17.1855 0)
(446.624 -7.59181 0)
(423.341 -4.66002 0)
(406.571 2.21848 0)
(416.343 1.38788 0)
(415.367 -6.1445 0)
(412.247 1.5639 0)
(353.158 30.4345 0)
(416.615 3.92265 0)
(372.947 -0.121823 0)
(357.137 2.8385 0)
(303.158 -4.3438 0)
(438.635 -5.24576 0)
(413.929 3.93892 0)
(411.896 8.01524 0)
(400.202 11.2583 0)
(321.827 9.18653 0)
(423.637 1.16295 0)
(422.838 -21.5574 0)
(447.32 -1.45952 0)
(335.169 2.60857 0)
(384.028 -1.56743 0)
(402.232 2.0271 0)
(415.029 -10.3631 0)
(389.289 -13.9177 0)
(418.445 -5.88032 0)
(422.458 8.01588 0)
(423.502 -9.64988 0)
(430.5 -12.7251 0)
(330.668 8.86964 0)
(392.806 1.88973 0)
(379.512 1.07637 0)
(440.482 0.560854 0)
(423.902 3.16512 0)
(395.442 14.3453 0)
(332.612 6.92736 0)
(281.973 -0.352404 0)
(392.324 3.28331 0)
(446.889 -0.845727 0)
(408.367 -2.20705 0)
(421.497 2.25349 0)
(395.609 6.05938 0)
(394.272 -1.42505 0)
(412.869 6.64684 0)
(377.017 0.220739 0)
(385.695 -2.9864 0)
(407.576 0.0754632 0)
(338.263 5.69759 0)
(415.218 2.33191 0)
(378.383 4.98712 0)
(428.219 -2.16398 0)
(329.855 1.04508 0)
(420.696 -0.94379 0)
(420.511 -2.79192 0)
(401.102 -0.00369352 0)
(378.946 4.91498 0)
(374.879 6.322 -2.17684)
(381.292 1.73764 -8.17494)
(384.627 -2.40603 -0.0419974)
(376.423 -2.94471 0.0514001)
(354.079 7.18428 -7.97895)
(386.226 -9.52906 23.5853)
(340.798 -0.566734 0.00989238)
(384.3 3.14265 6.73944)
(370.296 -6.89556 1.59197)
(361.555 -10.1134 0.17653)
(392.061 -4.83803 -0.0844481)
(392.451 -5.65589 0.0987239)
(397.772 -3.03575 -0.0529893)
(360.785 3.31455 -3.68118)
(376.693 -1.69574 -0.0295992)
(368.191 -9.81428 -0.171309)
(375.443 -17.4935 -0.305351)
(368.115 -4.60562 -0.0803914)
(362.026 -1.29579 0.94145)
(363.578 -1.6325 -0.0284953)
(389.964 -10.8066 -0.18863)
(346.219 -12.4148 0.216701)
(361.603 -8.9823 1.90925)
(363.507 -6.26587 -0.109371)
(394.458 -7.8898 0.137717)
(369.712 -1.3809 -0.0241037)
(380.131 0.0420973 -0.216572)
(374.902 -0.272816 0.436597)
(386.178 -0.116863 -3.34651)
(385.279 -2.58447 -0.045112)
(387.477 0.560874 1.6289)
(344.426 -3.13685 -0.054754)
(366.504 -0.497122 -2.33878)
(372.166 -1.57397 0.668112)
(351.847 -6.3948 9.84713)
(352.488 -11.7549 -2.49858)
(361.113 -0.69277 0.147253)
(366.028 -0.702629 0.808282)
(377.324 -3.20006 -2.50016)
(378.081 7.97476 0)
(371.155 -1.16481 0.0203319)
(370.948 -1.89301 0.437035)
(388.865 -12.0436 -0.210222)
(361.9 -1.81642 -0.0317058)
(374.551 -2.194 10.3219)
(363.077 -1.53426 -2.65742)
(362.708 -1.10464 1.91329)
(359.468 -2.74995 0.0480006)
(375.854 -0.44452 0.0624732)
(385.121 0.198217 -1.41038)
(396.401 -5.32204 0.0928966)
(375.234 -0.992956 -0.0173321)
(368.88 -1.1852 0.0206878)
(385.516 -3.28634 -0.698534)
(383.566 -2.84761 0.0497051)
(397.378 -2.23194 -0.0389586)
(394.335 0.905217 0.657678)
(391.233 -1.95781 0.0341737)
(380.436 -5.72906 9.16841)
(365.834 -1.03495 -0.0180651)
(346.672 -9.01255 1.91568)
(362.207 -0.814379 -0.014215)
(375.372 -31.3618 -15.2962)
(352.949 -3.07561 4.922)
(364.531 -3.71328 -0.0648156)
(364.263 -4.47877 -0.0781773)
(371.099 -3.21302 0.0560835)
(382.225 -0.886613 0.0154759)
(364.552 -19.528 -0.340863)
(373.903 -4.88293 0.0852319)
(388.658 -0.466004 -0.217301)
(386.372 8.57533 -4.75338)
(364.649 -0.100602 -5.76347)
(372.872 -13.3983 -15.4129)
(392.44 -1.79661 -0.995879)
(358.703 -0.679515 0.011861)
(365.957 1.91521 9.01037)
(383.415 -9.10242 -0.158883)
(400.033 -1.29796 0.275889)
(391.337 -1.18825 0.020741)
(367.176 -0.178383 -0.205206)
(377.342 11.1801 -1.12317e-09)
(350.908 -14.3905 -0.251187)
(374.812 -0.341743 2.15768)
(360.299 -0.315441 0.546359)
(428.74 10.0283 -0.525562)
(360.231 -0.260651 14.9327)
(385.944 -1.91317 0.0333945)
(365.05 -8.42342 0.147031)
(365.548 2.60944 -13.4244)
(399.855 0.779101 -4.4185)
(389.522 -2.66794 0.567088)
(371.729 2.13672 2.54644)
(387.615 -1.67279 0.0291987)
(362.291 -2.13427 -0.0372539)
(338.127 -16.5685 -0.289205)
(373.426 -3.30135 1.98365)
(408.675 4.84973 3.52353)
(373.031 1.59333 8.19699)
(374.12 -4.00093 -0.0698364)
(362.038 -1.21614 0.0212278)
(381.432 -1.65897 -15.784)
(378.991 -27.0389 0.471967)
(389.581 1.96996 -11.1722)
(376.062 -2.14811 -0.301898)
(400.173 -3.20979 -5.55952)
(375.875 8.15698 -3.63172)
(365.082 -4.36948 1.00877)
(381.287 -11.7314 0.204772)
(388.243 -11.8654 0.207111)
(379.004 -15.9538 0.278474)
(397.199 -3.20612 -0.055963)
(375.216 0.778241 -4.0037)
(391.389 0.68581 2.11071)
(367.325 -1.63359 -0.34723)
(402.329 -8.33367 -0.145465)
(371.185 -0.461928 0.106645)
(398.666 -4.86463 0.0849124)
(373.006 -9.42668 -0.164543)
(390.843 -4.6107 -0.08048)
(393.68 -0.0129785 0.743537)
(406.432 -1.87207 0.0326772)
(359.109 -6.22811 0.108712)
(362.53 -2.7347 -0.631356)
(386.223 -17.0029 -0.296787)
(377.525 -5.99963 -0.104724)
(378.668 -0.22497 -12.8885)
(377.513 -2.15784 -0.0376652)
(378 -10.0375 -0.175206)
(375.06 -4.74417 -0.0828097)
(370.962 -0.0220758 0.00509659)
(410.039 -9.59701 -0.167516)
(356.021 -2.21018 0.0385788)
(395.064 0.238739 -0.734763)
(375.438 -9.20288 0.160637)
(403.881 0.490536 -0.122304)
(369.529 -0.638139 -3.00221)
(384.579 -1.3808 0.0241019)
(402.821 -0.0432829 0.411809)
(352.544 -12.1516 -0.212107)
(401.326 2.4227 -12.4637)
(356.944 -1.49852 9.46129)
(405.856 -26.9325 -0.470108)
(404.801 -1.61555 -0.0281995)
(367.428 1.13065 0.281904)
(386.827 -2.3955 0.0418135)
(416.559 0.718374 -4.0741)
(408.627 4.86062 2.69429)
(392.989 -9.26251 -0.161678)
(365.921 0.0159487 0)
(404.4 -0.26624 0.00464724)
(403.936 -21.9647 -0.383395)
(384.157 0.39662 -0.440491)
(410.228 0.252037 0.775691)
(370.862 -4.62757 8.01519)
(378.795 11.1595 13.2994)
(377.813 -5.7423 9.94595)
(379.335 -7.76345 8.93083)
(370.273 0.938016 0.0655925)
(407.744 30.7839 8.24853)
(356.729 -16.7752 0.292813)
(394.751 -16.0005 -0.27929)
(393.269 -0.416405 0.00726838)
(409.374 -2.83053 0.0494071)
(401.504 -19.5155 14.1788)
(400.965 2.80153 2.03543)
(359.406 -7.75867 -0.135428)
(375.441 6.01122 -18.5006)
(374.691 -3.44502 -0.484166)
(391.773 -14.6437 -0.255607)
(365.51 -4.32817 0.0755484)
(380.295 -1.87773 -0.0327759)
(361.324 0.166786 0.0962937)
(366.332 -7.82826 -0.136643)
(378.19 -10.637 -0.185669)
(365.282 -29.0057 -0.506297)
(369.796 -6.0502 0.105607)
(408.264 -1.421 -0.0248036)
(353.511 -1.17522 0.0205135)
(422.809 -8.86567 6.44128)
(408.712 -1.50983 -0.0263542)
(354.324 -9.77786 0.170673)
(309.093 3.95915 0)
(264.915 16.222 0)
(393.238 -2.3655 0.0412899)
(380.408 -0.0284285 0.000496221)
(325.65 6.79446 0)
(327.608 9.3362 0)
(349.429 -0.384569 0)
(338.971 5.56656 0)
(335.129 -1.84996 0)
(352.558 2.14285 0)
(326.634 1.5329 0)
(368.048 11.0172 0)
(421.688 -5.62337 -0.0981563)
(357.404 -2.96487 0)
(353.484 2.90213 0)
(360.502 5.49184 0)
(256.661 21.7659 0)
(348.956 1.3794 0)
(361.465 -0.971012 0)
(352.592 3.09264 0)
(359.594 -0.12592 0)
(349.111 -0.253558 0)
(289.143 -2.52165 0)
(338.468 3.1233 0)
(375.185 0.88786 0)
(337.512 -2.43795 0)
(361.51 0.559941 0)
(310.756 16.0496 0)
(342.82 0.834125 0)
(350.091 -0.695742 0)
(379.464 -8.9083 -12.7224)
(337.709 -0.394238 0)
(361.954 -3.77292 0)
(352.832 0.94769 0)
(363.197 -0.74032 0)
(370.961 -4.23623 0)
(319.081 -0.339909 0)
(357.212 0.122711 0)
(332.129 2.09547 0)
(362.884 -3.89295 0)
(344.198 16.4923 0)
(372.14 -0.242788 0)
(359.186 -1.01167 0)
(347.221 0.788963 0)
(317.286 18.1638 0)
(367.245 -0.134891 0)
(344.766 -3.58504 0)
(406.278 1.97135 10.1417)
(339.081 -5.55412 0)
(343.451 3.07382 0)
(373.407 1.11585 0)
(341.275 -0.0524173 0)
(364.874 -2.24004 0)
(349.582 -2.63132 0)
(343.315 3.15289 0)
(309.403 58.9559 0)
(349.966 -4.31622 0)
(362.5 -0.211329 0)
(360.17 2.68752 0)
(323.977 16.3273 0)
(359.801 1.37243 0)
(363.391 0.639824 0)
(371.543 -6.84703 0)
(357.46 -4.15433 0)
(318.903 -10.2653 0)
(307.549 20.098 0)
(282.75 8.20625 0)
(319.15 6.67162 0)
(301.68 20.7395 0)
(375.444 -1.62549 0)
(368.417 -2.60885 0)
(355.706 -3.75872 0)
(375.688 0.116517 0)
(324.461 -3.87057 0)
(344.866 8.02671 0)
(373.289 -0.401971 0)
(360.431 0.795016 0)
(383.6 -14.6147 0)
(339.415 -2.08796 0)
(331.03 -5.58955 0)
(377.104 0.791958 0)
(363.139 6.44895 0)
(380.373 3.27088 0)
(278.745 -1.86984 0)
(341.032 8.01031 0)
(365.754 -0.497537 0)
(399.661 -15.5994 -7.2741)
(310.272 15.2 0)
(378.464 4.4058 0)
(369.563 -1.41343 0)
(375.622 -0.240976 0)
(378.814 -1.53456 0)
(367.193 -0.0130536 0)
(365.34 -2.17537 0)
(363.825 3.25418 0)
(402.411 -17.0205 0)
(381.486 10.5144 0)
(331.387 2.19861 0)
(387.584 -1.66514 0)
(392.593 -1.03951 0)
(340.256 0.687957 0)
(409.107 -0.173282 -0.428887)
(382.2 -0.141095 0)
(385.804 -0.937928 0)
(336.843 21.1538 0)
(347.343 0.0647473 0)
(344.825 5.46507 0)
(324.151 10.8849 0)
(370.567 -2.09579 0)
(369.204 0.347297 0)
(387.446 1.03071 0)
(342.591 -17.5807 0)
(346.042 5.56248 0)
(353.958 1.16062 0)
(352.267 -19.7025 0)
(323.652 -9.15286 0)
(374.462 8.90798 0)
(390.092 -0.254958 0)
(392.18 1.74555 0)
(368.562 4.68735 0)
(353.123 8.66588 0)
(359.821 -10.3858 0)
(380.415 -7.7824 0)
(342.056 9.06793 0)
(386.486 2.30081 0)
(303.265 21.2726 0)
(392.533 -12.8559 0)
(362.335 -0.727085 0)
(367.516 20.5745 0)
(332.755 6.35494 0)
(394.68 0.235342 0)
(397.186 -7.75108 0)
(369.905 4.75599 0)
(390.466 -0.343326 0)
(396.435 0.167242 0)
(325.31 7.82213 0)
(354.342 -18.0227 0)
(368.188 6.09843 0)
(409.882 -5.51073 0)
(345.201 -5.23975 0)
(406.009 1.04797 0)
(387.871 5.85099 0)
(330.951 0.492592 0)
(379.451 -3.1751 0)
(339.278 1.28343 0)
(338.667 -4.17083 -0.0728021)
(347.825 -3.44294 3.21059)
(345.857 -3.47398 -6.01712)
(354.835 -3.37652 0.0589373)
(331.577 -1.86654 -11.7848)
(347.986 1.82734 -10.3633)
(357.596 -1.09819 -10.4486)
(344.44 -0.871429 0.185228)
(325.794 6.04388 -2.56547)
(362.904 1.56654 -11.1465)
(348.033 -1.24619 0.0217524)
(341.695 -4.77525 -8.27098)
(332.367 -9.41263 -16.3031)
(342.017 -15.3194 0.267401)
(333.912 -2.9349 -0.0512288)
(345.027 -10.3995 0.181523)
(351.387 -1.79685 0.0313642)
(339.06 -8.9609 2.06879)
(351.47 -2.83892 0.0495535)
(346.45 3.10287 -0.659536)
(335.794 -1.00872 -0.232882)
(344.39 1.51495 -1.68252)
(352.173 -10.8483 -0.189358)
(326.662 -10.0666 0.175713)
(346.976 -13.9956 -0.244293)
(278.141 2.41141 -2.67814)
(351.973 0.10236 -0.0217574)
(347.499 -2.51721 1.89686)
(336.056 3.27742 -14.1961)
(341.863 -0.933618 0.0162964)
(340.101 -5.62998 -0.0982717)
(332.869 -1.6917 0.0886582)
(346.347 -4.27658 0.0746479)
(329.929 1.61524 -6.99639)
(352.886 -1.36748 -0.0238695)
(337.259 -3.10193 0.0541444)
(343.172 -20.7753 -0.362633)
(349.504 -0.22772 0.00397487)
(340.536 -5.43924 -0.0949422)
(353.665 0.560196 -1.14857)
(338.687 2.97255 -0.908799)
(335.46 -0.335008 -0.580251)
(337.477 0.338359 -0.375786)
(348.315 -1.04819 1.81552)
(366.129 -41.868 0.730809)
(353.907 2.30624 -2.56134)
(327.304 11.6995 12.9936)
(315.169 -2.23267 -0.47457)
(334.822 -0.427498 -0.740448)
(337.532 -0.113593 -1.08076)
(350.47 -0.272701 -0.00476002)
(358.235 12.0257 -2.55615)
(349.617 -1.25431 -0.021894)
(338.493 10.7528 -11.9422)
(353.454 -4.19573 0.0732368)
(334.851 -6.6998 1.54677)
(335.969 -5.07403 -0.0885676)
(368.352 -17.135 -3.64216)
(342.465 -0.783054 -0.900801)
(354.238 -8.54526 0.149158)
(323.125 -1.93852 3.35762)
(341.56 -0.053918 -0.000941142)
(364.354 -1.85707 -0.0324153)
(341.852 -9.1289 0.159345)
(327.926 -3.16167 0.0551872)
(352.209 -0.419776 -1.03898)
(371.143 -6.70839 0.117095)
(346.144 -2.50103 0.0436557)
(367.463 -2.09192 0.0365146)
(341.142 -1.31421 -0.0229395)
(348.293 0.0500507 0.0106386)
(340.249 1.97349 -8.54812)
(330.357 -2.35106 0.542784)
(339.938 5.06244 5.62241)
(339.25 -4.84662 0.084598)
(335.996 -2.57647 -0.547647)
(359.285 -8.67905 -0.151493)
(337.603 4.6332 1.50542)
(350.176 -9.19651 -0.160526)
(325.392 -7.08653 0.123696)
(349.177 -0.971164 -0.0508965)
(349.676 -7.63624 7.12091)
(343.141 -4.82607 -0.0842394)
(334.944 -2.83988 -0.655638)
(341.235 2.07929 2.30928)
(353.387 -3.38284 -0.118131)
(353.424 -0.582293 0.542997)
(350.023 -5.27188 0.092021)
(331.174 -3.02098 0.0527313)
(351.92 -2.08361 -1.57011)
(339.519 0.002414 0.0104562)
(339.754 0.733311 0.814424)
(341.785 -3.56425 6.17346)
(349.182 -3.97646 -0.0694094)
(351.073 -7.45449 0.130119)
(333.114 1.30993 6.73899)
(356.319 -0.923366 5.82991)
(322.885 2.27091 2.61238)
(354.6 -9.8545 0.172011)
(345.887 -0.678238 -1.17474)
(358.93 7.27841 8.37285)
(343.089 -0.111884 -0.00195294)
(337.416 0.108848 -0.120888)
(314.543 9.23089 10.2519)
(298.978 -16.3302 12.3057)
(341.295 3.79071 17.8339)
(340.125 -4.31545 -0.0753265)
(352.245 -1.56581 -0.361497)
(352.34 -4.23148 0.0738608)
(345.746 -1.40455 -1.30976)
(315.412 -8.20346 -14.2088)
(335.036 1.73391 -8.15739)
(346.496 -0.0218571 -0.00464587)
(335.603 -7.67185 13.288)
(325.952 -0.255379 -0.00445766)
(367.808 -3.04754 -5.27849)
(337.964 -0.401086 3.81608)
(330.167 12.0874 2.56926)
(352.654 1.87558 -5.44709)
(338.542 -4.18283 4.8118)
(338.867 9.08865 -3.12947)
(351.899 -0.0124885 0.000217988)
(340.892 1.29804 0.577926)
(337.158 -0.753553 -0.0131533)
(350.821 -2.4832 0.573291)
(379.281 -10.7866 0.188281)
(340.966 5.31533 -4.15279)
(358.689 -33.8228 0.590379)
(332.302 -9.30005 0.162333)
(348.763 -1.87207 -0.032677)
(371.06 -1.3935 -0.0243237)
(343.44 -14.5095 0.253265)
(357.789 -1.41405 1.06557)
(351.57 -6.8944 1.46545)
(341.302 -2.18033 0.463443)
(348.753 4.10197 -6.08142)
(342.622 -0.804114 -0.0140359)
(370.154 -5.00448 -3.77115)
(352.312 -0.363765 -0.0773206)
(328.288 -4.31362 7.4714)
(358.352 -10.48 -0.182929)
(323.182 8.49286 -1.80521)
(354.807 -1.72714 -0.0301473)
(354.993 -0.395776 -0.00690829)
(352.606 6.01996 6.68584)
(335.891 -11.3973 -0.198941)
(361.636 -6.34044 0.110673)
(349.608 -3.01499 0.0526268)
(338.424 -10.5163 0.183563)
(340.391 -1.10974 -0.0193706)
(348.26 -9.77655 -0.17065)
(334.685 -9.10389 -0.158909)
(356.048 -1.36902 -0.0238963)
(338.839 -3.52617 0.0615495)
(343.474 -3.90691 4.33906)
(354.014 -0.738071 -0.688263)
(331.78 -2.55124 12.0026)
(347.214 -16.6926 -0.29137)
(349.647 1.21327 6.24175)
(341.12 -0.592121 0.681157)
(337.001 3.07757 0.654158)
(357.742 -7.27691 0.127019)
(334.097 -1.01849 1.76407)
(350.388 -8.31764 -0.145185)
(354.197 -6.83842 -1.45355)
(347.76 -6.12945 1.30286)
(338.26 -2.4203 -0.0422465)
(346.659 -4.05575 -0.0707934)
(339.346 -1.51198 0.212495)
(326.749 -24.1238 0.421083)
(356.434 -0.142903 -0.00249438)
(351.529 -3.71086 6.42739)
(362.554 -0.995158 -0.749906)
(355.272 -3.89367 -0.0679643)
(361.881 2.23821 1.39859)
(373.609 -17.0755 0.298054)
(347.623 -3.45581 -0.0603215)
(331.785 1.33495 0.283752)
(351.029 0.305934 1.57389)
(341.485 -1.67563 0.0292482)
(346.462 -2.09105 -0.293878)
(353.552 -4.24666 3.31785)
(353.904 -4.20352 -0.0733726)
(330.937 4.71233 1.53113)