/*--------------------------------*- C++ -*----------------------------------*\
  =========                 |
  \\      /  F ield         | OpenFOAM: The Open Source CFD Toolbox
   \\    /   O peration     | Website:  https://openfoam.org
    \\  /    A nd           | Version:  7
     \\/     M anipulation  |
\*---------------------------------------------------------------------------*/
FoamFile
{
    version     2.0;
    format      ascii;
    class       vectorField;
    location    "0.7/lagrangian/reactingCloud1";
    object      UTurb;
}
// * * * * * * * * * * * * * * * * * * * * * * * * * * * * * * * * * * * * * //


2438
(
(-1.49407 2.17175 -0.984092)
(22.3328 7.78899 -3.24898)
(0 0 0)
(0 0 0)
(0 0 0)
(0 0 0)
(0 0 0)
(0 0 0)
(0 0 0)
(0 0 0)
(-2.43616 -8.11649 -5.48302)
(0 0 0)
(0 0 0)
(0 0 0)
(0 0 0)
(0 0 0)
(0 0 0)
(0 0 0)
(0 0 0)
(0 0 0)
(-1.68105 -13.2029 5.86076)
(0 0 0)
(0 0 0)
(0 0 0)
(0 0 0)
(0 0 0)
(0 0 0)
(1.94712 -1.3235 -4.58713)
(0 0 0)
(0 0 0)
(0 0 0)
(0 0 0)
(0 0 0)
(0 0 0)
(0 0 0)
(0 0 0)
(0 0 0)
(0 0 0)
(0 0 0)
(0 0 0)
(0 0 0)
(0 0 0)
(0 0 0)
(1.36872 0.437632 0.554774)
(6.73627 4.76149 -0.448262)
(-5.36252 6.81819 8.18024)
(0 0 0)
(0 0 0)
(0.157689 -0.0937609 -0.0525081)
(-0.0750796 -0.300695 1.38652)
(0 0 0)
(0 0 0)
(0 0 0)
(-0.0796039 -0.10247 0.0800405)
(-4.97421 -1.91355 0.301905)
(0 0 0)
(0 0 0)
(0 0 0)
(0 0 0)
(0 0 0)
(0 0 0)
(0 0 0)
(0 0 0)
(-3.2324 1.8581 0.0723468)
(-6.05476 -2.05032 -0.803196)
(0 0 0)
(0 0 0)
(0 0 0)
(0 0 0)
(-0.246724 -0.374584 0.0100875)
(0 0 0)
(0 0 0)
(0 0 0)
(0 0 0)
(0 0 0)
(0 0 0)
(0 0 0)
(0 0 0)
(0 0 0)
(0 0 0)
(0 0 0)
(0 0 0)
(0 0 0)
(0 0 0)
(0 0 0)
(0 0 0)
(0 0 0)
(0 0 0)
(0.284589 -0.0725297 -1.04202)
(0 0 0)
(0 0 0)
(0 0 0)
(0 0 0)
(-2.45482 -3.35305 -0.157276)
(-0.8161 -0.973404 0.23527)
(0.853214 -0.873611 2.51901)
(0 0 0)
(-0.821752 -0.512096 -0.59649)
(0 0 0)
(0 0 0)
(-1.70641 1.13239 -3.0032)
(0 0 0)
(0 0 0)
(0 0 0)
(-0.518486 0.13882 0.176584)
(-0.559782 1.13311 0.346034)
(0 0 0)
(0 0 0)
(0 0 0)
(0.460078 -0.953098 7.31808)
(2.39796 -6.84308 -2.84033)
(0 0 0)
(0 0 0)
(0 0 0)
(0 0 0)
(0 0 0)
(0 0 0)
(0 0 0)
(0 0 0)
(0 0 0)
(0 0 0)
(0 0 0)
(-1.78144 1.78633 3.47205)
(0 0 0)
(0 0 0)
(0 0 0)
(0 0 0)
(-1.49237 -5.56331 1.33811)
(0 0 0)
(0 0 0)
(4.24826 -9.50706 0.191915)
(-1.6625 -15.1732 0.710429)
(0 0 0)
(-2.06201 0.585753 -1.99096)
(-0.343349 -5.83006 -0.134079)
(0 0 0)
(7.32115 -2.29221 2.12684)
(0 0 0)
(0 0 0)
(0 0 0)
(-2.31319 3.37659 4.90679)
(0 0 0)
(2.85399 2.56117 -0.420848)
(5.22381 -0.11102 -1.35245)
(-6.87679 -6.0728 9.27645)
(-0.104961 -1.52681 3.15184)
(0 0 0)
(0 0 0)
(0 0 0)
(5.97549 -12.8018 2.83621)
(-3.92627 4.77757 -2.46292)
(0 0 0)
(0.278616 0.17664 -0.341527)
(9.06872 -3.92883 1.5808)
(0 0 0)
(0 0 0)
(0 0 0)
(0 0 0)
(9.39092 -14.1332 -1.83913)
(-4.42879 3.54326 -2.34071)
(1.58858 -1.01766 -0.333978)
(-18.6633 3.75042 3.83097)
(0 0 0)
(-1.85706 -1.81871 1.0503)
(2.79401 -6.09361 -4.85881)
(-0.360904 -0.408563 -1.08729)
(-1.02215 -0.910382 -0.215575)
(0 0 0)
(0 0 0)
(-3.46616 -3.18082 -0.512544)
(0.640384 0.294313 -0.59677)
(0 0 0)
(1.10154 -0.746384 -3.77662)
(1.06974 -0.935121 0.564813)
(0.204208 0.278548 -0.141845)
(3.16626 -2.99495 -5.02319)
(4.26628 -2.71672 1.59277)
(4.08173 -6.02292 3.04097)
(6.94534 25.4272 5.92929)
(0.0323073 -0.222435 0.153153)
(0 0 0)
(-1.45708 -0.55685 1.2486)
(1.18566 2.90745 -1.93285)
(0 0 0)
(0.815636 -6.65406 -2.78944)
(1.03375 -0.84721 1.27652)
(4.18104 -0.778169 0.97167)
(0 0 0)
(5.31308 -3.4827 2.94792)
(0 0 0)
(-1.65572 -0.139491 -0.666794)
(2.2433 -0.612243 0.846003)
(0 0 0)
(-1.79364 -0.980071 0.50785)
(6.76245 -34.6648 -16.516)
(-1.25746 -1.52497 -1.9599)
(0 0 0)
(0.300665 1.82598 1.03273)
(0.974191 6.32324 1.58779)
(0.490223 -0.877526 0.944184)
(-0.480643 -0.693885 0.89248)
(6.03563 -1.8978 7.46741)
(28.5686 -8.45361 -1.3862)
(1.21394 -0.393005 1.38888)
(0.730563 -0.0460811 0.14235)
(7.26495 -1.32298 -13.5882)
(0 0 0)
(0.0202572 -2.40473 0.125959)
(0 0 0)
(-1.12597 -0.0652522 -0.824146)
(-3.09133 -6.15985 -0.979884)
(0.646952 -5.26127 -1.85187)
(0.516912 -8.20704 0.0132064)
(0 0 0)
(-1.59447 -0.513359 0.117721)
(-3.6746 9.69936 3.62044)
(-2.72676 2.63494 -2.76711)
(-0.0735548 0.142576 0.219396)
(-2.24255 -2.55425 2.12178)
(0.393386 0.652294 -1.0798)
(0.743203 4.39218 -2.89168)
(0 0 0)
(0 0 0)
(0 0 0)
(8.83263 -34.0272 -3.88935)
(7.38953 -4.46512 0.38373)
(0 0 0)
(-0.0180451 -4.06643 -2.63066)
(5.81479 15.2591 -6.39926)
(-0.889666 -1.30146 -1.23939)
(6.50018 -5.05355 -3.90084)
(0 0 0)
(2.55762 1.13848 -0.115802)
(3.77832 0.478983 1.80786)
(8.67327 2.18477 0.269939)
(0 0 0)
(-0.463531 -0.69855 0.420688)
(0 0 0)
(-1.26851 -3.91771 0.628607)
(-1.36304 2.81957 -2.86689)
(0 0 0)
(-1.61116 7.62053 -2.70893)
(10.1949 3.31495 4.87799)
(0 0 0)
(-4.43704 -1.12038 2.07691)
(6.2271 7.11931 1.07272)
(0 0 0)
(7.00465 2.68299 1.71264)
(-9.28234 -5.36428 7.65879)
(7.16355 -4.5934 0.658372)
(-6.58485 -15.0246 0.759543)
(-1.81688 -2.80154 2.91853)
(-1.37479 -2.85045 1.05703)
(-0.264142 -0.34223 1.48121)
(4.53585 -0.129149 3.25251)
(1.71357 -1.1749 -0.0939759)
(-5.62592 -1.80903 1.53734)
(1.96432 -0.830347 1.57569)
(0 0 0)
(0.380672 1.07278 0.841726)
(-2.13555 6.99792 2.47215)
(-1.96071 -1.30965 0.142975)
(0.194138 1.99343 -0.806593)
(0 0 0)
(0 0 0)
(4.37905 -1.02841 -2.81608)
(-3.30873 3.9368 7.47638)
(0 0 0)
(5.30438 0.451006 1.36322)
(2.26299 0.187092 -0.0459976)
(-0.733829 0.599922 -0.70362)
(0.798846 0.0237518 0.863698)
(-4.66306 7.28525 1.59246)
(-24.8331 -18.24 -0.544476)
(8.75988 -14.6959 0.572988)
(0.523159 -0.0115962 -0.529711)
(2.40451 -3.15374 1.63908)
(0.686691 6.41801 1.29241)
(0 0 0)
(-0.93689 -1.41191 0.850295)
(0.122977 0.577967 2.65605)
(0 0 0)
(1.55771 -0.456695 0.726947)
(-1.67798 2.0425 -0.76124)
(-0.059409 0.227115 -0.119545)
(0.744226 -2.71663 -19.8992)
(1.90007 -0.837295 3.02098)
(-1.32095 9.82881 1.15101)
(0.675311 -0.73889 -0.315083)
(0.641776 -0.0769214 -0.226442)
(3.72507 1.1305 0.190733)
(6.75658 8.37126 8.44292)
(-1.44859 2.59254 -0.767788)
(0.816003 7.39748 -1.22641)
(-3.78461 4.12989 2.70381)
(0.200794 1.14021 -1.80892)
(-0.115846 2.65624 0.354383)
(0.263812 -0.0494375 -0.0193476)
(0.319715 1.43453 -0.22404)
(10.1545 9.32086 0.856254)
(-3.39759 -0.998465 -0.794138)
(0.1529 -6.1251 -2.93838)
(6.66699 3.00986 -0.134002)
(3.58185 15.4776 1.33562)
(1.70271 2.09921 -0.840393)
(-0.343413 -10.2204 0.904749)
(0.0257706 0.473579 0.491279)
(0 0 0)
(2.83943 4.79295 -2.53053)
(5.54746 0.192631 3.39317)
(-2.92705 0.631698 0.930093)
(-3.45527 -0.354349 -2.84176)
(5.09088 2.47647 -1.35745)
(0.258034 -0.0709199 0.0540735)
(1.11929 -1.55092 2.02271)
(5.62779 -1.69012 -3.65197)
(-2.40948 6.96449 6.91653)
(-0.00982832 -0.035348 -0.00747292)
(-1.2597 -0.217487 -2.50569)
(-0.532063 -1.33351 -0.44931)
(-0.0415459 -0.591186 -0.469848)
(0.0520513 -0.310628 0.448342)
(0.668707 -5.57282 -1.82237)
(0.727786 -0.782256 2.52026)
(0.395933 -0.985198 0.0561016)
(-1.13093 -2.36223 -1.66143)
(0.00470428 -0.55298 0.622584)
(1.17493 -1.78494 1.07053)
(-0.566358 -1.41946 -0.478271)
(-6.72628 -0.13133 0.22912)
(0.00217697 -0.0144249 0.0100961)
(-3.05115 -1.61422 1.85226)
(3.25348 1.19078 3.25664)
(-4.36569 7.4254 -2.28342)
(-1.48192 2.90291 2.11887)
(-0.0656077 -0.0168851 -0.0163197)
(-0.377608 -1.23432 0.109437)
(0.398942 -3.76498 -0.792403)
(0.436734 11.2219 -1.33909)
(-1.10752 0.246011 -0.0445009)
(6.28901 2.60005 5.9167)
(4.34282 2.49911 -0.771741)
(-1.42214 0.933937 -2.86498)
(0.275386 1.16139 1.22888)
(-0.0170171 -0.11083 0.130847)
(0.781215 4.95947 -1.39551)
(1.29547 0.807032 1.05934)
(5.17782 3.08846 0.69314)
(5.16826 2.53119 -0.0972283)
(-0.0143798 -0.0936542 0.110569)
(3.61802 -6.08186 2.0741)
(0.0284025 0.00946821 -0.10648)
(-1.47365 -1.62857 -0.867596)
(-3.18732 -1.68626 1.93492)
(1.8259 0.666886 -0.00258267)
(-1.73047 -1.91239 -1.0188)
(-5.93451 0.219062 1.7646)
(-11.2844 -0.75294 -9.71555)
(1.27001 -3.09571 1.16175)
(-1.59128 0.452554 -1.92989)
(-2.36058 -4.92282 -2.79104)
(-4.30135 7.31596 -2.24977)
(0.232435 4.85999 -1.74014)
(0.272573 3.37608 1.59589)
(0.491221 12.6219 -1.50616)
(0.0801216 0.337899 0.357534)
(4.62733 2.31074 -0.0942213)
(19.3411 -13.6497 -11.9728)
(0.612492 0.738417 -1.30067)
(0.126606 -1.19483 -0.251472)
(3.52784 -9.79822 -1.70536)
(1.08673 0.396916 -0.00153715)
(-0.00774909 -0.0278769 -0.0190956)
(-0.367868 -2.16449 -1.0281)
(0.0156024 -1.83404 2.06489)
(0.542682 6.72163 3.17735)
(0.404665 0.371779 -0.0171421)
(6.81081 4.0625 0.911744)
(1.76082 11.1784 -3.14541)
(-2.01871 -1.34839 0.147205)
(3.35611 1.22835 3.35938)
(0.387248 0.466864 -0.822348)
(6.11075 -11.5162 7.21077)
(-0.0182882 -0.0657906 -0.0450664)
(12.8065 -4.38412 2.93965)
(5.68989 -2.98883 -4.23307)
(-4.74965 -2.31327 2.09762)
(0.185122 3.87073 -1.38594)
(-0.332998 -1.36869 -0.0429939)
(5.06244 -6.28019 -6.22254)
(0.432297 -0.167208 1.89006)
(2.79623 1.15604 2.6307)
(3.89762 -0.595995 0.347126)
(0 0 0)
(-1.1421 0.973875 -1.70347)
(-0.193922 -1.87085 -0.706111)
(1.53607 1.03688 2.78068)
(1.52253 0.948484 1.24502)
(1.13253 6.8511 -0.306321)
(-10.2713 9.35532 -7.34229)
(-1.10048 0.938382 -1.64139)
(-1.2369 2.07653 4.16816)
(-2.12391 2.29291 -0.21732)
(0.707416 0.649927 -0.0299671)
(-2.11575 -0.414031 3.41001)
(-1.87635 5.63411 1.80242)
(-0.360242 0.762203 2.12409)
(8.59406 -3.20563 -1.23702)
(0.0083164 -0.150748 0.156273)
(-1.67969 1.76269 -0.894183)
(-0.403457 -0.140553 -0.0169567)
(4.48219 -2.07438 0.475744)
(-1.83705 -1.98995 4.06726)
(0.252184 -0.571592 -0.481454)
(0.714367 -0.0104474 -0.178048)
(-2.23549 -1.77392 0.980371)
(0.7145 -1.6063 -1.66977)
(1.56064 -0.777049 -3.12833)
(1.301 -0.481479 -0.436539)
(0.656039 -0.651757 -0.364282)
(4.08318 -0.369613 -0.754765)
(0.675906 -0.806589 -0.0533328)
(0.127034 -0.00419789 -0.0298136)
(0.0086938 -0.00414125 -0.161454)
(-0.737028 -1.37707 -1.17535)
(-1.01374 -0.699806 -0.547173)
(-0.952868 -0.951115 0.104488)
(0.65387 -0.211686 0.748101)
(5.00745 -3.03735 -1.47732)
(0.292018 -0.517505 0.363029)
(-2.31516 -2.71423 1.29991)
(-3.84816 -0.694643 2.94949)
(-0.053173 -0.0179008 -0.189942)
(0.873438 -0.660882 1.44177)
(-0.391418 -0.539828 -0.912089)
(1.19026 -2.81237 0.344874)
(-2.00489 -6.80391 -1.62501)
(-0.0185226 -1.12271 0.332931)
(2.60673 -3.10291 1.73732)
(-1.16625 -1.93163 -2.69682)
(-4.94605 -4.51821 -5.1969)
(2.33878 -1.62393 -1.53405)
(2.1228 -0.400354 -0.635667)
(25.0808 30.1783 -6.84344)
(-0.154715 12.9195 2.54413)
(7.19053 -9.33241 6.41855)
(-2.74879 8.09369 2.25611)
(-2.81004 1.76518 1.1316)
(-0.182584 -0.232541 -0.476898)
(-2.36471 -0.307745 -0.638265)
(-2.60455 -6.45647 -0.340095)
(-2.24571 1.66598 0.293068)
(-1.3602 -0.144938 -0.405878)
(-4.49435 -2.11564 4.6036)
(1.43637 -12.307 -6.10631)
(6.75636 -1.41106 -4.90648)
(0.78653 -1.16995 -0.543624)
(-3.45065 -1.2597 0.304906)
(2.75622 -2.20947 0.73843)
(0.956156 3.65341 -3.06912)
(2.79123 2.7634 2.18356)
(-14.7048 1.93867 -0.657558)
(0.444933 4.39766 1.08801)
(0.105996 0.244449 0.257168)
(-4.8742 4.77852 -2.66642)
(-0.782885 2.45834 -1.60562)
(3.63858 -0.606839 3.97787)
(-1.38309 -9.13567 7.51146)
(-1.52308 2.30792 -5.59096)
(-3.15526 0.700874 -0.126781)
(3.51277 3.88445 -16.6178)
(-4.06665 -2.94174 -0.972151)
(2.79546 1.60867 -0.496767)
(3.69892 3.92686 3.36926)
(-4.8928 1.47655 0.736314)
(-7.8377 -19.8348 -1.23954)
(-1.10116 0.777965 -0.835559)
(-3.88005 -0.91098 -1.2225)
(1.7666 5.2945 0.488017)
(-1.83559 1.46609 -1.04944)
(-1.92943 -4.09322 0.854531)
(-11.7924 4.01685 -8.53376)
(7.17591 7.35101 -2.29402)
(0.464514 0.248657 -1.46064)
(12.806 6.3949 -0.260754)
(-1.13684 0.746574 -2.29022)
(3.49665 -5.87783 2.00452)
(-1.67581 0.695118 -4.01082)
(0.17112 -4.0384 -7.72009)
(13.7849 -10.6838 6.47712)
(-2.94394 -0.50827 -5.85583)
(3.01325 -4.13001 1.89413)
(-3.82467 -3.53228 4.95801)
(-0.946707 3.22094 2.25524)
(-3.17725 0.903599 -3.85335)
(-0.135644 -0.490841 -0.725283)
(-6.60814 -1.79594 -5.45581)
(0.269584 -0.0639017 0.276527)
(2.25708 6.76449 0.623512)
(-2.10248 -0.571404 -3.47683)
(-12.5317 2.69045 -16.9962)
(3.56541 -4.88682 2.24122)
(0.858763 0.850203 0.671807)
(-2.78401 0.951088 -2.17765)
(12.88 6.30807 -0.242306)
(7.11697 -12.2338 -3.94191)
(0.159932 0.0856127 -0.502898)
(-0.926995 -3.81013 -0.119686)
(-5.48488 -1.76368 1.4988)
(0.000128146 -2.68223 -1.03578)
(1.45479 0.98201 2.63354)
(-0.0694103 -0.0178637 -0.0172656)
(0.0263007 0.677288 2.83685)
(-2.5745 5.04316 3.68106)
(-0.269065 -0.879518 0.077979)
(4.17517 5.39879 1.60713)
(0.0957145 0.0319073 -0.358832)
(-0.737216 -1.56398 0.326509)
(-2.2427 -4.677 -2.65167)
(-12.1325 -8.43299 0.750137)
(-2.17216 6.39584 1.78284)
(-1.79448 -2.85883 3.54298)
(3.92545 -2.48284 4.98158)
(-0.145209 -0.349105 0.192956)
(-1.53067 -1.45643 0.365915)
(0.202037 -4.48657 -1.94546)
(5.47664 -2.06769 -3.93116)
(-5.32704 -4.33355 -6.83987)
(1.57762 -2.99808 -2.91835)
(-0.892254 -1.1556 1.20682)
(12.3864 -5.05146 -4.21606)
(2.62736 -2.29673 1.38723)
(0.233679 -0.0148592 -0.10063)
(-0.0427395 -0.284775 -0.0424439)
(-1.00342 -7.6483 1.56888)
(-3.46702 -2.40984 0.214362)
(1.96524 -1.25896 -0.413166)
(3.64388 -1.89216 -0.709804)
(0.572936 -0.561446 -0.692)
(-12.084 -8.35058 8.59148)
(1.86345 -2.2022 0.650069)
(2.1783 -0.0353553 2.26089)
(-1.27718 -1.70107 -3.25763)
(-6.31102 -1.59357 2.95409)
(1.04597 -1.47963 3.38688)
(-0.748274 -1.25092 -0.64279)
(-1.98513 -2.79736 -1.68888)
(-12.4785 -8.649 -4.58228)
(0.958921 -0.263557 0.200951)
(-0.0866649 -0.588053 0.146619)
(0.537028 -2.66683 2.31174)
(0.868137 -0.580482 1.69626)
(5.35002 -9.31619 -8.31547)
(-4.23879 -18.4658 16.5982)
(-22.7973 -1.18661 -3.12451)
(9.97768 -2.08383 -7.2458)
(-2.649 -13.3823 -0.953864)
(5.99874 -8.36582 3.2463)
(1.31739 -0.236217 0.822559)
(-3.46371 -3.19892 4.49009)
(1.00327 -1.49235 -0.693428)
(5.2206 -2.04944 -2.14853)
(7.26152 -3.27272 11.3553)
(3.07626 -0.18358 -11.2124)
(-9.96103 -0.900839 10.8708)
(-1.59809 -0.139648 5.26039)
(0.200995 -1.66202 1.3979)
(0.447081 -2.40294 6.87913)
(4.58971 -1.38042 2.22602)
(1.47983 -17.9406 -19.4235)
(1.19782 -0.326949 1.50198)
(0.996273 -1.49373 -3.1714)
(-2.45231 -1.63801 0.178823)
(-3.21399 -0.909689 0.666486)
(0.414277 -1.29816 0.314877)
(0.517929 -1.89059 -13.8484)
(0.02873 -0.726536 0.477263)
(-1.03711 -0.87081 0.275886)
(2.8257 -0.581044 -2.18386)
(1.96629 -6.60108 3.7511)
(-9.42354 -5.75986 7.66979)
(-11.0654 -6.13841 13.9625)
(-1.65368 -2.29084 -0.632241)
(-26.9153 -4.54746 -11.005)
(33.6189 -1.75114 -10.8585)
(-5.31934 -0.805629 1.02594)
(0.284828 -0.465263 -0.0737209)
(-2.49335 -0.237911 1.51115)
(24.0153 -12.5534 20.0682)
(-2.83449 11.559 -3.74741)
(3.46554 -0.825489 2.9295)
(13.6742 -1.29808 -7.67534)
(3.49403 -5.3033 -10.1502)
(20.7727 -3.3708 1.01349)
(0.425013 -0.164391 1.85821)
(-0.734679 2.14983 -0.402864)
(0.748543 0.245119 -0.994924)
(5.9056 0.205067 3.61223)
(-6.57603 0.942068 0.871227)
(-0.230039 0.445899 0.686149)
(-0.0972522 -3.84555 1.4558)
(-52.6832 30.6328 13.4233)
(-9.49243 -10.5866 2.61672)
(-0.356382 -0.417328 0.338385)
(-6.17825 -1.40651 -4.0831)
(-2.81339 6.22763 2.74652)
(-0.106844 -0.331282 0.0690225)
(16.3862 -4.60392 13.289)
(-2.07568 -0.406189 3.34542)
(-6.08119 3.9723 -4.09822)
(-6.16124 4.43833 -5.23621)
(7.96519 3.22316 -0.440785)
(-0.086513 0.900859 6.24159)
(8.08049 0.457862 0.146322)
(1.50413 18.222 -2.24993)
(1.77293 -0.152154 0.158886)
(-0.0403699 0.15433 -0.0812338)
(0.643756 -7.72285 -0.628314)
(0.189891 0.892445 4.10124)
(2.08978 0.326734 -0.753731)
(0.335655 -0.0629006 -0.0246164)
(-2.41196 -1.75124 -5.10676)
(5.69659 14.9489 -6.26919)
(-0.797003 0.651568 -0.764194)
(-1.69328 1.11512 0.809126)
(-2.48556 5.14161 -5.22789)
(-0.671795 -1.4969 1.82712)
(-0.138808 -3.42054 1.9105)
(1.43698 7.91794 7.7046)
(0.39747 -4.04843 -4.46335)
(-4.64628 8.31544 -2.46264)
(-7.35339 -7.84836 -10.2506)
(3.56002 4.38901 -1.75709)
(-13.4851 2.05312 10.0593)
(-0.0590445 -0.272125 0.0161125)
(-3.46672 1.76046 -5.79831)
(0.845844 3.52837 0.885028)
(3.01704 8.10299 -2.12518)
(-6.27252 1.3537 1.99314)
(4.51639 0.572549 2.16102)
(6.53848 2.95184 -0.131419)
(13.763 0.119664 -26.8496)
(3.1128 -5.38068 -2.27323)
(0.0469292 0.862404 0.894637)
(-5.01336 -15.2018 -4.93134)
(9.24239 8.48362 0.779341)
(-1.86796 2.35161 -1.18014)
(-2.83616 -4.846 -0.217465)
(-9.09493 -20.0023 -2.14077)
(-12.7086 1.40413 -1.63918)
(-2.87715 -3.66501 1.28813)
(0.120548 2.77916 3.20701)
(5.84801 -6.88838 -4.51229)
(18.2816 6.25583 -3.57666)
(-6.43245 -12.2135 8.91878)
(-2.51627 11.6691 -1.60125)
(0.828438 1.16477 2.87135)
(-1.40428 -1.66031 -0.724846)
(-3.33819 -1.39978 -2.28795)
(-6.99578 2.37209 -1.92477)
(5.94548 -27.181 8.10642)
(-1.58093 1.76522 -7.69498)
(20.9287 14.0096 -19.1237)
(-0.374056 0.317947 -0.334952)
(-1.50827 5.67699 -1.93402)
(15.7596 16.7004 -0.850989)
(7.55909 -7.4103 1.45536)
(0.510273 -4.14974 -1.46064)
(0.248282 2.91622 -1.74481)
(1.20145 2.00077 -1.77842)
(-0.41563 -5.5391 -3.84263)
(-4.37569 2.15918 0.383669)
(-3.26282 30.823 0.286168)
(-2.48687 4.48405 5.2792)
(0.544214 0.506779 0.679375)
(0.741111 3.22052 2.64571)
(15.9428 -4.84331 -10.5855)
(-1.87156 -5.07179 -1.38499)
(1.38619 4.57473 1.7212)
(9.64159 8.7344 -0.352106)
(12.4908 11.9959 -4.15878)
(-3.38989 8.94782 3.33992)
(1.36483 1.66852 -5.34498)
(17.4361 -20.864 9.80038)
(1.9481 -1.40313 -0.252921)
(9.4363 2.37698 0.293687)
(10.165 -0.926975 0.247816)
(0.89855 2.74483 -6.24643)
(6.95041 -9.69303 3.76132)
(-2.60782 -13.1743 -0.939036)
(-2.12021 -5.35477 0.720024)
(6.33896 8.60045 -7.56609)
(12.3915 -9.00851 3.56259)
(-9.04017 -12.5264 -4.62399)
(-35.9094 9.4199 1.62425)
(4.17261 2.63119 -1.35265)
(9.17348 1.68013 -5.88382)
(0.778591 0.763833 1.31126)
(1.08001 3.66376 -0.675999)
(22.8504 14.9789 -3.07356)
(4.91975 6.71303 -5.08282)
(0.117711 -0.838051 -0.177822)
(6.32996 4.03322 2.90218)
(0.428203 -0.790557 0.875299)
(7.78024 -1.46733 -2.32977)
(2.00704 2.80702 -0.523617)
(5.28552 6.83456 2.03453)
(-3.69548 -0.662593 -0.316391)
(-3.64327 7.23492 -6.66046)
(-2.74207 0.957382 3.16878)
(-4.83868 -2.20843 0.612711)
(-0.977641 0.755541 -2.66054)
(6.59649 5.5327 10.1802)
(18.2045 3.09246 -4.35873)
(6.04417 5.64128 -3.47488)
(2.43888 -1.73831 -1.01713)
(-19.9495 1.26167 3.37497)
(-0.184021 -0.450472 0.737132)
(-0.417382 -2.30019 -0.401271)
(-1.18793 0.702481 -0.333799)
(7.70438 5.54123 5.27103)
(-2.54123 -6.68628 -1.94562)
(16.1746 -8.35757 -2.35261)
(-0.695918 -2.4064 -1.70522)
(-6.40595 -2.94516 16.3356)
(-20.5715 -10.7367 6.38358)
(6.7456 -25.4375 5.48795)
(-37.297 -0.56682 15.0836)
(6.76958 -7.43615 6.01552)
(4.69611 -7.07695 4.55982)
(-8.96133 -10.1149 4.89582)
(2.74923 -4.83876 0.569918)
(5.58094 -5.65675 12.2246)
(15.9974 -3.03622 -5.82209)
(-13.1792 -4.95352 14.9313)
(-5.0135 -1.69599 2.71478)
(3.98191 -9.81578 -14.2127)
(-5.05902 -17.4962 17.4167)
(3.86001 -4.60632 -0.304577)
(-2.6676 -1.60169 -1.3109)
(-0.464142 -1.63274 -2.86518)
(28.9605 -10.8083 17.2361)
(-24.1936 -12.4167 -14.8942)
(-0.0892258 -9.18297 5.96927)
(-3.10781 -6.26683 -2.63416)
(4.3214 -7.891 -7.42479)
(-0.851149 -1.38111 3.79553)
(-1.13443 -0.220625 -3.36539)
(-6.12093 -0.514826 0.146641)
(-0.520841 -3.34855 5.54807)
(4.26146 -2.58486 -4.74025)
(-5.38477 -1.72275 5.79824)
(-51.3238 -3.13733 -3.48233)
(5.3437 -2.39103 -5.08673)
(-5.13026 -1.7099 -8.0983)
(-8.88025 -11.7414 4.45839)
(-8.06209 -12.0175 -4.58508)
(-3.61611 -0.708247 -2.22022)
(-0.599516 -1.07098 1.7465)
(1.33737 -4.06094 2.13488)
(0.759932 7.97545 -0.591042)
(-1.35111 -1.16499 -1.54026)
(-1.13567 -1.9428 13.8121)
(3.11744 -12.0455 -6.87399)
(1.97547 -1.8167 0.530962)
(6.72134 -10.5525 -4.92104)
(0.228732 -3.06853 -0.713992)
(-0.0616908 -2.20927 6.17816)
(-0.385596 -2.75037 -1.66217)
(-0.741278 -0.448889 -1.91587)
(9.16627 -1.42424 -6.67767)
(3.07567 -5.32285 5.70037)
(6.6216 -0.993108 -1.19907)
(-18.318 -1.18538 -6.4088)
(3.11 -3.35976 6.44853)
(-0.411191 -2.84804 0.392276)
(1.5417 -2.23228 -0.337815)
(-1.8681 -1.11891 -1.84165)
(-3.49485 -1.95811 23.9335)
(-0.424142 -10.8112 4.70486)
(1.55187 -1.0351 1.73806)
(-17.9164 -9.21389 1.51231)
(1.35278 -0.814503 4.82793)
(5.11182 -34.8932 -14.121)
(-7.51712 -5.80392 -0.587182)
(-4.84818 -3.71385 -9.4924)
(0.0461726 -4.47946 -2.11445)
(0.984721 -3.21351 -4.552)
(-0.461805 -0.886748 0.0477014)
(1.23014 -19.531 0.0314283)
(4.31048 -4.88368 -7.28379)
(-0.162056 -0.514178 -7.13431)
(10.3655 -9.80463 -16.4445)
(-3.28468 -5.76435 -1.06235)
(-3.57131 -20.4223 -29.7002)
(-5.23533 -2.05416 -3.05616)
(-1.11787 -0.679619 -0.509085)
(4.12696 -9.21166 -4.33282)
(2.78233 -9.1038 2.97783)
(2.41717 -1.32695 5.65611)
(1.04146 -1.18843 0.646811)
(-9.53015 -0.271901 -2.2022)
(1.08359 -11.1801 -4.54565)
(-16.2982 -14.3927 21.9854)
(-3.00932 -2.18458 2.16027)
(-2.95212 -0.630881 2.34414)
(33.9368 -10.0421 -1.64668)
(-12.8527 -14.935 -7.82825)
(-0.20356 -1.91346 1.27732)
(-12.018 -8.4247 -5.23128)
(-2.86552 -13.6756 1.83879)
(12.629 -4.48666 29.6994)
(1.06955 -2.72754 -0.942707)
(11.8506 -3.32415 13.1997)
(0.943651 -1.67305 2.7085)
(1.78875 -2.1346 -0.141143)
(-31.8733 -16.571 2.92716)
(-4.38847 -3.85147 -0.0378706)
(17.6214 -5.9946 3.22964)
(4.5926 -8.35041 23.13)
(-8.76174 -4.00153 -10.5985)
(-1.12559 -1.21633 12.0097)
(-8.58222 -15.871 -16.1375)
(17.2546 -27.0431 -25.0867)
(-7.35723 -11.3445 11.8182)
(-2.36304 -2.16922 1.01056)
(-0.497342 -6.41958 0.699349)
(-21.0934 -8.92893 1.84062)
(-4.11982 -4.48442 5.4366)
(-16.8804 -11.7331 1.04369)
(-8.7642 -11.8672 10.5543)
(-1.39384 -15.9562 -11.657)
(-4.18601 -3.20661 -8.19592)
(-3.48809 -4.07864 -1.71492)
(9.36301 -2.21933 2.87013)
(-1.26527 -1.67008 -2.30847)
(5.40382 -8.33494 6.2542)
(-3.4231 -0.474079 2.56261)
(-1.41591 -4.86537 4.49416)
(5.07392 -9.42812 -7.05457)
(-6.3906 -4.6114 4.31036)
(1.74556 -0.743651 -0.469454)
(20.6842 -1.87236 -3.82343)
(-5.32957 -6.22906 -4.99657)
(-6.6453 -2.80664 -7.60929)
(14.2862 -17.0055 9.52141)
(10.4739 -6.00054 7.19886)
(5.32259 -12.8905 -14.3525)
(5.8956 -2.15817 1.18449)
(-2.38952 -10.0391 -3.19073)
(4.97256 -4.74489 0.132337)
(0.0475631 -0.0226564 -0.883303)
(8.12199 -9.59847 2.83338)
(-13.2567 -2.21051 5.47048)
(-7.53341 -0.772576 -6.1958)
(0.462515 -9.20428 -1.99942)
(0.0539212 -0.505553 -0.326333)
(-0.215695 -3.06928 -2.43932)
(0.231413 -1.38101 1.99326)
(6.53826 -0.414078 10.6252)
(-7.65891 -12.1535 14.4965)
(38.8713 -12.697 39.7063)
(-19.4574 -9.57923 19.6632)
(11.2806 -26.9366 3.77285)
(0.485923 -1.61579 -0.234379)
(3.59936 -1.16527 4.11807)
(8.7786 -2.39586 3.31063)
(13.1808 -4.13695 -9.3807)
(3.71193 -5.55741 -6.27716)
(0.704699 -9.26392 -4.94669)
(0.0630392 0.0164765 0.00236399)
(0.503652 -0.266281 0.546642)
(15.8138 -21.9681 -20.1026)
(1.13051 -0.59274 -1.49468)
(4.46278 -0.81561 -9.4879)
(-3.75542 -9.25514 -8.01773)
(3.01266 -17.3611 -9.72044)
(14.8308 -11.4846 -12.6164)
(13.3126 -11.8335 21.1286)
(-0.384122 -0.940307 1.53867)
(9.70854 -31.8699 10.1315)
(-14.6495 -16.7778 12.4055)
(9.8785 -16.0029 -2.04124)
(1.72167 -0.416468 0.169624)
(2.63384 -2.83096 9.12074)
(4.7642 -24.1225 37.4846)
(4.57662 -3.46288 7.55456)
(-2.15367 -7.75985 -1.34405)
(-31.7536 -19.4527 -22.9735)
(8.22983 -3.47887 6.6016)
(4.07986 -14.646 -1.87537)
(0.154221 -4.32883 -0.28833)
(-0.605691 -1.87801 0.391283)
(1.06291 -0.192587 3.87683)
(-5.26844 -7.82945 2.6464)
(10.3214 -10.6386 -9.0105)
(1.97075 -29.0102 27.9108)
(-7.66305 -6.05112 -4.62657)
(0.496629 -1.42121 -3.43597)
(-7.47372 -1.1754 -12.5277)
(26.4869 -10.9586 0.580682)
(2.37904 -1.51006 -0.432689)
(-19.7478 -9.77934 -17.0707)
(-0.722513 3.92765 0.571781)
(-41.3658 16.1421 -2.0094)
(15.0634 -2.36586 0.287124)
(9.5199 -0.0284328 -5.45774)
(-4.52063 6.96926 -3.23926)
(12.9577 9.35423 -0.969601)
(3.57469 -0.135937 1.89353)
(-3.47042 5.81519 0.0488382)
(-6.91007 -1.59386 -2.8708)
(16.9583 2.35886 0.99217)
(-2.35324 1.69874 -2.51784)
(21.0846 11.2775 15.8927)
(13.1622 -5.62423 -10.3516)
(1.69915 -2.77555 -0.439786)
(-2.45587 3.0951 3.9217)
(9.85609 5.72795 0.578764)
(7.28762 21.7271 0.911041)
(6.45619 1.64275 6.02739)
(-0.735817 -0.91634 -1.25178)
(-0.0311506 3.35256 -2.21363)
(-0.232738 0.0389564 0.212503)
(-0.0733087 0.032249 -0.623351)
(-8.6272 -2.714 -6.6168)
(1.5632 3.36448 0.872423)
(31.4699 1.16441 12.4895)
(-14.9905 -2.12237 5.04431)
(19.4434 0.832541 -4.08957)
(-19.0691 16.2245 18.8538)
(-0.942676 1.12537 0.892863)
(-0.360973 -0.381758 -1.16371)
(-3.48079 -15.5311 1.87533)
(-3.59086 -0.108292 4.94298)
(-0.696917 -3.56369 1.70204)
(-3.1884 1.25023 -0.637769)
(-0.644633 -0.569641 0.537228)
(11.361 -3.95725 -2.29908)
(0.292156 -0.302352 0.492061)
(-2.17735 0.411622 1.45411)
(1.91935 2.27359 -3.28138)
(4.43882 -3.58305 -5.873)
(9.48169 16.7184 1.28694)
(6.83156 -0.0660804 2.90124)
(-0.375101 -0.704696 0.829874)
(-3.53638 1.12739 0.151403)
(29.7636 17.8976 -6.53578)
(-0.00458259 0.00183622 -0.0107603)
(-9.89139 -3.22606 1.68355)
(7.30769 -10.3315 -16.0746)
(-12.8254 -5.19731 -1.48917)
(-7.62303 3.42318 -2.33577)
(2.97655 1.18328 -0.917266)
(-8.22128 0.303475 2.44455)
(-2.18459 -2.01071 2.17692)
(-7.38351 -2.25983 -1.78459)
(-1.74767 3.48115 -0.774829)
(-13.2011 59.0339 -26.7148)
(-9.62008 -3.94039 -0.113815)
(-2.19835 0.107609 0.521992)
(0.0918062 3.05222 -2.23304)
(-19.1668 16.6429 -4.15725)
(1.19414 1.75845 3.30171)
(-8.62171 0.835062 -4.38313)
(-1.26134 -6.69706 -4.87379)
(-6.63292 -3.78386 -3.5639)
(-17.5074 -10.0195 18.8702)
(-3.54727 20.0129 -14.3553)
(-2.2221 7.89703 2.35028)
(-5.3607 6.76071 -2.0361)
(-16.3804 20.7396 -2.09921)
(2.69987 -1.42564 4.70899)
(-2.89683 -2.33823 -0.128645)
(-19.4189 -3.58478 5.19373)
(-1.10878 0.117262 -15.7592)
(2.53307 -3.81854 4.89064)
(-10.5417 8.43367 -0.18987)
(0.202849 -0.14717 0.438237)
(0.859696 1.20806 -5.1755)
(7.80993 -14.4854 4.25649)
(6.40493 -1.8882 5.84407)
(-16.2204 -5.22422 2.89977)
(-2.19775 0.815305 1.51295)
(-0.725486 6.86438 -2.93966)
(2.41926 3.41986 -4.0701)
(-6.47784 -2.19018 -4.21268)
(5.70089 8.23955 -0.36255)
(0.453491 -0.0717789 0.653914)
(0.192557 -17.212 -35.4755)
(-11.1153 15.2311 -0.517525)
(7.9116 4.78996 -9.05617)
(-0.519462 -1.00855 -1.21904)
(1.8218 0.112428 1.13301)
(-0.43522 -1.32569 -0.0179116)
(-0.265918 0.429711 -0.268308)
(-2.99119 -1.73246 6.53384)
(2.07946 3.70909 -6.38155)
(27.4617 -16.6574 -8.10188)
(1.80618 10.8201 -0.171783)
(-0.654367 2.37234 0.512441)
(16.8364 -1.22616 3.00367)
(10.1993 -0.877597 -3.85206)
(0.442714 0.968386 0.794175)
(0.0322547 -0.46257 1.06425)
(0.622736 0.126838 0.00947131)
(-0.123173 -0.918046 -3.93207)
(21.099 21.091 0.196243)
(-4.96335 0.489723 -2.14424)
(0.55283 5.80192 -0.429967)
(11.3264 10.7777 4.82031)
(2.40626 -1.59704 0.0536057)
(-0.40065 0.847699 2.36235)
(2.30512 1.29122 0.102052)
(-14.5381 -17.1053 -9.48752)
(0.71548 5.91085 -7.05977)
(-5.38341 1.65382 0.972156)
(-20.3316 -19.1712 0.838582)
(-28.8886 -8.71756 16.3807)
(0.418503 9.44293 2.42147)
(0.476618 -0.0105646 -0.482586)
(-0.583174 1.91098 0.675092)
(0.560066 5.23453 1.05409)
(5.09715 9.04718 7.85847)
(-1.6766 -9.86489 -4.68567)
(-14.6187 -7.68694 5.89171)
(7.88069 9.24286 -4.3244)
(1.47709 2.7991 -2.80428)
(-0.176464 21.0159 3.80225)
(-6.4474 -12.7719 -2.14666)
(0.122218 -0.187409 -0.116685)
(1.68002 21.1423 -16.713)
(2.5136 6.45233 7.62684)
(0.227368 0.640752 0.502745)
(-4.50118 -7.70328 5.64887)
(-4.40969 5.36762 -2.00051)
(5.50497 0.247141 0.139161)
(-0.969067 0.525425 -0.611342)
(-1.29928 7.85168 4.40493)
(-23.3122 -17.39 10.8198)
(13.4822 6.55843 -3.59492)
(4.16691 -5.46528 2.84046)
(-8.63011 -4.79208 6.67853)
(0.548171 1.21303 -1.58429)
(4.05421 6.48386 -0.0968834)
(-0.792526 0.594357 0.532522)
(-8.64906 -2.54173 -2.02159)
(0.466223 1.49639 -1.15235)
(1.35777 -4.17146 -4.08269)
(4.15509 -4.70762 -7.0212)
(-2.64069 -6.94797 -2.02177)
(6.6648 -3.37703 0.535085)
(-8.80403 -11.9317 24.9804)
(-2.72185 -10.5232 2.25888)
(9.58633 -10.5061 -12.9628)
(-4.7789 -0.890897 5.57482)
(-12.0367 -6.56583 -1.74544)
(17.3419 -11.2561 0.502229)
(-2.75877 -1.24638 -3.425)
(6.59596 -9.5505 -1.4453)
(-15.8757 -18.8253 8.58595)
(3.32013 -15.3217 7.04996)
(-13.3485 -2.93534 11.3643)
(-5.19013 -10.4011 7.47692)
(0.496725 -1.79713 -2.11926)
(3.73074 -9.19661 -13.3162)
(1.25271 -2.83935 -2.39159)
(6.62166 -3.17219 -7.62993)
(-0.680129 -1.03526 -0.374215)
(1.27729 -2.26406 -6.67624)
(1.21504 -10.8499 15.7218)
(-20.0512 -10.0681 21.6816)
(3.0135 -13.9977 -1.99125)
(-58.9547 -3.6038 -4.00009)
(0.0686236 -0.104647 -0.394889)
(1.3906 -3.15189 -2.65485)
(-5.08022 -14.5695 -1.6785)
(-5.35819 -0.93376 -3.58573)
(-2.35074 -5.63084 7.10252)
(-3.14812 -1.69402 -1.05481)
(3.31255 -4.27723 1.09554)
(-11.9766 -7.18042 7.14413)
(0.0118819 -1.36769 0.819501)
(-1.91195 -3.1024 8.52595)
(0.869886 -20.7784 -9.86283)
(-1.17109 -0.227755 -3.47414)
(-8.88857 -5.44006 -6.97662)
(0.384415 -1.2779 0.243101)
(-0.883619 -3.10837 -5.45463)
(0.0714626 -0.670016 -0.432494)
(0.758118 -0.50567 0.849078)
(1.38797 -2.09638 -1.47718)
(23.9879 -41.8744 45.2385)
(12.8611 -3.44662 -3.04146)
(-7.6795 -17.4846 -3.58876)
(-19.8636 -2.28255 -4.1106)
(-0.445269 -0.854996 0.0459933)
(-2.25635 -1.08672 -10.7778)
(0.806611 -0.272743 4.96808)
(8.80111 -12.2944 19.1347)
(1.09936 -1.2545 0.682766)
(-1.92367 -16.0698 -6.69674)
(1.21056 -4.19637 18.5935)
(0.201938 -6.87604 8.02794)
(-3.23085 -5.07481 4.28643)
(31.6999 -17.5178 2.15437)
(1.30255 -1.19357 1.09894)
(12.1166 -8.54656 7.26741)
(-13.5178 -3.87704 8.90177)
(3.68733 -0.0539262 -0.919026)
(10.1994 -1.85736 -19.0768)
(-8.03574 -9.13029 11.0757)
(-18.1454 -3.16216 -12.143)
(1.16186 -1.12058 -2.25352)
(20.7263 -6.70941 17.8449)
(-0.71579 -2.50141 0.662172)
(13.4905 -2.09224 -8.47561)
(-8.59489 -1.31441 -1.08218)
(0.0179982 -0.0511689 0.0136811)
(-3.28546 -8.77297 -2.00633)
(-6.14962 -2.4129 -3.58989)
(-1.36879 -7.5657 -4.68534)
(-3.62165 -4.84735 15.394)
(-0.369285 -2.63403 -1.59186)
(8.7738 -8.68037 -10.157)
(-0.171566 -4.87164 -2.7246)
(-2.79579 -9.19791 -0.819859)
(-17.0033 -7.08761 -6.97815)
(1.77838 -0.972496 -0.587201)
(-5.21019 -10.4412 7.50581)
(-11.8505 -4.8268 1.46073)
(-0.420798 -2.91458 0.401441)
(-5.68698 -3.10745 1.61021)
(4.17042 -3.3849 -4.9294)
(-1.57514 -0.796186 1.21084)
(10.3381 -5.27268 -4.2708)
(-5.60852 -3.02144 0.739827)
(5.6375 -2.60896 4.14155)
(-1.08654 -0.0107312 -0.579438)
(-0.968078 -1.09592 -2.91651)
(5.14461 -7.1285 9.29699)