/*--------------------------------*- C++ -*----------------------------------*\
  =========                 |
  \\      /  F ield         | OpenFOAM: The Open Source CFD Toolbox
   \\    /   O peration     | Website:  https://openfoam.org
    \\  /    A nd           | Version:  7
     \\/     M anipulation  |
\*---------------------------------------------------------------------------*/
FoamFile
{
    version     2.0;
    format      ascii;
    class       scalarField;
    location    "0.7/lagrangian/reactingCloud1";
    object      yH2O;
}
// * * * * * * * * * * * * * * * * * * * * * * * * * * * * * * * * * * * * * //


2438
(
0.022
0.022
0.022
0.022
0.022
0.022
0.022
0.022
0.022
0.022
0.022
0.022
0.022
0.022
0.022
0.022
0.022
0.022
0.022
0.022
0.022
0.022
0.022
0.022
0.022
0.022
0.022
0.022
0.022
0.022
0.022
0.022
0.022
0.022
0.022
0.022
0.022
0.022
0.022
0.022
0.022
0.022
0.022
0.022
0.022
0.022
0.022
0.022
0.022
0.022
0.022
0.022
0.022
0.022
0.022
0.022
0.022
0.022
0.022
0.022
0.022
0.022
0.022
0.022
0.022
0.022
0.022
0.022
0.022
0.022
0.022
0.022
0.022
0.022
0.022
0.022
0.022
0.022
0.022
0.022
0.022
0.022
0.022
0.022
0.022
0.022
0.022
0.022
0.022
0.022
0.022
0.022
0.022
0.022
0.022
0.022
0.022
0.022
0.022
0.022
0.022
0.022
0.022
0.022
0.022
0.022
0.022
0.022
0.022
0.022
0.022
0.022
0.022
0.022
0.022
0.022
0.022
0.022
0.022
0.022
0.022
0.022
0.022
0.022
0.022
0.022
0.022
0.0185333
0.022
0.022
0.0219907
0.0219997
0.022
0.0219568
0.0214823
0.022
0.022
0.022
0.022
0.022
0.0219997
0.022
0.0219919
0.0219998
0.0200236
0.0218861
0.022
0.022
0.022
0.0141357
0.0141357
0.022
0.0219918
0.0219164
0.022
0.022
0.022
0.022
0.0219911
0.0191493
0.0201076
0.0161837
0.022
0.0219851
0.0219658
0.0213345
0.0219739
0.022
0.022
0.0219997
0.0218788
0.022
0.0219625
0.0219773
0.0219952
0.022
0.0167478
0.0219935
0.00788002
0.0163901
0.0219989
0.0114542
0.0165349
0.022
0.021082
0.0218297
0.0199895
0.0219994
0.0194775
0.022
0.0218702
0.0219812
0.0219999
0.0219699
0.0119373
0.0219745
0.022
0.0151031
0.0161121
0.00675846
0.0171138
0.0161828
0.0191488
0.020859
0.0219806
0.0164731
0.022
0.0219066
0.0219999
0.0114697
0.0217154
0.0122108
0.0219232
0.0219999
0.0206417
0.0122549
0.0196673
0.0219873
0.0179389
0.0218855
0.0219673
0.0219988
0.022
0.0219983
0.022
0.0215728
0.0219995
0.0219961
0.00251155
0.021965
0.0162184
0.022
0.0197001
0.0115369
0.0100998
0.022
0.021805
0.022
0.020251
0.0212544
0.0219988
0.012555
0.0205943
0.0219996
0.0172285
0.0164609
0.022
0.0219036
0.0144265
0.0219985
0.0212265
0.022
0.022
0.022
0.022
0.022
0.022
0.022
0.0219992
0.0156307
0.0107924
0.0157971
0.021928
0.0219998
0.0219992
0.0219925
0.0090118
0.0219982
0.0219947
0.0218577
0.0148388
0.0197074
0.00428715
0.0219996
0.0219876
0.018374
0.0219668
0.00869055
0.0219966
0.0167434
0.0168321
0.0219998
0.0213902
0.0219203
0.0158807
0.0184776
0.00822972
0.00141657
0.0207103
0.0218425
0.0157477
0.0168312
0.0219609
0.0159049
0.0153551
0.0205642
0.021583
0.0219851
0.0211975
0.00830397
0.0200072
0.0219961
0.0111711
0.000381614
0.0219932
0.0217716
0.0219981
0.0219994
0.0184983
0.010167
0.0219917
0.019841
0.0186904
0.0219992
0.0219996
0.0219985
0.0219994
0.0219994
0.0219988
0.0219996
0.021998
0.0219999
0.0219992
0.0219999
0.0219999
0.0219999
0.0219999
0.0219999
0.022
0.0219982
0.022
0.0107746
0.00833584
0.00982558
0.0164531
0.0147386
0.0143834
0.0150951
0.0160933
0.0206936
0.000970693
0.010312
0.00896492
0.0107118
0.0086053
0.0209466
0.0157573
0.0216967
0.015023
0.0157573
0.0158347
0.0219001
0.00794506
0.0129674
0.0154642
0.0119321
0.000165897
0.0185596
0.022
0.0159917
0.0219798
0.0120328
0.0138847
0.0198778
0.0102382
0.0219577
0.0203294
0.0166191
0.0151567
0.0219086
0.0219986
0.016877
0.0219171
0.0215221
0.0108869
0.0127778
0.0191645
0.0144119
0.0109675
0.00939916
0.0133447
0.0197656
0.000214896
0.0183493
0.0142146
0.0183493
0.0218624
0.0186565
0.0219139
0.00173642
0.0116764
0.0216169
0.0210146
0.0219993
0.0219005
0.0169853
0.00882778
0.0118192
0.0201391
0.00970787
0.0218862
0.0180788
0.021835
0.012356
0.0114794
0.0114794
0.0132373
0.0119664
0.0219562
0.0160027
0.0219925
0.0219444
0.0219498
0.0219632
0.0219498
0.021978
0.0219157
0.0219668
0.0219855
0.0219383
0.0219444
0.0219316
0.0219057
0.0219241
0.0219938
0.0219944
0.021973
0.0219883
0.0219938
0.021973
0.0219383
0.0219955
0.0219316
0.0219883
0.0219938
0.0219855
0.0219923
0.0219964
0.0219944
0.0219968
0.021995
0.0219971
0.0219971
0.000644503
0.000989822
0.00149212
0.00417502
0.00669102
0.00673329
0.0109631
0.0174741
0.0137685
0.0159917
0.00437416
0.0201051
0.0175917
0.0209188
0.0140682
0.0218846
0.000848499
0.00857195
0.0150249
0.0127983
0.00984276
0.00730753
0.0196132
0.0082309
0.0154163
0.0179027
0.0139015
0.0104651
0.0215668
0.0161574
0.00462191
0.0164812
0.0137586
0.0159288
0.00158921
0.0150504
0.0198119
0.00816568
0.00564934
0.0177494
0.0142565
0.00378116
0.0159711
0.0132868
0.0159078
0.0195505
0.0145946
0.0192245
0.0170798
0.0122034
0.0207458
0.00902695
0.0153316
0.0160005
0.0176883
0.0120857
0.00781433
0.0185562
0.0148975
0.0196683
0.0166755
0.00999542
0.0143729
0.0210488
0.00738356
0.0219931
0.00107384
0.00776824
0.00879619
0.0172802
0.0156229
0.01772
0.0105625
0.0098775
0.0201006
0.0219973
0.0219472
0.00130745
0.0198412
0.0131342
0.0124224
0.0168494
0.0138888
0.0146868
0.0124224
0.0168494
0.012773
0.0146868
0.0124224
0.0210033
0.0211948
0.0164021
0.0210033
0.0138888
0.0190578
0.0198412
0.012773
0.0181963
0.020189
0.0131342
0.0131342
0.012773
0.0146868
0.0211948
0.012773
0.0131342
0.0214749
0.0211948
0.0213503
0.0138888
0.0135061
0.0135061
0.0142824
0.0131342
0.0159606
0.0218055
0.0155266
0.0205005
0.0155266
0.0151017
0.0135061
0.0151017
0.0217151
0.0131342
0.0138888
0.0214749
0.0135061
0.0205005
0.0218598
0.0138888
0.0218598
0.0218598
0.0177501
0.0215739
0.0216525
0.0135061
0.0217151
0.0168494
0.012773
0.0131342
0.0135061
0.0124224
0.0218785
0.0218935
0.012773
0.0168494
0.000507933
0.0218785
0.00104052
0.00383667
0.00170586
0.00403101
0.000434404
0.0071031
0.00621497
0.00679143
0.00777847
0.020189
0.00359345
0.00875875
0.0090669
0.00230344
0.00552374
0.0218935
0.00708602
0.00619647
0.0107365
0.00277317
0.00817931
0.0111183
0.00761154
0.00538794
0.0123897
0.0109365
0.0125711
0.0093524
0.0093524
0.0120709
0.00987614
0.00502769
0.00806178
0.00461856
0.00910351
0.004632
0.0217652
0.010044
0.00407631
0.00428993
0.00294442
0.00983689
0.00699617
0.0218935
0.0109807
0.0115862
0.0129051
0.0115936
0.00109367
0.00554829
0.0107625
0.0146886
0.0122438
0.00738691
0.00467447
0.00637716
0.0129316
0.012942
0.00260201
0.0138946
0.00353871
0.0081248
0.00710986
0.0168371
0.01585
0.00531059
0.0157765
0.0178412
0.00886546
0.00221318
0.014443
0.00876283
0.0190578
0.00800408
0.000522499
0.0191482
0.0154884
0.0118365
0.0137567
0.0137567
0.0140406
0.00426712
0.0145591
0.00617639
0.00413867
0.000282477
0.0192797
0.0133344
0.0111305
0.00853396
0.00142014
0.0152439
0.0117435
0.0207241
0.00139356
0.00633483
0.0110835
0.0122017
0.00936963
0.0148559
0.0139532
0.0127765
0.0191754
0.00531873
0.00872751
0.00588696
0.0193307
0.0152773
0.00608602
0.00144587
0.000196758
0.00818399
0.0212748
0.010862
0.0147503
0.00879744
0.0102933
0.0141964
0.00713648
0.00901329
0.012355
0.00150565
0.0101345
0.00588035
0.0161024
0.00287576
0.0149834
0.0149834
0.0113731
0.00572803
0.00728506
0.00592882
0.00836245
0.00797699
0.00697293
0.00761911
0.00744927
0.00728506
0.00592882
0.00654471
0.00900222
0.00856698
0.00797699
0.00697293
0.00797699
0.00581797
0.00779488
0.00581797
0.00581797
0.00581797
0.00550491
0.00654471
0.00550491
0.00604338
0.00900222
0.00654471
0.00779488
0.00779488
0.00856698
0.00779488
0.00947451
0.00998505
0.00550491
0.00728506
0.00540639
0.00540639
0.00581797
0.00604338
0.0071263
0.00728506
0.00668219
0.00668219
0.00836245
0.00540639
0.00616194
0.00571053
0.00571053
0.00540639
0.00728506
0.0071263
0.00947451
0.00628482
0.00856698
0.00797699
0.00816598
0.00998505
0.00998505
0.00972496
0.00779488
0.00581797
0.00581797
0.00550491
0.00641233
0.00540639
0.00641233
0.00581797
0.00641233
0.00797699
0.00571053
0.00641233
0.0087801
0.0071263
0.00616194
0.00728506
0.0102548
0.00540639
0.00560624
0.00779488
0.0102548
0.00900222
0.00728506
0.0071263
0.00616194
0.00744927
0.00571053
0.00972496
0.00682491
0.00856698
0.00728506
0.00628482
0.00856698
0.0087801
0.00540639
0.00856698
0.00540639
0.00641233
0.00744927
0.00923363
0.00628482
0.00797699
0.00571053
0.00900222
0.00550491
0.0102548
0.00744927
0.0108239
0.0102548
0.00641233
0.0102548
0.0102548
0.00779488
0.0108239
0.00744927
0.00797699
0.00628482
0.0102548
0.00697293
0.0105344
0.00616194
0.0102548
0.00923363
0.00836245
0.00581797
0.00641233
0.00668219
0.00616194
0.00682491
0.00668219
0.00779488
0.00641233
0.00654471
0.0108239
0.00641233
0.0111233
0.00697293
0.0111233
0.00641233
0.00816598
0.00998505
0.00540639
0.00560624
0.00728506
0.00972496
0.0114328
0.00581797
0.00744927
0.0111233
0.0114328
0.00947451
0.00604338
0.0114328
0.0087801
0.00797699
0.0117525
0.00697293
0.0071263
0.00571053
0.00604338
0.00654471
0.0102548
0.00654471
0.00836245
0.00923363
0.0117525
0.00998505
0.00998505
0.00550491
0.0117525
0.00604338
0.0087801
0.00592882
0.00779488
0.00540639
0.00668219
0.00616194
0.00571053
0.00728506
0.0120824
0.00550491
0.00998505
0.0117525
0.00697293
0.0018615
0.00164643
0.00744927
0.00654471
0.00311837
0.00214032
0.0042518
0.00397391
0.0039795
0.00345102
0.00299588
0.00434627
0.0120824
0.00504543
0.0050175
0.00462842
9.91992e-05
0.0040223
0.00558542
0.00476371
0.00537538
0.00451522
0.00117612
0.00357971
0.00406491
0.00483552
0.00396741
0.00302051
0.00409345
0.00463958
0.00797699
0.00386272
0.00570658
0.00512092
0.00582075
0.005432
0.002274
0.00538947
0.0030453
0.0053392
0.00336267
0.00595485
0.00543126
0.0047086
0.000791638
0.00616331
0.00505028
0.0105344
0.00476761
0.00471093
0.00651393
0.00458834
0.00617264
0.00523697
0.00417381
0.00248344
0.00549247
0.00600596
0.00552297
0.00403633
0.00537331
0.00675829
0.00684158
0.00593917
0.00345434
0.00172923
0.000645422
0.0025359
0.00214363
0.00675829
0.00667105
0.00711022
0.00728506
0.00239964
0.00514645
0.00689326
0.00554948
0.00718872
0.00314603
0.00430378
0.00761638
0.00588226
0.00751125
0.000635958
0.00331381
0.00604349
0.0105344
0.00229307
0.00663238
0.00662378
0.00700438
0.00758777
0.00638498
0.00645784
0.00571511
0.00720401
0.00770167
0.00299584
0.00671697
0.00803702
0.00360459
0.0120824
0.00797598
0.00856698
0.00187867
0.00478372
0.00403143
0.00171088
0.00637395
0.00664761
0.00845056
0.00521163
0.00407839
0.00547549
0.00696182
0.00478382
0.0070563
0.00896582
0.00960567
0.00639151
0.00433564
0.00569562
0.00994874
0.00306963
0.00857771
0.00114425
0.0105138
0.00568469
0.00610466
0.00268784
0.00975805
0.0108169
0.00721093
0.00853946
0.0102633
0.00239013
0.00756584
0.00487468
0.0117437
0.00480944
0.0116572
0.00846918
0.00272624
0.00903192
0.00327604
0.00347792
0.00395097
0.00430429
0.00430429
0.00369429
0.00450071
0.00430429
0.00436801
0.00347792
0.00406356
0.00450071
0.00333461
0.00430429
0.00355937
0.00424209
0.00443342
0.00450071
0.00333461
0.00443342
0.00364764
0.00340319
0.00389668
0.00450071
0.00418128
0.00395097
0.00343974
0.00464177
0.00412179
0.00374256
0.00424209
0.00384381
0.00336818
0.00389668
0.00379242
0.0047159
0.00360266
0.00384381
0.00450071
0.00436801
0.0047159
0.00360266
0.00333461
0.00343974
0.00418128
0.00379242
0.00374256
0.00333461
0.00333461
0.00333461
0.00364764
0.00443342
0.00436801
0.00430429
0.00369429
0.00464177
0.00330235
0.00360266
0.00343974
0.00374256
0.00379242
0.00343974
0.00351779
0.00479265
0.00443342
0.00412179
0.00457009
0.00450071
0.00418128
0.00479265
0.00443342
0.00430429
0.00389668
0.00340319
0.00374256
0.00384381
0.00340319
0.00450071
0.00347792
0.0047159
0.00384381
0.00424209
0.0048721
0.0048721
0.00333461
0.00418128
0.00436801
0.0048721
0.00360266
0.00343974
0.00412179
0.00369429
0.00369429
0.00343974
0.00430429
0.00464177
0.00379242
0.00495431
0.0048721
0.00436801
0.00418128
0.00495431
0.00384381
0.00347792
0.00336818
0.00336818
0.00418128
0.00364764
0.00406356
0.00395097
0.00384381
0.00343974
0.00479265
0.00418128
0.00330235
0.00333461
0.00347792
0.00364764
0.00360266
0.00412179
0.00374256
0.00374256
0.00464177
0.00351779
0.00355937
0.00503928
0.00384381
0.00395097
0.00457009
0.00400661
0.00436801
0.00503928
0.00495431
0.00503928
0.00340319
0.00336818
0.00443342
0.00379242
0.00503928
0.00450071
0.00330235
0.00351779
0.00464177
0.00479265
0.0048721
0.00369429
0.00464177
0.00389668
0.00379242
0.00360266
0.00369429
0.005127
0.00424209
0.005127
0.00400661
0.00412179
0.0048721
0.00457009
0.00503928
0.005127
0.00379242
0.00436801
0.005127
0.00340319
0.00374256
0.005127
0.00336818
0.00364764
0.00400661
0.00369429
0.00379242
0.00521743
0.00464177
0.00503928
0.00521743
0.00521743
0.00418128
0.00521743
0.00360266
0.00450071
0.00374256
0.00374256
0.0048721
0.00379242
0.00347792
0.00355937
0.00521743
0.005127
0.00384381
0.00406356
0.00464177
0.00521743
0.00430429
0.00389668
0.00521743
0.00450071
0.00395097
0.00340319
0.00495431
0.00531055
0.00351779
0.00424209
0.00457009
0.00464177
0.00355937
0.00400661
0.00395097
0.00436801
0.0048721
0.000317183
0.00400661
0.00531055
0.00418128
0.00211063
0.00022541
0.00336818
0.00041284
0.00364764
0.0013242
0.00300562
0.00214008
0.00308182
0.00321782
0.00330235
0.00326862
0.00336705
0.00230294
0.00374256
0.0033465
0.00284393
0.00184357
0.0033108
0.00326456
0.00308027
0.0014158
0.0023593
0.00312174
0.00056745
0.00333564
0.00139452
0.00374256
0.00531055
0.00336106
0.00038169
0.00251481
0.00327289
0.00347723
0.00337963
0.0017891
0.00235109
0.00317935
0.00240025
0.00345002
0.00312174
0.00342874
0.00349232
0.00229722
0.00354578
0.000375271
0.00364764
0.00201771
0.00365379
0.00257174
0.00165304
0.00377722
0.00412179
0.00384051
0.00379242
0.000255019
0.00361105
0.00370524
0.0037389
0.0010149
0.00167642
0.00282316
0.00381862
0.00238224
0.00241608
0.00394745
0.00311896
0.00394745
0.00346437
0.00386048
0.00379796
0.00121346
0.00241067
0.00239937
0.00324838
0.00495431
0.00404057
0.00405724
0.00393033
0.00297456
0.00300013
0.00417109
0.00418067
0.0034034
0.00409702
0.00268857
0.00415418
0.00310908
0.00415418
0.003838
0.00430218
0.0042641
0.00424066
0.00316548
0.00390803
0.00377518
0.00292151
0.00441575
0.00295166
0.000576834
0.00237276
0.00364642
0.00453959
0.00321783
0.00312264
0.00353274
0.00419413
0.00165176
0.00395907
0.00440609
0.00531055
0.00222762
0.000134221
0.00289602
0.00214392
0.00456596
0.00410249
0.00162254
0.00441924
0.00320093
0.00458783
0.00357958
0.00448385
0.00531055
0.00183178
0.00496855
0.00427665
0.00218508
0.002004
0.00209763
0.00365505
0.00316293
0.00465839
0.00453066
0.00495757
0.00485897
0.00504243
0.00499021
0.00530703
0.00438434
0.00277206
0.00280024
0.00271536
0.00268686
0.00293881
0.00274377
0.00277206
0.00291144
0.00248477
0.00268686
0.00262957
0.00304685
0.00285617
0.00245559
0.00257192
0.00262957
0.00230956
0.00301998
0.00254295
0.00239711
0.00274377
0.00277206
0.00233869
0.00301998
0.00254295
0.00310075
0.00242636
0.00233869
0.00262957
0.00248477
0.00291144
0.00310075
0.00233869
0.00291144
0.00260079
0.00262957
0.00230956
0.00304685
0.00260079
0.00262957
0.00233869
0.00307375
0.00254295
0.00248477
0.00301998
0.00242636
0.00301998
0.00265826
0.00254295
0.00271536
0.00312795
0.00257192
0.00230956
0.00242636
0.00257192
0.00245559
0.00242636
0.00293881
0.00274377
0.00310075
0.00236788
0.00242636
0.00280024
0.0028839
0.00299304
0.00282828
0.0025139
0.00299304
0.00315548
0.00245559
0.00248477
0.0025139
0.00271536
0.00315548
0.00315548
0.00285617
0.00277206
0.00268686
0.00312795
0.0028839
0.00239711
0.00260079
0.00315548
0.002966
0.00257192
0.00244243
0.00315548
0.00282828
0.00257192
0.00301998
0.00262957
0.00271536
0.00304685
0.00239711
0.00293881
0.00265826
0.00312795
0.00257192
0.00265826
0.00280024
0.00271536
0.00268686
0.00291144
0.00277206
0.00307375
0.00248477
0.00230956
0.00318343
0.00268686
0.00293881
0.00260079
0.00318343
0.002966
0.00312795
0.002966
0.00265826
0.00280024
0.00315548
0.00268686
0.00271536
0.00307375
0.00312795
0.00260079
0.0025139
0.00230956
0.00310075
0.00282828
0.00236788
0.0028839
0.00245559
0.00282828
0.00265826
0.00315548
0.002966
0.00248477
0.00277206
0.00293881
0.00280024
0.00321196
0.00274377
0.00315548
0.00251285
0.00310075
0.00245559
0.00304685
0.00318343
0.0032412
0.00245559
0.0032412
0.00257192
0.00271536
0.00260079
0.00310075
0.00233869
0.0032412
0.00307375
0.00277206
0.00293881
0.0032412
0.00230956
0.00285617
0.00257192
0.00301998
0.00262957
0.0032412
0.00242636
0.00282828
0.00280024
0.00230956
0.00274377
0.00260079
0.0032412
0.00307375
0.00318343
0.00327129
0.00285617
0.00236788
0.00274377
0.00277206
0.00327129
0.00301998
0.00318343
0.00304685
0.000253699
0.000602874
0.00116486
0.000513451
0.00301998
0.00176472
0.00109764
0.00218384
0.00191878
0.00210835
0.00203513
0.000729803
0.00208729
0.00179781
0.00213513
0.00109763
0.0020195
0.00119082
0.000675048
0.00213834
0.00218944
0.00212418
0.00164965
0.00224701
0.00200889
0.00231987
0.00233855
0.00219615
0.00209297
0.00112223
0.00236559
0.00222199
0.00117042
0.00239379
0.00152191
0.00236393
0.0023357
0.00236095
0.00201873
0.00239711
0.00204653
0.00239379
0.00113473
0.00238878
0.00230306
0.0011949
0.00213856
0.00156061
0.00245559
0.00198313
0.000848588
0.00214056
0.00121925
0.00184626
0.00248477
0.00248477
0.00241604
0.0023208
0.00194541
0.00232317
0.000188822
0.000857987
0.00175466
0.00238593
0.00184706
0.00108037
0.00249995
0.00184713
0.00127877
0.00215858
0.00225465
0.00157943
0.00229825
0.00248962
0.0024229
0.00205211
0.00176208
0.00217902
0.00255941
0.00219768
0.00246237
0.00220801
0.00205659
0.00101453
0.00253341
0.00232469
0.00238565
0.00202535
0.00258368
0.0025923
0.00180825
0.00221249
0.00111374
0.00265623
0.00244529
0.00261535
0.00181456
0.00206677
0.00202915
0.00192717
0.00257628
0.00267524
0.00327129
0.00160641
0.00241962
0.00201652
0.0015404
0.00154408
0.0021306
0.00220464
0.00269844
0.00221676
0.00246065
0.00268296
0.00271355
0.0015404
0.00205405
0.00264258
0.00218274
0.00234038
0.00254943
0.00261538
0.00153397
0.0025585
0.00267263
0.000860378
0.00252377
0.00227636
0.00243502
0.0024234
0.000943694
0.00282828
0.0023304
0.00273901
0.00276264
0.000758322
0.00279967
0.00167998
0.0023304
0.00245363
0.00279967
0.0024103
0.0020825
0.00233482
0.00221079
0.00243983
0.00249586
0.00175135
0.00269992
0.00107961
0.00156047
0.00280126
0.00172558
0.00244346
0.00237672
0.00275994
0.00289828
0.00168358
0.00293335
0.00281487
0.00297767
0.00082643
0.00278615
0.00293487
0.00296374
0.000304765
0.00250467
0.00233251
0.00131338
0.00277705
0.00301197
0.00296037
0.00300708
0.00300217
0.000942937
0.0032412
0.00303364
0.00254976
0.00267312
0.00265992
0.0030572
0.00269908
0.0030804
0.00292482
8.76415e-05
0.00312705
0.00258049
0.0027405
0.00278124
0.00313408
0.00321196
0.0027405
0.0028663
0.00315548
0.00301453
0.00259536
0.0020492
0.00316148
0.00318248
0.00318343
0.00264162
0.00216488
0.00181629
0.0030197
0.00327129
0.00278058
0.00323914
0.00323773
0.00195169
0.000132728
0.00327025
0.00178307
0.00191913
0.00208176
0.00169015
0.00191913
0.00152588
0.00216586
0.00181503
0.00178957
0.00166591
0.00178957
0.00181503
0.00152588
0.0019725
0.00181503
0.00150345
0.00173937
0.00210959
0.00178957
0.0014813
0.00186663
0.00210959
0.00181503
0.00189277
0.00141644
0.00154856
0.00152588
0.00210959
0.00216586
0.00178957
0.00219427
0.00139562
0.00176435
0.00157151
0.00145941
0.00159472
0.00202672
0.00164192
0.00141644
0.0019995
0.00139562
0.00184072
0.00157151
0.00219427
0.0016182
0.00143779
0.00210959
0.00219427
0.00184072
0.00152588
0.00150345
0.00157151
0.00143779
0.00222287
0.00141644
0.00186663
0.00166591
0.00210959
0.00159472
0.0016182
0.00181503
0.00171464
0.0019995
0.00159472
0.00222287
0.00176435
0.00194571
0.00219427
0.00205414
0.00176435
0.00222287
0.00189277
0.00222287
0.00210959
0.00150345
0.00189277
0.00150345
0.00222287
0.00178957
0.00173937
0.00178957
0.00169015
0.00150345
0.00150345
0.00222287
0.0019995
0.0016182
0.0019725
0.00152588
0.00222287
0.00157151
0.00189277
0.00166591
0.0016182
0.00222287
0.00208176
0.00166591
0.00202672
0.00210959
0.0016182
0.00164192
0.00181503
0.00194571
0.0016182
0.0014813
0.0014813
0.0019995
0.00139562
0.00164192
0.0014813
0.0016182
0.00157151
0.00164192
0.00186663
0.00191913
0.00191913
0.00208176
0.00141644
0.00152588
0.00143779
0.00152588
0.0019725
0.00173937
0.00189277
0.00157151
0.00216586
0.00145941
0.00194571
0.00169015
0.00150345
0.00181503
0.00159472
0.00173937
0.00143779
0.00225163
0.00173937
0.00219427
0.00216586
0.00189277
0.00171464
0.00202672
0.00145941
0.00154856
0.00164192
0.00213763
0.00225163
0.00191913
0.00202672
0.00205414
0.00171464
0.00164192
0.00166591
0.00173937
0.00157151
0.0019995
0.00150345
0.00216586
0.00205414
0.00202672
0.00150345
0.00152588
0.00171464
0.00171464
0.0016182
0.00166591
0.0016182
0.00157151
0.00166591
0.00205414
0.00159472
0.00152588
0.00225163
0.00189277
0.00157151
0.00157151
0.00225163
0.00173937
0.00159472
0.00159472
0.00169015
0.00202672
0.00191913
0.00139562
0.00184072
0.00139562
0.00169015
0.00145941
0.0016182
0.00159472
0.00225163
0.00186663
0.00164192
0.00143779
0.00141644
0.0014813
8.75e-05
0.00141644
0.000215959
8.75001e-05
0.00208176
0.00194571
0.00202672
0.00105168
0.00147058
0.000860219
0.00134586
0.00189277
0.0014813
0.00139562
0.000555692
0.00042409
0.000923855
0.000971602
0.00139551
0.000529691
0.00111218
0.000915785
0.000965136
0.000506604
0.00100942
0.00139084
0.000567071
0.00124972
0.00130139
0.00137598
0.00117248
0.00134194
0.00116521
0.0013837
0.0013337
0.00110261
8.75002e-05
0.00134964
0.00118897
0.00132062
0.00136069
8.75e-05
0.00110016
0.00107412
0.00189277
0.000853723
0.00228053
0.00225163
0.00159472
0.00140689
0.00126829
0.00141529
0.00100529
0.00091128
0.00137058
0.00154856
0.00222287
0.000287282
0.000775648
0.00112565
0.00131544
0.00122101
0.00114071
0.00141658
0.00111298
0.00125002
0.00108781
0.000193122
0.00141917
0.000406556
0.00117045
0.00137258
0.00164192
0.00144006
0.0014094
0.00038188
0.00146253
0.00143874
0.00130679
0.00144603
0.00145646
0.000882783
0.00216586
0.00140789
0.00143303
0.0014574
0.00132306
0.00078958
0.00148084
0.00126046
0.00038188
0.00145937
0.0014813
0.00142564
0.00146253
0.00133661
0.00110627
0.00141179
0.00136695
0.00118221
0.00143408
0.00144105
0.00146252
0.00133223
0.00118948
0.00216586
0.00114923
0.00135686
0.00144301
0.00140106
0.00150129
0.00125487
0.0012505
0.00132492
0.000232547
0.00152257
0.00151986
0.00118369
0.0013809
0.00146353
0.00144572
0.00119641
0.00149286
0.00152132
0.00205414
0.0014225
0.00194571
0.000387647
0.00151537
0.00120299
0.00128144
0.0012946
0.000743968
0.00123726
0.00109365
0.00153656
0.001498
0.0016182
0.00166591
0.00153424
0.00138367
0.0014291
0.0016182
0.00154711
0.00184072
0.00154856
0.00133075
0.00152606
0.00064851
0.001532
0.00147939
0.000619069
0.00114339
0.0015666
0.000674656
0.00153656
0.00143734
0.00154826
0.00133509
0.00129436
0.00153968
0.00134996
0.00105893
0.00156417
0.00154815
0.00110406
0.00153034
0.0013133
0.00155535
0.00151685
0.00159417
0.00119383
0.000954921
0.000340822
0.00151964
0.00191913
0.0019725
0.00140518
0.00103924
0.00160477
0.00160929
0.0015487
0.00160078
8.75e-05
0.00118845
0.0016129
0.00141807
0.00153251
0.0016129
0.00158332
0.00146453
0.00156985
0.00129484
0.00149641
0.00162925
0.00155943
0.000996216
0.00163642
0.00159079
0.00126857
0.0014092
0.00164103
0.00152682
0.00166591
0.00132306
0.00165519
0.00163107
0.000636398
0.00162667
0.00141954
0.00169009
0.000584531
0.00154206
0.00130821
0.00228053
0.00146334
0.00163514
0.00149898
0.0014295
0.00168507
0.00159354
0.00166012
0.00166203
0.00166012
0.00166012
0.00117128
0.000379393
0.00138373
0.00186663
0.00132572
0.00142953
0.00164046
0.00167223
0.000291001
0.00173475
0.000613107
0.00170545
0.00171444
0.00169105
0.00170754
0.000898819
0.000950614
0.00164346
0.00167492
0.00167372
0.00167933
0.00228053
0.00173937
0.00126576
0.00171018
0.00155855
0.00150648
0.00171844
0.00139508
0.00151142
0.000787871
0.00173742
0.00173791
0.00161322
0.00151829
0.00173299
0.000851818
0.00176429
0.00210959
8.75e-05
0.00176652
0.00108226
0.00102839
0.0015864
0.0015725
0.00104938
0.000774358
0.00176327
0.00165933
0.000681675
0.00162836
0.00170363
0.00175774
0.00150254
0.00175706
0.00148351
0.00179169
0.00157345
0.00156622
0.00118722
0.00115887
0.00178883
0.00169574
0.0016957
0.00178569
0.0018002
0.00176102
0.00064598
0.00173724
0.000724681
8.75e-05
0.00046323
8.75e-05
0.0017693
0.00171721
0.00153993
0.00152964
0.00170878
0.00182029
0.00117885
0.00156864
0.00184547
0.00186362
0.00184157
0.000823046
0.00155727
0.000778932
0.00174726
8.75e-05
0.00125014
0.00100162
0.00184547
0.00143564
0.00185656
0.00182285
0.00168303
0.00185529
0.00180537
0.00187791
0.00165444
0.00147495
0.00181683
0.00105624
0.00175358
0.00148162
0.00189224
0.00191662
0.00154859
0.00191887
0.00194563
0.00182253
0.00189104
0.0014071
0.00191318
0.00192801
0.00175358
0.00188757
0.0019725
0.00181612
0.00107104
0.0019609
0.00121653
0.00216586
0.00162577
0.000720787
0.00188757
0.00177679
0.00197854
0.000936962
0.00174042
0.00195926
0.00180548
0.00136515
0.00201863
0.00172787
0.00201263
0.00166587
0.0018855
0.00204287
0.00181458
0.00154372
0.00195583
0.00157697
0.00204931
0.00204931
0.00188143
0.00177124
0.00180386
0.00128223
0.00179098
0.00202055
0.00151998
0.00198895
0.00191459
0.00177124
0.00207944
0.00207444
0.00207944
0.0020731
0.00188589
0.00180337
0.00180337
0.00209582
0.00198895
0.00210892
0.00187592
0.00210064
0.00210959
0.00210639
0.00198525
0.00206965
0.00165743
0.00216586
0.0018483
8.75e-05
0.00176496
8.75e-05
0.001883
0.00213431
0.00213586
0.00198782
0.00211031
0.000665604
0.000700526
0.000335981
0.00216329
0.00193714
0.00215775
0.00203843
0.00228053
0.00153013
0.00228053
0.00218729
0.0010478
0.00219427
0.00218589
0.00171088
0.00070895
0.0017923
0.0017758
0.00212841
0.0015221
0.00214644
0.00219271
0.000886292
0.00183248
0.00143951
0.00228053
0.00220713
0.00215069
0.00153171
0.002154
0.00224268
8.75e-05
0.00160576
0.00201488
0.00159657
0.000329432
0.00216357
0.00106054
0.00207183
0.00220359
0.00224836
0.0018675
)


// ************************************************************************* //
