/*--------------------------------*- C++ -*----------------------------------*\
  =========                 |
  \\      /  F ield         | OpenFOAM: The Open Source CFD Toolbox
   \\    /   O peration     | Website:  https://openfoam.org
    \\  /    A nd           | Version:  7
     \\/     M anipulation  |
\*---------------------------------------------------------------------------*/
FoamFile
{
    version     2.0;
    format      ascii;
    class       scalarField;
    location    "0.7/lagrangian/reactingCloud1";
    object      age;
}
// * * * * * * * * * * * * * * * * * * * * * * * * * * * * * * * * * * * * * //


2444
(
0.004115
0.00401
0.003905
0.0038
0.003695
0.00359
0.003485
0.00338
0.003275
0.00317
0.003065
0.00296
0.002855
0.00275
0.002645
0.00254
0.002435
0.00233
0.002225
0.00212
0.002015
0.00191
0.001805
0.0017
0.001595
0.00149
0.001385
0.00138125
0.00128
0.001175
0.00107
0.000965
0.00086
0.000755
0.00065
0.000545
0.00044
0.000335
0.00023
0.000125
2e-05
0.156105
0.155905
0.097625
0.01928
0.01168
0.011155
0.010525
0.01042
0.010105
0.01
0.0099
0.0098
0.0097
0.0096
0.0095
0.0094
0.0093
0.0091
0.009
0.0089
0.0088
0.0087
0.0086
0.0085
0.0084
0.0082
0.0083
0.0092
0.0081
0.008
0.0079
0.0077
0.0078
0.0076
0.0075
0.0073
0.0074
0.0072
0.0071
0.007
0.0069
0.0068
0.0067
0.0066
0.0065
0.0063
0.0064
0.0062
0.0061
0.006
0.0059
0.005795
0.00569
0.005585
0.00548
0.00527
0.005375
0.005165
0.00506
0.004955
0.00485
0.004745
0.00464
0.004535
0.00443
0.004325
0.00422
0.02082
0.01252
0.012625
0.01525
0.0121
0.01189
0.011785
0.01231
0.011995
0.0116762
0.012205
0.02208
0.011575
0.01126
0.010945
0.011365
0.012415
0.01147
0.01105
0.010735
0.01084
0.010315
0.01063
0.01021
0.015145
0.01336
0.013465
0.014725
0.01315
0.013255
0.01357
0.013045
0.012835
0.01658
0.01273
0.01294
0.01567
0.015355
0.01483
0.015565
0.01504
0.0147212
0.014935
0.014515
0.01441
0.01588
0.01546
0.014095
0.0155612
0.014305
0.01462
0.0142
0.013675
0.01399
0.01378
0.013885
0.01938
0.01728
0.01708
0.01688
0.01668
0.01818
0.01638
0.01718
0.01698
0.01648
0.01628
0.01678
0.01608
0.01598
0.01618
0.015775
0.02418
0.024285
0.01988
0.02061
0.020295
0.01998
0.01968
0.021555
0.02166
0.020085
0.01958
0.01908
0.01918
0.01948
0.01878
0.01898
0.01978
0.01888
0.01868
0.01838
0.01828
0.01858
0.01808
0.01778
0.01798
0.01788
0.01768
0.01758
0.01848
0.01748
0.01738
0.022472
0.02866
0.024705
0.02786
0.02986
0.02397
0.02376
0.023865
0.02355
0.02334
0.024915
0.023445
0.023655
0.02313
0.023025
0.023235
0.022815
0.0225
0.02292
0.02271
0.022605
0.02229
0.022395
0.022185
0.021975
0.02187
0.021765
0.0246
0.02145
0.021345
0.02124
0.024075
0.02103
0.020925
0.021135
0.020715
0.020505
0.02019
0.0204
0.0455557
0.0261501
0.0299011
0.0344431
0.0277761
0.033845
0.030695
0.030905
0.02956
0.02966
0.02926
0.030275
0.02906
0.02896
0.03038
0.02916
0.02826
0.02836
0.02846
0.02946
0.02806
0.02876
0.02816
0.02796
0.02856
0.02936
0.02746
0.02766
0.02726
0.02756
0.02736
0.02676
0.02776
0.02696
0.02666
0.02706
0.02636
0.035315
0.02616
0.03017
0.02886
0.02686
0.02646
0.02606
0.02716
0.02656
0.025335
0.02596
0.02502
0.02544
0.02565
0.025755
0.02626
0.02481
0.025545
0.02523
0.024495
0.02439
0.025125
0.02586
0.0385237
0.0438856
0.0371258
0.0360298
0.0325731
0.0348444
0.0334069
0.0367714
0.035002
0.0349346
0.0382798
0.0365837
0.043615
0.037945
0.040465
0.036645
0.036745
0.037345
0.037045
0.036245
0.037645
0.036345
0.035945
0.036545
0.047325
0.035735
0.036145
0.03521
0.0412
0.035
0.037845
0.035525
0.034685
0.03479
0.038645
0.034265
0.03395
0.03437
0.036045
0.034475
0.033635
0.034055
0.035105
0.03416
0.033425
0.03374
0.03584
0.03332
0.03458
0.03311
0.036445
0.034895
0.033215
0.032795
0.0329
0.03563
0.033005
0.03353
0.03248
0.032375
0.032165
0.03227
0.039845
0.03269
0.031955
0.031325
0.03542
0.03122
0.031745
0.031115
0.03206
0.03101
0.03185
0.032585
0.031535
0.0308
0.030065
0.030485
0.038345
0.03059
0.02996
0.03143
0.03164
0.02976
0.069085
0.0412147
0.0440692
0.043437
0.0441316
0.0419718
0.0443507
0.0414136
0.042469
0.040583
0.03997
0.0396477
0.0395833
0.0436381
0.0441259
0.0402967
0.124619
0.0417587
0.0396652
0.0453372
0.0407688
0.0391357
0.0379572
0.0441857
0.038821
0.03785
0.0387178
0.0440951
0.0370045
0.0386274
0.05433
0.049725
0.048425
0.046025
0.044245
0.046225
0.048925
0.045085
0.05076
0.04351
0.043405
0.04561
0.04582
0.044665
0.043195
0.044035
0.046525
0.043825
0.04309
0.0463676
0.04288
0.046925
0.050025
0.04393
0.042985
0.044455
0.047025
0.041935
0.042355
0.041725
0.048625
0.042565
0.04246
0.058505
0.041305
0.042775
0.04141
0.04162
0.046325
0.04267
0.04078
0.041095
0.040885
0.04372
0.040675
0.042145
0.04477
0.04204
0.04225
0.0433
0.04057
0.039945
0.045715
0.04099
0.04183
0.040045
0.039745
0.039545
0.0400412
0.045295
0.039645
0.04414
0.04015
0.040255
0.039245
0.04519
0.0536962
0.038245
0.038045
0.038545
0.04435
0.038745
0.039345
0.037445
0.041515
0.04036
0.037745
0.037245
0.038845
0.038445
0.038145
0.036945
0.0375422
0.039145
0.038945
0.039445
0.039045
0.036845
0.037145
0.0503178
0.0489827
0.0491774
0.0496153
0.0489746
0.0577441
0.0547856
0.051026
0.0504703
0.0515897
0.0478548
0.0540601
0.053571
0.0486294
0.0570763
0.0470699
0.0535153
0.0549117
0.0535269
0.0554346
0.0466177
0.048677
0.0477444
0.0537051
0.0518976
0.0533321
0.0461035
0.0568227
0.0575045
0.0495943
0.052537
0.0496336
0.0481288
0.0469758
0.0486535
0.0543726
0.0545815
0.045831
0.0502894
0.0498109
0.0520635
0.0495527
0.0489752
0.0513417
0.0564944
0.045979
0.0536488
0.0511876
0.0490304
0.0621439
0.0502157
0.0534018
0.0566392
0.0497403
0.045361
0.0445178
0.0498409
0.0549793
0.0475605
0.0539865
0.0456573
0.0577967
0.0478551
0.0441051
0.0509495
0.0558658
0.0514267
0.0468571
0.0493529
0.053547
0.0482014
0.0453945
0.0514262
0.0439782
0.0461416
0.0461363
0.0566983
0.0446
0.059105
0.06179
0.060425
0.057405
0.062525
0.057705
0.060845
0.057005
0.057305
0.060005
0.063575
0.059805
0.05559
0.06326
0.056505
0.055275
0.055485
0.0447059
0.05517
0.054645
0.056305
0.0542926
0.056105
0.058305
0.055905
0.054855
0.05496
0.05412
0.058705
0.062735
0.0545362
0.056905
0.054225
0.053595
0.0529345
0.061685
0.054435
0.056005
0.0537
0.062105
0.06557
0.053385
0.052755
0.05286
0.055695
0.051285
0.0541162
0.051915
0.05391
0.05475
0.051495
0.05265
0.052125
0.05307
0.053805
0.051705
0.051075
0.056205
0.05328
0.0491484
0.05244
0.056605
0.052965
0.05013
0.050235
0.052335
0.055065
0.0507562
0.05181
0.0516
0.049425
0.05349
0.056805
0.05118
0.048525
0.049125
0.05097
0.05034
0.0558
0.049325
0.0496235
0.049825
0.047125
0.050865
0.047625
0.048025
0.050655
0.05139
0.048725
0.048225
0.048825
0.046825
0.047425
0.049525
0.046725
0.046425
0.058905
0.047825
0.046125
0.047225
0.049225
0.05223
0.047725
0.049025
0.0454
0.049925
0.048325
0.05202
0.05055
0.056405
0.045925
0.044875
0.04456
0.045505
0.047525
0.07429
0.04498
0.047925
0.0663299
0.0664104
0.0625606
0.06501
0.0674298
0.0616262
0.065367
0.0646671
0.0704879
0.0663503
0.0634717
0.0690238
0.0596387
0.0713842
0.0735744
0.0614079
0.0663594
0.0705043
0.0651225
0.0730345
0.0604887
0.0609854
0.0649568
0.0615435
0.0610983
0.0677345
0.0726706
0.0695744
0.0674178
0.0654542
0.0664804
0.0662929
0.0704086
0.0655494
0.0586348
0.0744853
0.0600154
0.0680809
0.060691
0.0754799
0.0651942
0.077362
0.0589662
0.0642913
0.0672609
0.0673557
0.0633119
0.0707328
0.0587818
0.0652725
0.0617191
0.0631704
0.0645581
0.0636402
0.0703315
0.0692794
0.0651107
0.0641435
0.0734051
0.0587867
0.0637455
0.0613286
0.0723868
0.0692479
0.0666407
0.0638202
0.0649307
0.0658325
0.069179
0.0631804
0.0649673
0.0668244
0.0666183
0.0637328
0.0704385
0.0652185
0.0622566
0.0650019
0.0627626
0.0614323
0.061571
0.0661992
0.0611323
0.0583919
0.0619296
0.059459
0.0626938
0.0678254
0.0659196
0.0579467
0.0611772
0.0702512
0.0700533
0.0690259
0.0690371
0.064196
0.0647537
0.0691456
0.0670333
0.0597037
0.0650953
0.0605371
0.0674985
0.0662175
0.0573283
0.0668942
0.0671013
0.0590576
0.0582287
0.060608
0.0638057
0.0657242
0.0621096
0.0750284
0.0575188
0.0580379
0.0749895
0.058219
0.0723563
0.0579466
0.0688146
0.0613397
0.062726
0.0666
0.0770672
0.0683636
0.0661468
0.074429
0.0616859
0.0651024
0.0646829
0.071637
0.0593141
0.0588066
0.0630222
0.0582644
0.0769394
0.0606326
0.0605227
0.0694082
0.0606348
0.0700562
0.0604314
0.0584753
0.057851
0.0592117
0.0668488
0.0590931
0.0636569
0.068783
0.0750875
0.0628973
0.0680811
0.058015
0.061926
0.0589049
0.0675725
0.0576645
0.0684032
0.0636381
0.0627703
0.0580409
0.0672414
0.0580937
0.0597833
0.071294
0.056337
0.0561408
0.0615771
0.0621444
0.0706403
0.0667034
0.0576341
0.058546
0.0617651
0.0592546
0.0606097
0.0561766
0.0669861
0.0583846
0.0668957
0.0637606
0.0640216
0.0625958
0.0665983
0.0689438
0.0635293
0.0650291
0.0668555
0.0608971
0.0632373
0.0597921
0.0586003
0.0702859
0.0693686
0.0608391
0.0560507
0.0606471
0.0554321
0.074067
0.0665025
0.0592906
0.0694515
0.0690256
0.0614925
0.0693221
0.0796183
0.0563103
0.0553799
0.0695478
0.0727093
0.0676403
0.08521
0.0716457
0.086445
0.07534
0.0557519
0.077865
0.0554341
0.090255
0.075445
0.0803762
0.079165
0.076565
0.07072
0.0699977
0.070615
0.072085
0.07114
0.069885
0.069285
0.070825
0.0723962
0.069485
0.069785
0.07345
0.0744962
0.0718712
0.072925
0.071665
0.070405
0.066985
0.078365
0.0703
0.072505
0.0624248
0.068485
0.067185
0.067885
0.067385
0.066485
0.069985
0.07366
0.066585
0.066685
0.068985
0.07282
0.0659333
0.067585
0.065465
0.066885
0.068785
0.065255
0.067785
0.075025
0.065675
0.065885
0.068685
0.06452
0.069385
0.068285
0.06515
0.068885
0.0658927
0.065045
0.064205
0.067685
0.068185
0.06473
0.06347
0.069185
0.06368
0.06431
0.063785
0.06494
0.070195
0.067985
0.067085
0.066785
0.064625
0.069585
0.06284
0.06221
0.061895
0.06305
0.06263
0.066285
0.06137
0.0641
0.067285
0.06032
0.068385
0.068085
0.066085
0.060635
0.063995
0.062
0.06389
0.061265
0.0719762
0.06242
0.06053
0.06578
0.06158
0.0603162
0.064835
0.059605
0.06095
0.06116
0.059905
0.059305
0.071035
0.059705
0.0610509
0.061475
0.066385
0.058405
0.057805
0.062945
0.0594
0.063365
0.058205
0.059005
0.0592745
0.058605
0.060215
0.0611562
0.058805
0.058005
0.06536
0.062315
0.059205
0.071455
0.056107
0.073135
0.057905
0.057205
0.06074
0.064415
0.06011
0.058105
0.063155
0.057605
0.057105
0.056705
0.057505
0.0838771
0.0781576
0.0795771
0.0841403
0.0904761
0.0841933
0.0795544
0.0782479
0.0817067
0.0747867
0.078674
0.0828036
0.0772846
0.0843474
0.0819925
0.0782678
0.0867157
0.0762938
0.0813757
0.0799286
0.0876948
0.0883718
0.0772511
0.09349
0.0806361
0.0873457
0.0770639
0.0782384
0.0815405
0.0819088
0.0828772
0.0865044
0.0806012
0.0878383
0.0862785
0.0758055
0.0823161
0.0775131
0.0786371
0.0830966
0.0812646
0.0787295
0.0877622
0.073603
0.0873482
0.0775243
0.0836776
0.0856676
0.0825924
0.0842693
0.0912403
0.0801115
0.0730362
0.0806976
0.079622
0.0739521
0.0746936
0.0840593
0.0872725
0.0829547
0.0806661
0.0937069
0.0900712
0.0813326
0.0778281
0.0787091
0.0891334
0.0789546
0.0878138
0.0792446
0.0754354
0.0869513
0.0805609
0.0852074
0.0774857
0.0781636
0.0777486
0.0790303
0.0728512
0.0731186
0.0843444
0.077678
0.0780598
0.0847113
0.0822481
0.080615
0.0815998
0.0767772
0.0768737
0.0807999
0.0790619
0.0824475
0.0774826
0.0840012
0.0774672
0.0780013
0.0776367
0.0743266
0.0716753
0.0825398
0.0872279
0.0791702
0.0770826
0.0732195
0.0747154
0.0792068
0.0753228
0.0723866
0.0820905
0.0773008
0.0783618
0.0736213
0.0715377
0.0813522
0.0780399
0.118833
0.0735976
0.0788859
0.0862075
0.0746524
0.0799001
0.0804682
0.0710613
0.0851254
0.0751828
0.0839606
0.0824993
0.0806481
0.0848947
0.0802624
0.0734316
0.0890363
0.0768753
0.0857408
0.0792086
0.0811436
0.0750501
0.0745404
0.0817138
0.0745049
0.0851566
0.0806131
0.0780588
0.0775927
0.0846386
0.0714896
0.0772526
0.0742972
0.0738712
0.0804186
0.081936
0.080388
0.0823055
0.0871425
0.0880407
0.0799949
0.0781582
0.0906933
0.0766141
0.0708627
0.0780055
0.0793796
0.0749799
0.0728306
0.0743464
0.0801451
0.0869605
0.0769251
0.0842161
0.0716802
0.0710949
0.0889375
0.0834181
0.0762518
0.0782148
0.0740194
0.0748694
0.0841552
0.0849445
0.0719698
0.0807456
0.083117
0.0812598
0.0715258
0.092145
0.10118
0.09015
0.086345
0.09477
0.087245
0.0828545
0.0856291
0.0757023
0.089145
0.0791335
0.088845
0.08563
0.08416
0.100655
0.085315
0.086245
0.086745
0.08458
0.089945
0.088645
0.099725
0.088045
0.0847732
0.09267
0.094665
0.0700701
0.101075
0.085945
0.0841431
0.087945
0.086845
0.08584
0.082375
0.08206
0.084475
0.090349
0.082585
0.082545
0.0831062
0.084055
0.0705006
0.086545
0.089545
0.08479
0.084265
0.0827916
0.087545
0.099025
0.081325
0.0844098
0.092355
0.082165
0.083425
0.083635
0.0804406
0.0715352
0.07942
0.08332
0.088545
0.0799433
0.08185
0.08248
0.089045
0.0808
0.0805927
0.0799742
0.079965
0.089345
0.103175
0.08374
0.078565
0.088245
0.0912
0.081745
0.078765
0.081535
0.079865
0.08101
0.077365
0.08164
0.085105
0.0827745
0.083215
0.084685
0.079265
0.0765734
0.080275
0.088445
0.099125
0.078165
0.08059
0.08143
0.0814262
0.0772444
0.0770649
0.08038
0.076465
0.08227
0.07576
0.078065
0.100235
0.078865
0.076165
0.078265
0.076265
0.0758355
0.08395
0.077965
0.0761228
0.078965
0.075655
0.078665
0.076665
0.079065
0.078465
0.0745
0.076765
0.073765
0.081955
0.075235
0.076965
0.075965
0.07471
0.07408
0.075865
0.10496
0.073555
0.07387
0.083845
0.0722969
0.074185
0.0828125
0.077765
0.080485
0.07303
0.0746017
0.0717744
0.07261
0.074815
0.07492
0.073345
0.079765
0.07135
0.07177
0.077565
0.072715
0.073975
0.077065
0.07513
0.07324
0.08122
0.07093
0.09036
0.076365
0.072295
0.092985
0.07051
0.07156
0.077265
0.07009
0.077665
0.07198
0.079365
0.0973658
0.0931878
0.104899
0.0952632
0.109069
0.107972
0.0949881
0.0902237
0.0976692
0.106225
0.0980264
0.103433
0.0942966
0.0890285
0.104652
0.0915919
0.107882
0.100937
0.102827
0.0938587
0.119938
0.11656
0.107653
0.102785
0.11319
0.097645
0.103405
0.096097
0.0892291
0.11235
0.110347
0.0895021
0.111153
0.0973954
0.0897689
0.106919
0.103205
0.100761
0.0918433
0.106994
0.0922207
0.0933602
0.099352
0.0933626
0.0908171
0.0937623
0.109844
0.108978
0.0979339
0.110355
0.106107
0.098173
0.0966652
0.102901
0.100567
0.0873572
0.094143
0.099581
0.10273
0.100949
0.110851
0.109507
0.0995815
0.100984
0.107925
0.0933757
0.0898141
0.0986836
0.105884
0.10714
0.089863
0.107268
0.104137
0.0923735
0.0975562
0.106048
0.0914452
0.100562
0.0933702
0.105897
0.092675
0.0923524
0.10213
0.0975397
0.103002
0.105823
0.0907337
0.0946391
0.101549
0.112527
0.0877038
0.108033
0.0899451
0.0912962
0.0975115
0.0923566
0.0997618
0.0923644
0.0952979
0.0929922
0.104025
0.0961662
0.099699
0.0968455
0.104061
0.108809
0.0917205
0.0898336
0.0884221
0.0936121
0.0974826
0.0901871
0.0916206
0.0977174
0.112708
0.0968957
0.0865084
0.111035
0.112738
0.0900878
0.095021
0.100252
0.225534
0.103509
0.109824
0.10262
0.096351
0.0954117
0.0988744
0.0879441
0.0921965
0.107506
0.103764
0.106319
0.0884188
0.113782
0.0972285
0.0934552
0.100241
0.0914152
0.095654
0.0885681
0.104594
0.10259
0.0898158
0.0917464
0.10899
0.0981905
0.087573
0.0913043
0.162008
0.0895973
0.104062
0.102506
0.0899311
0.105298
0.107141
0.0886763
0.106124
0.0866662
0.105988
0.0981566
0.100585
0.101315
0.0947077
0.0910299
0.0883371
0.0951449
0.10568
0.105226
0.0962407
0.0927369
0.0957385
0.0979581
0.103796
0.0901035
0.0932179
0.0904833
0.101054
0.0956683
0.0993417
0.0991675
0.111666
0.0919207
0.0926903
0.0868819
0.0875433
0.0951138
0.109097
0.101977
0.114098
0.138245
0.0904505
0.0930858
0.0960234
0.103085
0.0879269
0.0922573
0.134685
0.0857244
0.0902074
0.140045
0.0901584
0.0968129
0.114835
0.127265
0.112
0.11242
0.11452
0.11557
0.111895
0.12261
0.113785
0.123975
0.108305
0.109305
0.11095
0.114205
0.112315
0.117785
0.110845
0.108913
0.119985
0.108705
0.116185
0.11074
0.11032
0.111029
0.106405
0.108005
0.104855
0.103555
0.108805
0.115465
0.113995
0.106805
0.106675
0.106605
0.10349
0.10538
0.10412
0.108505
0.104547
0.102751
0.108605
0.10982
0.102733
0.105588
0.11137
0.102545
0.107205
0.10559
0.106105
0.111685
0.11473
0.10076
0.106505
0.110215
0.107505
0.102965
0.100638
0.11053
0.101915
0.108405
0.10244
0.105275
0.107105
0.12513
0.1058
0.107005
0.107605
0.10139
0.101285
0.100025
0.10202
0.10034
0.099425
0.108105
0.0880899
0.105905
0.11221
0.11326
0.099525
0.106005
0.10433
0.1037
0.105065
0.10391
0.107305
0.103512
0.109105
0.0987273
0.098425
0.117885
0.127665
0.097225
0.108205
0.0966293
0.0971121
0.107905
0.104116
0.096925
0.098025
0.105244
0.0988343
0.105411
0.106705
0.096825
0.0954
0.118185
0.09519
0.099225
0.097525
0.0883057
0.100445
0.098725
0.096325
0.096025
0.107705
0.101495
0.112945
0.102335
0.0966238
0.102755
0.09372
0.09582
0.095505
0.0931628
0.09414
0.099825
0.107405
0.0940213
0.098125
0.0936064
0.099625
0.095925
0.0959947
0.091515
0.0903702
0.096125
0.10181
0.093405
0.10475
0.096525
0.09204
0.097825
0.098225
0.0868744
0.093615
0.095715
0.1016
0.09456
0.0909914
0.102125
0.0933
0.0920362
0.093045
0.104015
0.091305
0.111475
0.099325
0.0947747
0.097725
0.0917221
0.09561
0.097125
0.090045
0.090885
0.110005
0.089845
0.086145
0.095295
0.096425
0.109805
0.0935062
0.09162
0.091935
0.0927712
0.09225
0.09393
0.097025
0.099925
0.0894018
0.0919358
0.087045
0.09078
0.10055
0.101705
0.098325
0.0887243
0.088345
0.086645
0.087145
0.087445
0.09141
0.09498
0.0876061
0.10517
0.09183
0.0887435
0.0958162
0.086945
0.095085
0.118664
0.14782
0.147977
0.118358
0.141605
0.120341
0.125504
0.120947
0.145933
0.153044
0.121114
0.164937
0.150445
0.143527
0.159066
0.144665
0.158615
0.118427
0.126784
0.113429
0.134936
0.150846
0.154952
0.130291
0.158241
0.142093
0.122805
0.167645
0.147701
0.134083
0.14774
0.136045
0.158988
0.138871
0.118298
0.112679
0.160925
0.159623
0.14516
0.143717
0.158971
0.15003
0.146779
0.118982
0.1742
0.120666
0.159375
0.117402
0.142346
0.13533
0.155887
0.141256
0.145017
0.15446
0.119994
0.143769
0.124411
0.130219
0.128056
0.130688
0.124082
0.130212
0.132632
0.137721
0.130948
0.13186
0.118057
0.162123
0.16562
0.120528
0.134662
0.146199
0.127392
0.151668
0.162878
0.136246
0.153252
0.155123
0.118021
0.112897
0.1391
0.116229
0.136328
0.149697
0.150745
0.112398
0.173994
0.134815
0.113813
0.137337
0.12486
0.147531
0.136644
0.142169
0.114475
0.161791
0.173788
0.124723
0.121687
0.115468
0.132267
0.11887
0.14246
0.128763
0.135369
0.161649
0.137999
0.156115
0.120821
0.153365
0.153823
0.133209
0.152334
0.140152
0.126519
0.12144
0.156514
0.123598
0.109954
0.121676
0.141449
0.162108
0.158025
0.124249
0.121872
0.124633
0.138815
0.155955
0.12037
0.158778
0.149093
0.141884
0.12385
0.12029
0.153339
0.160232
0.128876
0.108538
0.130544
0.122727
0.150451
0.142505
0.142426
0.118156
0.124821
0.154814
0.164851
0.127257
0.137256
0.125639
0.113925
0.111833
0.147762
0.179262
0.136143
0.158725
0.142995
0.1548
0.120881
0.121402
0.137306
0.114238
0.149392
0.118236
0.109678
0.143715
0.129351
0.122847
0.130145
0.138597
0.145034
0.123027
0.136837
0.124941
0.135524
0.147878
0.116567
0.140509
0.128058
0.121651
0.162841
0.131769
0.155055
0.125037
0.163117
0.145151
0.155059
0.159411
0.136693
0.112746
0.126771
0.126199
0.122776
0.122783
0.179765
0.139915
0.178565
0.140459
0.1912
0.169585
0.153537
0.142414
0.176465
0.166686
0.167792
0.168585
0.166288
0.183635
0.17324
0.180485
0.167332
0.183425
0.169185
0.163995
0.16347
0.16263
0.161685
0.162
0.182585
0.166585
0.16494
0.164005
0.177865
0.16158
0.160427
0.165885
0.167092
0.16284
0.157405
0.169685
0.16452
0.165465
0.16305
0.162119
0.162525
0.157805
0.168985
0.163575
0.161475
0.16137
0.16557
0.159103
0.155026
0.17072
0.157105
0.17387
0.156605
0.159505
0.162945
0.156405
0.155586
0.165675
0.159805
0.168085
0.155399
0.16074
0.187245
0.156116
0.162206
0.152439
0.16368
0.12547
0.156505
0.158405
0.154645
0.17219
0.17156
0.156005
0.108627
0.152674
0.164835
0.16179
0.16095
0.169485
0.16389
0.154861
0.16578
0.165255
0.157505
0.153175
0.17282
0.126771
0.155065
0.153385
0.158805
0.15328
0.150248
0.150445
0.157905
0.159105
0.151495
0.15391
0.158505
0.153805
0.152508
0.154015
0.121884
0.151506
0.177565
0.158705
0.160425
0.148987
0.151911
0.160215
0.16032
0.147553
0.15139
0.16116
0.146093
0.150971
0.15517
0.151705
0.111562
0.163785
0.16326
0.154435
0.159405
0.148325
0.157005
0.152964
0.148125
0.155148
0.148425
0.161055
0.148186
0.146525
0.164625
0.150025
0.147025
0.147425
0.151915
0.109367
0.15076
0.154116
0.144019
0.124156
0.167386
0.149025
0.158005
0.160845
0.16536
0.146825
0.144665
0.159605
0.150548
0.138772
0.152978
0.154225
0.149425
0.14582
0.149725
0.117484
0.147725
0.147225
0.152349
0.141899
0.148525
0.149525
0.150655
0.143677
0.150235
0.164415
0.143615
0.14309
0.142355
0.166985
0.145212
0.146325
0.145925
0.166785
0.14162
0.146125
0.168285
0.145295
0.143395
0.145505
0.149825
0.142775
0.145937
0.139032
0.146925
0.14456
0.152335
0.141512
0.139445
0.137545
0.14141
0.134023
0.149094
0.15034
0.14414
0.143825
0.118685
0.144875
0.155695
0.13894
0.146725
0.13584
0.136845
0.148625
0.137945
0.139245
0.148725
0.140262
0.157705
0.137145
0.112149
0.170824
0.109778
0.180494
0.14057
0.136435
0.138545
0.14078
0.138345
0.139853
0.138709
0.15202
0.165776
0.137745
0.135275
0.118039
0.135315
0.141095
0.134648
0.13479
0.15097
0.144035
0.138145
0.137845
0.133635
0.148025
0.13542
0.131955
0.145715
0.14246
0.141707
0.135105
0.142565
0.145396
0.158105
0.132706
0.13405
0.13437
0.140255
0.137415
0.146625
0.136745
0.14099
0.13395
0.131443
0.14351
0.152545
0.136047
0.137345
0.129871
0.126217
0.134891
0.137215
0.13017
0.132283
0.134055
0.136345
0.12193
0.13374
0.15538
0.132585
0.128365
0.14519
0.117157
0.128265
0.13185
0.147825
0.133005
0.1412
0.131745
0.13038
0.13122
0.15013
0.126565
0.135
0.141725
0.127662
0.129143
0.130796
0.140251
0.130259
0.14267
0.129765
0.126291
0.134265
0.13563
0.127461
0.139645
0.136245
0.128165
0.128865
0.122835
0.129265
0.142985
0.127165
0.125655
0.136645
0.133845
0.157305
0.12324
0.111283
0.127565
0.128765
0.127272
0.127861
0.123345
0.1329
0.12663
0.121222
0.1308
0.1454
0.114374
0.134366
0.12534
0.126534
0.126065
0.122715
0.12429
0.125025
0.126961
0.136045
0.13248
0.121961
0.12282
0.121251
0.126127
0.126265
0.127965
0.12177
0.118371
0.13521
0.12555
0.124605
0.122505
0.12387
0.119285
0.113344
0.1203
0.12408
0.12471
0.12366
0.128965
0.126865
0.138745
0.128065
0.124614
0.120926
0.12072
0.12093
0.12345
0.12156
0.118085
0.125865
0.119685
0.13101
0.120195
0.126965
0.133425
0.120717
0.115653
0.119554
0.120389
0.116685
0.12198
0.12114
0.118485
0.12219
0.117685
0.116485
0.114728
0.12009
0.126665
0.117185
0.113155
0.119185
0.11284
0.117285
0.121035
0.129065
0.115255
0.124185
0.13206
0.118885
0.115461
0.122295
0.13227
0.14225
0.13269
0.13143
0.11305
0.114625
0.116785
0.116081
0.1245
0.110635
0.116285
0.11158
0.13353
0.13059
0.11116
0.117385
0.133215
0.11536
0.11431
0.118685
0.113575
0.115045
0.124699
0.1141
0.113365
0.125965
0.11253
0.119085
0.11368
0.112525
0.118385
0.109461
0.112735
0.109505
0.112105
0.120405
0.109205
)


// ************************************************************************* //
