/*--------------------------------*- C++ -*----------------------------------*\
  =========                 |
  \\      /  F ield         | OpenFOAM: The Open Source CFD Toolbox
   \\    /   O peration     | Website:  https://openfoam.org
    \\  /    A nd           | Version:  7
     \\/     M anipulation  |
\*---------------------------------------------------------------------------*/
FoamFile
{
    version     2.0;
    format      ascii;
    class       labelField;
    location    "0.7/lagrangian/reactingCloud1";
    object      cellId;
}
// * * * * * * * * * * * * * * * * * * * * * * * * * * * * * * * * * * * * * //


2444
(
2380
2764
2677
2658
2522
2484
2382
1904
2215
2146
2114
1981
1935
1869
1088
1717
1684
1615
1466
1361
1301
1229
1184
1091
1022
984
924
915
544
770
690
648
546
498
340
352
286
136
166
85
30
520
657
452
2219
3307
2423
3525
3109
3179
3255
3112
2838
3279
2768
2913
2771
3005
2941
2708
2431
2572
2655
2224
2594
2610
2307
2540
1341
2233
2331
2168
2115
2269
2118
1750
1895
2072
1821
1846
1776
1410
1622
1554
1483
1512
1353
1464
1290
1235
1146
1082
1016
953
873
811
686
770
648
552
462
388
328
268
206
146
70
24
6946
8085
7518
5274
5859
5880
5047
1629
1704
1798
1352
597
1235
1266
856
605
398
198
197
208
131
163
70
33
9528
8726
7593
7017
6769
6760
5625
3683
3695
1160
889
603
9175
9747
9226
8897
9198
7811
7796
6129
5857
5554
4433
4189
3875
4173
3318
3333
1696
1379
1111
540
9651
9399
9406
8568
8585
8000
7195
6874
6879
6894
6345
6039
5506
5231
3248
744
9307
8469
9623
9038
9040
8764
8496
7925
7355
8208
7934
7688
6819
6528
6561
6255
5404
4850
5142
4592
4597
4300
3476
3215
3196
2923
2657
2090
1778
1528
115
3995
9201
9801
8672
7815
9540
9270
9263
8418
8435
7565
8415
7853
8161
8167
7294
7025
7052
6739
6467
5903
5904
5063
5350
5080
5086
4803
3651
4250
3685
3403
2538
2848
2281
1991
1729
1453
327
342
7550
3086
1970
8666
5876
9722
9729
9171
9765
9758
9194
8616
8634
8344
7495
7782
7814
7810
7791
7793
7538
7266
7234
6670
6385
5536
6410
6407
6134
5551
5552
5295
4711
5001
4724
4431
4457
3575
3890
3875
3306
3881
3878
3613
3034
2753
2503
2197
1945
1931
1640
1635
1355
1372
1087
1096
817
827
527
541
9710
9710
4130
7757
3851
8036
3851
7199
7199
5525
8315
8873
9658
9391
8262
9689
9407
8260
8553
8555
8271
8560
7998
7710
6267
8022
7433
7740
5989
7465
6027
6918
6040
6634
5457
6057
5771
5199
4903
5485
5797
5204
4911
5208
5517
5212
4035
5225
4643
4960
4671
4358
4655
4388
4380
3505
3814
3522
3822
3544
3559
3548
2090
2404
2414
2440
2117
2159
2148
2155
2148
1867
1572
1608
1285
1310
769
752
764
461
485
447
161
213
190
6569
7406
8522
7685
7406
9359
4895
7685
4337
4337
3500
4337
9638
2942
5174
2942
6569
3221
8801
2384
3500
1826
9359
3221
710
2942
9638
152
152
8128
9005
8135
8746
9614
8164
7886
9034
7023
9624
9059
8774
8477
8201
8776
8207
7057
8205
8491
8791
8498
7630
6490
7935
7665
7370
5355
7398
6812
7125
5364
6250
6247
4783
6272
5685
6271
5983
5100
5405
5714
5142
5140
4850
5145
4568
3686
4292
4296
3998
4607
4311
3411
3449
3747
3751
3766
3752
3748
2553
3488
2596
2910
2343
2344
1708
1446
1798
1516
1505
1180
1259
1252
1253
602
664
676
689
665
665
669
424
431
101
146
97
85
127
113
5660
4823
5102
3986
3986
9566
8729
6497
5660
6218
3707
8450
8450
3986
8450
2591
7055
9287
7613
9287
2033
4544
2033
8729
7055
4544
2033
9008
9008
4823
7613
3707
4265
3149
4544
2312
9008
1475
4823
5102
6218
4265
1196
6776
8171
1196
8450
5939
4544
9566
5381
8450
9566
4823
917
917
4823
9566
1754
7055
638
7613
3428
638
5381
7613
6218
2870
4544
8450
3986
359
6497
359
359
1196
9008
359
9466
9220
8929
9200
8359
9819
8661
8951
9524
8675
8124
8963
9835
6917
8982
9261
9565
80
8984
9274
8126
9003
8132
7263
7567
8442
7530
8139
7275
6398
7863
7290
8155
8165
8170
6715
7001
7021
7026
4638
5866
6738
6465
6163
5601
6192
5308
5908
6207
5017
5916
5338
5037
5633
4743
5324
5637
4148
4754
4544
4771
4459
4781
5078
5080
4782
4181
4786
3924
4226
4243
3944
3966
3389
3383
3390
3070
3083
3391
3126
3420
2830
3145
2521
2843
2839
2524
2547
2538
2563
2260
2568
2278
1980
2294
2290
1947
1997
2001
1979
1708
1396
1709
1437
1750
1429
1146
1060
1107
783
879
892
899
602
604
580
601
308
7820
7541
3635
6146
6425
3077
6704
3077
9494
7541
5309
8378
2798
9494
9773
2798
6704
6425
6425
8657
2798
3356
4472
3635
3077
8657
8099
7541
6983
6983
4751
5588
8099
5588
2240
9215
3356
5867
3077
9773
6983
9773
2240
6425
8099
7820
4472
8099
2240
7262
2519
5309
3914
5588
9215
9773
6704
4472
7541
1961
5309
3635
7820
9215
7262
6146
4193
6983
9494
4751
4751
7820
6704
5030
5867
6704
4751
2519
4472
3356
1961
5588
3914
1682
4751
3077
2798
8099
7262
1682
4193
8378
9215
9494
4751
5030
6704
5588
8099
2519
6425
3077
7541
6425
1403
6983
3077
1403
1403
3635
3914
3077
4472
9215
1403
1403
9773
1682
8936
1403
9494
3356
5030
7820
9215
7262
7262
6425
2519
5867
5309
8657
2798
1403
5309
1124
9773
1961
3077
8936
2519
8099
3635
845
1124
1124
8099
2519
4472
9215
9494
3914
7820
1403
845
2519
5867
566
8936
5030
4751
1961
7262
566
2798
8378
566
566
3914
4751
7820
5867
566
1961
4751
566
3077
566
8099
1682
5867
6146
4751
4472
7262
8099
5867
6425
4751
1124
4751
2240
1682
6983
9773
3356
287
1682
287
8936
5030
1403
8936
4751
3635
6704
9773
8
8
8936
8378
6425
9011
6146
9044
9651
8
8825
8
9378
8550
8548
8850
7955
9711
9448
9467
8890
9753
9467
9478
9456
9190
8906
8598
8325
7439
8044
8051
7475
7747
8097
7785
6563
7213
566
7231
6350
7522
7222
6926
6648
6346
6950
6960
7251
5455
6704
6355
6679
6677
6393
6698
5448
5805
6689
6105
6094
6132
5196
6116
6138
4611
5584
5275
5272
4992
4985
5001
5014
4996
5002
4719
5015
4748
4124
4128
4147
3846
4146
3902
4150
4179
3856
3863
3907
3887
3604
3616
3604
3630
3288
3290
2991
3624
3319
3342
3584
3355
2720
3015
3058
2135
2750
2773
2476
2513
2209
2493
2494
2515
1874
2221
1952
1921
1607
1948
1680
1626
1403
1652
1396
1647
1402
1662
1377
1372
1374
1368
1041
1390
1097
1047
8
753
803
830
795
787
804
544
470
535
551
544
271
8585
5516
5795
8585
9701
6632
6074
3842
4679
2726
2726
7190
2447
8306
6911
3842
6074
3284
5237
4121
7748
8585
3005
7469
5795
9422
3842
4400
6911
6911
7469
8585
6632
4679
5516
4121
5795
5237
4400
8027
6353
4958
6353
2726
9701
4400
8852
7469
5516
9422
7748
1889
1889
7748
6353
2726
1610
6911
7469
6353
5795
3842
7469
7190
4121
2168
8585
2447
7469
3005
2168
9422
4679
9701
4400
2726
4400
2726
1610
1889
5237
4121
1610
9143
7748
5795
7190
4121
1331
6632
4679
4121
4958
7748
4400
2726
2726
3005
1331
5516
9422
5237
4958
2447
2726
6353
3842
1052
7469
3005
4400
1052
1331
2168
1889
7190
1610
5795
9701
1052
5237
7190
1052
7748
1331
8027
8027
6353
8864
6632
2447
9143
4958
7469
5795
6074
1889
2447
4679
3005
9422
6632
773
3563
9701
773
494
494
494
3284
6353
6632
7469
8864
7469
4958
5237
4121
4954
494
494
3563
2726
494
2168
6353
7190
4400
9143
494
215
9701
6911
3005
5516
1052
3563
8027
7469
1610
5516
5516
7190
1052
9613
7785
9338
9649
8769
9653
4958
9090
1052
7576
3005
9093
9098
9123
7945
8842
8530
8535
9401
8512
8500
8245
8267
8171
7952
7970
215
6771
7366
7068
7957
7335
7718
8578
8012
7722
7981
7721
7466
7689
7729
215
6832
7137
6855
7435
7452
6853
6579
6902
6851
6908
6873
6875
6258
6283
215
6632
6337
6027
6338
6310
5111
5710
6343
6052
6065
5763
5156
4513
5756
5783
5142
5137
5495
5186
5198
4928
5160
4942
4915
4552
4951
4667
4931
4639
4673
4660
4038
3687
4337
4390
4083
4046
4118
4111
4111
4090
3763
3834
3522
2833
3165
3546
3512
3509
3562
2878
3556
3280
2895
3278
3231
3229
2572
2937
2990
2989
2715
2075
2432
2117
2138
2162
2143
2136
1840
1860
1866
1470
1885
1860
1888
1601
1194
1571
1605
1592
1610
1293
1583
1303
979
1012
1036
668
676
702
713
734
728
673
772
350
752
468
320
165
197
158
207
151
202
140
6002
3770
9071
4328
8234
7397
3212
2096
6002
8234
6560
6560
4049
2096
5165
3212
7676
6281
7955
4607
7676
9629
8234
6002
8513
6281
7397
2933
2375
9071
6002
2375
9629
5165
2654
9350
6839
5444
3491
8792
2375
4886
6002
1538
2096
2654
9629
7397
6560
9629
9071
5723
2933
8234
3770
1259
2375
6281
6560
3491
9629
9629
7397
6281
8513
2096
2375
3212
4328
6281
2654
7955
8234
3491
4886
7397
3770
5444
4886
8792
1538
3770
2375
4328
7118
8513
1259
5165
5723
9629
980
9349
1259
2096
5165
3212
5444
3491
4607
2933
8234
5723
5165
2375
4886
8792
2375
980
2096
1259
5723
2375
2375
3770
8792
4607
980
9629
9629
980
2654
7118
3491
7955
8513
7397
4328
5165
3770
701
4049
9350
8234
8234
980
9350
5723
3770
5723
3491
5444
1817
7676
4607
2375
3212
9071
3212
701
2375
7676
2375
5444
7118
1538
7397
6281
422
8234
701
8513
2096
5723
6560
4328
2096
422
2096
7955
7118
5165
4049
2654
6002
8234
422
3770
2375
7676
4886
6560
5723
8234
3212
3770
143
1538
4328
6839
7676
7955
9654
2375
3770
4607
6560
143
3491
9706
422
143
9753
143
4886
9816
9230
9515
8908
9237
8634
9562
9588
9613
8053
9294
9011
9020
9344
9030
8992
8067
9013
8057
9052
8719
8444
8755
8199
7791
8484
8484
8508
8162
7291
8162
8160
8187
8194
8225
8214
8219
7867
8203
8234
7572
7936
8197
7955
7895
7912
7625
7586
7626
7313
7349
7338
7346
6413
6778
7051
7371
6731
7110
6768
6746
6750
6465
6433
6706
6487
6137
6488
6534
6273
6467
6516
6525
6202
1538
6518
5238
5837
6228
6217
5533
6204
5631
6210
6236
6269
5983
5996
6263
5684
5278
5712
5316
5994
3212
4401
5337
5668
5688
5715
5337
5444
5047
5121
5147
4438
5149
4495
5147
143
4822
4165
4810
4529
4168
4491
4517
4505
4877
3887
4602
4559
4596
4324
4314
3973
3291
4307
3664
3748
3649
3770
3373
3765
143
3748
3403
3744
3054
3057
3478
3440
3109
143
3441
3191
2814
2835
3402
2879
3165
2919
2868
2483
2909
2635
2613
2629
2600
2193
2195
2060
2096
2033
2029
2085
2079
1764
1745
1793
1775
1755
1803
1471
1463
1130
1185
887
143
905
685
668
643
558
613
693
637
630
309
368
407
316
382
283
72
23
69
110
253
3140
7883
7883
2303
6488
2303
3977
2582
6488
8162
2582
9557
6209
7046
9836
7325
9557
2024
4814
1187
4814
7046
7325
4256
9278
7325
3698
9836
7604
4535
5930
4814
9278
6488
2303
1466
9557
9557
6209
7046
9278
8441
8162
2582
9836
1466
9836
2303
6488
6209
1745
6767
7604
8162
1745
5093
2024
5372
2861
5359
3419
3977
5930
6209
5372
4814
2861
9836
9557
1745
3698
7883
4256
7046
9278
6209
7604
8162
629
2024
5651
1466
3977
8441
8441
908
9836
6209
1187
5372
3977
7883
5930
7325
629
9557
9278
3977
2861
2582
5093
1466
7325
4535
5372
8999
6488
8999
3140
8162
7883
4256
8999
6488
4256
2303
8720
3419
350
3140
6488
9278
9836
3698
2861
2024
6488
9278
2303
9557
7325
7604
3140
908
6488
8441
3419
350
4535
3977
8441
5930
7046
2582
1466
5930
9836
2582
5930
4535
1187
350
4256
9836
5930
8720
6767
8720
3419
1745
5093
350
7604
2024
350
7325
4256
3698
4256
5930
6767
2582
5930
3977
6209
7883
350
4535
3419
1745
9557
5651
8720
629
9836
7325
8162
8441
4535
71
4256
4535
3419
2024
9630
4256
9626
7046
9030
9649
8720
7325
8755
9278
9652
9746
9768
9371
9057
8750
9065
9443
9727
9068
9734
9378
9770
9818
9059
9702
9828
9434
9420
9484
9813
9555
9083
9552
9819
9477
9527
9521
8839
9535
9180
9504
9525
9223
9451
9509
8195
9278
9167
9202
9276
8243
9148
9162
9261
9199
9151
8526
9228
9239
8887
9247
8546
8918
8979
8162
8876
3419
8852
8913
8952
7633
8528
8997
71
8624
8611
8529
8650
8262
8928
8045
8581
8592
8570
8434
8309
3419
8427
8291
8668
8697
7883
8439
8395
8424
8399
8410
8398
8385
8067
8396
2582
8377
7714
7398
8097
8441
8430
7680
7702
7811
8122
8116
8162
8131
7106
7675
629
7723
8145
7883
7116
7867
7795
8146
7856
7046
7844
7430
7777
7756
7460
6823
7881
7846
7433
71
7465
7141
7527
3419
7604
7517
7585
7532
7429
7593
7556
7152
7240
4535
7589
7532
7549
7213
6910
2024
7536
6869
6578
7314
7275
7266
6599
7324
7263
7241
6289
7016
7247
6884
5651
6961
6562
6930
7020
6966
6913
6910
5993
6634
6960
6365
6711
6675
6732
6633
6656
6444
6675
6709
6613
5930
6320
6681
6450
6476
2303
6699
6669
6348
6162
6484
6481
6462
6129
6469
6383
6390
5776
6119
350
5163
71
6199
6376
6183
6188
6103
6199
6196
5782
6122
4547
6067
6194
1745
6126
5905
5924
5877
5167
5854
5812
5616
5600
5222
5562
5634
5226
4875
5588
5571
5541
5535
4885
5351
5240
5347
5267
5365
5232
5317
4921
5265
4996
5313
5515
5050
5038
5371
5024
4698
4682
4783
4663
4662
4727
3419
4691
4660
4473
4756
4742
2024
4698
4485
4419
4503
4365
3741
4504
4472
4380
4501
4227
4447
4195
4250
4447
3783
4249
4161
3766
3965
4468
4224
4116
4146
3926
4188
3952
3698
3805
3860
3835
3964
3842
3837
2881
3964
629
3922
3572
3627
3698
3689
3545
3336
3412
3221
2599
1745
3272
3360
3399
3390
3070
3085
3320
3309
2982
3034
2861
3344
3112
3091
2957
2616
3047
3130
2754
2828
2840
2836
2733
2827
1187
2839
2826
2837
2781
2518
2703
2414
2483
2063
2549
2282
2447
2142
2479
2231
2261
2429
2132
2195
2289
1938
2210
2291
2009
2011
1992
2227
1887
2021
1866
1697
1705
1708
1706
1615
1570
1461
1435
1460
1437
1411
1398
1455
1403
1304
1343
1152
1356
1010
988
875
970
836
1074
1097
902
1001
845
1105
885
1097
1044
865
837
748
882
601
627
745
602
443
592
582
546
554
514
530
545
283
69
20
1
8
225
21
)


// ************************************************************************* //
