/*--------------------------------*- C++ -*----------------------------------*\
  =========                 |
  \\      /  F ield         | OpenFOAM: The Open Source CFD Toolbox
   \\    /   O peration     | Website:  https://openfoam.org
    \\  /    A nd           | Version:  7
     \\/     M anipulation  |
\*---------------------------------------------------------------------------*/
FoamFile
{
    version     2.0;
    format      ascii;
    class       scalarField;
    location    "0.7/lagrangian/reactingCloud1";
    object      cellDensity;
}
// * * * * * * * * * * * * * * * * * * * * * * * * * * * * * * * * * * * * * //


2444
(
0.246531
0.250268
0.249999
0.249683
0.248935
0.249574
0.247646
0.245248
0.249042
0.248901
0.247283
0.247387
0.248423
0.248387
0.246861
0.247743
0.248438
0.248366
0.248121
0.247079
0.247548
0.247515
0.247884
0.247557
0.247548
0.247896
0.24794
0.247882
0.247376
0.247822
0.247779
0.247888
0.247766
0.247843
0.247554
0.247839
0.247849
0.247724
0.247869
0.247868
0.24787
0.251653
0.251672
0.251638
0.253466
0.25073
0.2534
0.249467
0.252028
0.251769
0.251075
0.25215
0.253241
0.249907
0.25325
0.252806
0.253465
0.251253
0.251373
0.253473
0.254094
0.253754
0.252759
0.253889
0.25259
0.252103
0.253708
0.252283
0.252355
0.254076
0.252719
0.253938
0.253279
0.25265
0.253169
0.253474
0.253945
0.252686
0.254036
0.253216
0.253271
0.252731
0.253781
0.253725
0.253673
0.252948
0.253521
0.252591
0.253341
0.252895
0.253444
0.2533
0.253177
0.252929
0.253278
0.252987
0.252367
0.252104
0.251768
0.252063
0.252876
0.253012
0.252406
0.251805
0.251433
0.251121
0.251048
0.250881
0.286732
0.208576
0.209195
0.216784
0.217487
0.219064
0.222199
0.227118
0.226421
0.226883
0.232487
0.243509
0.23466
0.234723
0.239787
0.243547
0.245571
0.247532
0.247517
0.247078
0.248085
0.246681
0.248296
0.248028
0.185288
0.179916
0.18251
0.189852
0.185579
0.18523
0.188234
0.194711
0.195274
0.202164
0.203549
0.203888
0.195292
0.165064
0.165282
0.186608
0.165239
0.165815
0.16581
0.166868
0.167111
0.168263
0.186761
0.168915
0.18712
0.168793
0.180348
0.169872
0.1733
0.173213
0.174086
0.174922
0.327128
0.163701
0.16373
0.163822
0.163902
0.16391
0.164073
0.181092
0.164991
0.164006
0.164104
0.170391
0.164182
0.164227
0.171863
0.164909
0.235526
0.243698
0.162603
0.177675
0.170595
0.164114
0.162654
0.16672
0.226717
0.16302
0.162711
0.162844
0.162818
0.170824
0.162937
0.163073
0.210499
0.185735
0.163025
0.163099
0.163124
0.163512
0.163241
0.163361
0.163272
0.163339
0.163434
0.163467
0.199883
0.163519
0.163787
0.162383
0.361934
0.200608
0.274933
0.363531
0.162215
0.162131
0.162146
0.164055
0.162162
0.21619
0.169144
0.179435
0.162188
0.162205
0.1819
0.162531
0.162244
0.171818
0.162479
0.168195
0.166143
0.175281
0.162565
0.162253
0.162276
0.162272
0.26963
0.162318
0.162316
0.162324
0.244349
0.16236
0.162487
0.181498
0.162417
0.162445
0.16261
0.162549
0.162021
0.162095
0.16212
0.162007
0.162045
0.240848
0.2138
0.21306
0.161983
0.162029
0.162638
0.202288
0.163275
0.182001
0.218268
0.191847
0.162004
0.161998
0.170001
0.166623
0.162013
0.162023
0.167431
0.179163
0.195685
0.243086
0.162011
0.162039
0.162014
0.185311
0.182523
0.162022
0.193078
0.166145
0.163609
0.195953
0.162033
0.292969
0.162266
0.188579
0.231546
0.172231
0.179778
0.162108
0.200995
0.20841
0.162064
0.199805
0.162075
0.164382
0.195286
0.215642
0.21999
0.165122
0.178119
0.162652
0.162594
0.162094
0.183308
0.162178
0.16194
0.16194
0.161963
0.161946
0.161965
0.161945
0.161965
0.161948
0.161948
0.161955
0.161944
0.161942
0.22312
0.192849
0.224187
0.16357
0.165777
0.230332
0.193748
0.189447
0.200196
0.17961
0.18651
0.206805
0.350398
0.161995
0.201384
0.16209
0.34983
0.161971
0.231036
0.161949
0.194493
0.16195
0.278478
0.164366
0.17347
0.203244
0.26044
0.186794
0.161953
0.190857
0.229881
0.182088
0.161954
0.174354
0.352341
0.162175
0.197248
0.161957
0.161986
0.213321
0.171739
0.162103
0.165612
0.273805
0.177769
0.209242
0.165006
0.163872
0.161963
0.162311
0.348353
0.213845
0.186317
0.16197
0.242334
0.161977
0.163549
0.162037
0.163549
0.16502
0.197763
0.161975
0.222533
0.163632
0.16198
0.163261
0.161978
0.182941
0.161979
0.225237
0.254592
0.161987
0.166676
0.161964
0.16198
0.162014
0.161987
0.16198
0.162052
0.161945
0.161987
0.161942
0.161942
0.161939
0.161942
0.16207
0.161937
0.161947
0.161937
0.161964
0.161938
0.162025
0.161937
0.161939
0.161937
0.162052
0.161938
0.161938
0.161937
0.16207
0.161939
0.161939
0.357437
0.299363
0.351257
0.247009
0.180621
0.308785
0.306844
0.223989
0.348395
0.16712
0.175045
0.183894
0.220316
0.212561
0.18062
0.199489
0.287495
0.203663
0.190373
0.163261
0.17855
0.245123
0.310318
0.185737
0.171423
0.197791
0.343625
0.162296
0.196704
0.161986
0.331101
0.204018
0.210819
0.357573
0.167081
0.219511
0.168201
0.180637
0.299039
0.221549
0.166418
0.186112
0.189788
0.212897
0.18092
0.219945
0.339382
0.211867
0.202605
0.254623
0.162083
0.174836
0.333838
0.226023
0.18383
0.177089
0.16237
0.175519
0.182078
0.35756
0.162202
0.277232
0.182504
0.199335
0.197176
0.363466
0.351
0.174142
0.178607
0.200221
0.33555
0.16197
0.162383
0.162243
0.357282
0.20833
0.182635
0.16417
0.205893
0.205893
0.196717
0.161948
0.161939
0.220669
0.161945
0.232522
0.275833
0.167572
0.19159
0.174642
0.169724
0.171239
0.166098
0.166098
0.204503
0.197883
0.18046
0.174642
0.178445
0.165219
0.195658
0.195658
0.166098
0.195658
0.163143
0.184657
0.20231
0.189005
0.20231
0.162678
0.168355
0.162678
0.197883
0.184657
0.168355
0.162678
0.200102
0.200102
0.169724
0.189005
0.165219
0.167144
0.16393
0.168355
0.162881
0.200102
0.162394
0.169724
0.171239
0.178445
0.167144
0.162294
0.182534
0.193433
0.162294
0.195658
0.176501
0.168355
0.204503
0.172883
0.195658
0.204503
0.169724
0.16222
0.16222
0.169724
0.204503
0.16252
0.184657
0.162165
0.189005
0.164502
0.162165
0.172883
0.189005
0.178445
0.163485
0.168355
0.195658
0.166098
0.162124
0.18046
0.162124
0.162124
0.162294
0.200102
0.162124
0.327835
0.285204
0.302126
0.312596
0.318168
0.227304
0.286269
0.269881
0.248468
0.264715
0.252184
0.251313
0.210621
0.365059
0.223078
0.224484
0.204576
0.162093
0.220364
0.209244
0.248909
0.201397
0.239145
0.290193
0.248997
0.199032
0.308076
0.228015
0.270528
0.329999
0.222102
0.244768
0.205237
0.195551
0.193529
0.273214
0.261472
0.226614
0.218261
0.392917
0.293202
0.232446
0.220859
0.261669
0.268153
0.209376
0.293201
0.216706
0.186934
0.312739
0.203058
0.236834
0.278757
0.208454
0.305122
0.26394
0.201688
0.352127
0.286016
0.168355
0.253027
0.313269
0.233013
0.200688
0.197327
0.231036
0.311987
0.223218
0.271883
0.225023
0.193409
0.230111
0.188847
0.221855
0.234537
0.219792
0.304622
0.279414
0.217745
0.19022
0.16972
0.221844
0.165322
0.28754
0.196076
0.203549
0.28123
0.229535
0.249917
0.196752
0.24691
0.187945
0.20718
0.24854
0.17893
0.185198
0.317856
0.210159
0.202087
0.250905
0.231218
0.306115
0.228899
0.212196
0.163074
0.230265
0.238954
0.370063
0.323931
0.369064
0.210095
0.185139
0.17437
0.204916
0.200823
0.257753
0.207019
0.23918
0.255484
0.254147
0.232412
0.247056
0.24853
0.228804
0.249976
0.228804
0.262983
0.254147
0.242456
0.25808
0.22695
0.262983
0.264151
0.22695
0.249976
0.24853
0.24853
0.259342
0.22695
0.230625
0.237579
0.232412
0.228804
0.259342
0.256795
0.254147
0.251394
0.251394
0.239236
0.244019
0.256795
0.244019
0.223142
0.261792
0.230625
0.245553
0.228804
0.264151
0.251394
0.264151
0.223142
0.24853
0.256795
0.255484
0.237579
0.256795
0.223142
0.252784
0.225062
0.242456
0.234167
0.244019
0.261792
0.264151
0.249976
0.237579
0.254147
0.221189
0.242456
0.232412
0.255484
0.261792
0.252784
0.247056
0.235889
0.251394
0.262983
0.239236
0.239236
0.255484
0.249976
0.240862
0.245553
0.249976
0.239236
0.225062
0.237579
0.230625
0.221189
0.244019
0.234167
0.219205
0.239236
0.228804
0.22695
0.256795
0.252784
0.219205
0.235889
0.25808
0.261792
0.262983
0.239236
0.240862
0.249976
0.244019
0.256795
0.225062
0.24853
0.228804
0.254147
0.24853
0.217188
0.251394
0.228804
0.217188
0.217188
0.232412
0.234167
0.228804
0.237579
0.261792
0.217188
0.217188
0.264151
0.219205
0.260579
0.217188
0.262983
0.230625
0.240862
0.255484
0.261792
0.252784
0.252784
0.24853
0.225062
0.245553
0.242456
0.259342
0.22695
0.217188
0.242456
0.215141
0.264151
0.221189
0.228804
0.260579
0.225062
0.256795
0.232412
0.213065
0.215141
0.215141
0.256795
0.225062
0.237579
0.261792
0.262983
0.234167
0.255484
0.217188
0.213065
0.225062
0.245553
0.210962
0.260579
0.240862
0.239236
0.221189
0.252784
0.210962
0.22695
0.25808
0.210962
0.210962
0.234167
0.239236
0.255484
0.245553
0.210962
0.221189
0.239236
0.210962
0.228804
0.210962
0.256795
0.219205
0.245553
0.247056
0.239236
0.237579
0.252784
0.256795
0.245553
0.24853
0.239236
0.215141
0.239236
0.223142
0.219205
0.251394
0.264151
0.230625
0.208832
0.219205
0.208832
0.260579
0.240862
0.217188
0.260579
0.239236
0.232412
0.249976
0.264151
0.206678
0.206678
0.260579
0.25808
0.24853
0.392789
0.247056
0.374837
0.340876
0.206678
0.332841
0.206678
0.336526
0.329718
0.331325
0.312404
0.357425
0.293889
0.281558
0.270143
0.28011
0.268125
0.270143
0.265661
0.276294
0.268173
0.269756
0.289503
0.284086
0.325741
0.285102
0.279451
0.293598
0.300223
0.256863
0.269014
0.356666
0.278135
0.210962
0.264335
0.300656
0.258705
0.270835
0.284511
0.283027
0.30451
0.264687
0.258314
0.254461
0.35201
0.249976
0.295823
0.258295
0.259545
0.261895
0.25055
0.357042
0.287191
0.253192
0.268136
0.278074
0.250075
0.336168
0.25935
0.248108
0.357882
0.244332
0.259244
0.261842
0.261761
0.26842
0.254009
0.245317
0.258182
0.253221
0.25535
0.244811
0.239445
0.29222
0.287794
0.267025
0.290794
0.268085
0.237186
0.263883
0.239765
0.279525
0.271704
0.235268
0.247429
0.249818
0.239751
0.249818
0.233027
0.290174
0.287846
0.310548
0.23508
0.25475
0.234974
0.271028
0.230666
0.301425
0.282754
0.236716
0.330947
0.26542
0.24031
0.258646
0.226079
0.243779
0.239885
0.238918
0.225546
0.31177
0.232029
0.223545
0.253184
0.297345
0.22584
0.219368
0.27291
0.217188
0.24017
0.218805
0.246055
0.217243
0.229735
0.234346
0.240084
0.237737
0.244945
0.307137
0.222255
0.234089
0.299661
0.206678
0.317938
0.25205
0.220222
0.263039
0.274112
0.250695
0.225489
0.322677
0.236362
0.218435
0.225489
0.217578
0.29178
0.28355
0.284353
0.29178
0.294531
0.286687
0.285143
0.278433
0.281057
0.274713
0.274713
0.288186
0.273741
0.291077
0.287442
0.278433
0.285143
0.276606
0.282733
0.279323
0.289648
0.29178
0.275668
0.288922
0.284353
0.293851
0.278433
0.280197
0.287442
0.287442
0.288922
0.29178
0.286687
0.281057
0.28355
0.279323
0.284353
0.282733
0.280197
0.290367
0.285921
0.281902
0.285921
0.274713
0.294531
0.280197
0.293194
0.288922
0.28355
0.293851
0.289648
0.271745
0.271745
0.289648
0.285921
0.274713
0.270719
0.287442
0.288922
0.285921
0.284353
0.278433
0.288922
0.288186
0.279323
0.272752
0.29178
0.273741
0.288922
0.275668
0.272752
0.293851
0.281057
0.294531
0.280197
0.274713
0.280197
0.274713
0.270719
0.271745
0.282733
0.279323
0.270719
0.293167
0.289648
0.284353
0.288186
0.279323
0.269674
0.286687
0.281057
0.279323
0.281902
0.289648
0.280197
0.274713
0.274713
0.275668
0.269674
0.28355
0.293851
0.282733
0.281902
0.273741
0.274713
0.285921
0.278433
0.26861
0.288922
0.275668
0.280197
0.26861
0.269674
0.272752
0.271745
0.288186
0.270719
0.284353
0.294531
0.26861
0.282733
0.288186
0.26861
0.289648
0.269674
0.290367
0.290367
0.285921
0.292476
0.286687
0.273741
0.293167
0.281902
0.288922
0.284353
0.285143
0.271745
0.273741
0.281057
0.275668
0.293851
0.286687
0.267527
0.277527
0.294531
0.267527
0.266422
0.266422
0.266422
0.276606
0.285921
0.286687
0.288922
0.292476
0.288922
0.281902
0.282733
0.279323
0.282025
0.266422
0.266422
0.277527
0.274713
0.266422
0.272752
0.285921
0.288186
0.280197
0.293167
0.266422
0.265297
0.294531
0.287442
0.275668
0.28355
0.26861
0.277527
0.290367
0.288922
0.270719
0.28355
0.28355
0.288186
0.26861
0.321802
0.393587
0.319534
0.305505
0.324797
0.304014
0.281902
0.304938
0.26861
0.369015
0.275668
0.303759
0.301901
0.295045
0.317151
0.294776
0.304819
0.302763
0.295875
0.313133
0.319267
0.307019
0.29816
0.346711
0.313479
0.304767
0.265297
0.349838
0.328468
0.339442
0.31094
0.346302
0.294141
0.292043
0.291535
0.293071
0.300155
0.293326
0.288982
0.305228
0.291525
0.265297
0.314387
0.301549
0.302449
0.294724
0.290468
0.303403
0.300556
0.287919
0.304376
0.287505
0.294867
0.294156
0.323192
0.308762
0.265297
0.286687
0.287414
0.296763
0.287241
0.295617
0.341982
0.316785
0.286528
0.287951
0.285651
0.290189
0.313849
0.366797
0.292786
0.285251
0.322536
0.325685
0.28623
0.296995
0.291517
0.287408
0.311427
0.283566
0.29262
0.342709
0.282247
0.282038
0.286416
0.29065
0.281322
0.283421
0.314048
0.360042
0.301997
0.280906
0.288436
0.308919
0.279401
0.280048
0.280048
0.285573
0.311177
0.278919
0.288459
0.372486
0.337799
0.279621
0.293647
0.295329
0.277541
0.343158
0.277915
0.276747
0.331724
0.276903
0.294206
0.295366
0.360181
0.302967
0.277397
0.277624
0.275693
0.319515
0.275557
0.290708
0.279663
0.27308
0.277666
0.280541
0.28888
0.278394
0.276049
0.35229
0.271905
0.278394
0.271761
0.27146
0.350516
0.282438
0.270966
0.273492
0.270719
0.28113
0.276684
0.27622
0.303846
0.281476
0.270945
0.328018
0.321933
0.301994
0.293892
0.280128
0.283746
0.324225
0.267544
0.355619
0.271544
0.272582
0.376118
0.285688
0.268464
0.290666
0.265977
0.295881
0.267003
0.304396
0.308862
0.30371
0.316042
0.304997
0.314069
0.312106
0.30242
0.299829
0.308862
0.314069
0.310156
0.310156
0.304353
0.299829
0.306928
0.30242
0.312759
0.309508
0.313413
0.305641
0.312759
0.317365
0.314069
0.308862
0.314725
0.309508
0.312106
0.301774
0.300479
0.316042
0.308862
0.300479
0.317365
0.306928
0.301127
0.316704
0.310804
0.307572
0.303065
0.315384
0.300479
0.306284
0.308862
0.298523
0.299829
0.301127
0.317365
0.312106
0.310156
0.317365
0.316042
0.308217
0.301774
0.314069
0.30371
0.297866
0.300479
0.309508
0.310156
0.303065
0.317365
0.317365
0.312106
0.309508
0.314725
0.299829
0.300479
0.30242
0.304997
0.309508
0.301127
0.313413
0.314069
0.303065
0.306284
0.312106
0.30371
0.307572
0.306284
0.315384
0.298523
0.30371
0.300479
0.304997
0.311455
0.314725
0.297866
0.306928
0.308217
0.317365
0.297206
0.316709
0.297866
0.299829
0.306928
0.30242
0.307572
0.303065
0.305641
0.301774
0.314069
0.308217
0.306928
0.300479
0.306284
0.315384
0.300479
0.297206
0.299829
0.297866
0.308217
0.300479
0.300479
0.30371
0.315384
0.305641
0.297206
0.317365
0.317365
0.297206
0.301127
0.311455
0.303065
0.313413
0.314725
0.312106
0.304997
0.306928
0.30371
0.296543
0.304353
0.316704
0.314069
0.314069
0.297206
0.316704
0.308217
0.30371
0.308217
0.303065
0.307572
0.299177
0.312759
0.305641
0.300479
0.30242
0.316042
0.30242
0.296543
0.300479
0.312759
0.300479
0.307572
0.311455
0.298523
0.312106
0.309508
0.295876
0.314069
0.296543
0.314725
0.299829
0.308217
0.310156
0.304997
0.299829
0.295876
0.299829
0.313413
0.311455
0.306928
0.304353
0.301127
0.308862
0.314069
0.295876
0.30371
0.300479
0.312759
0.306284
0.310156
0.308217
0.314069
0.30242
0.30371
0.295206
0.298523
0.304997
0.310804
0.312759
0.313413
0.393758
0.300479
0.30371
0.305641
0.310156
0.295206
0.303065
0.383785
0.295876
0.295206
0.355052
0.295206
0.306284
0.333718
0.342308
0.340453
0.358571
0.339891
0.356302
0.326407
0.32095
0.317946
0.369237
0.323322
0.323728
0.32171
0.316796
0.319785
0.328755
0.360771
0.323258
0.366614
0.316889
0.326632
0.325082
0.318525
0.317014
0.359273
0.316731
0.316731
0.314795
0.325485
0.335807
0.325485
0.326065
0.319241
0.317874
0.314284
0.315067
0.314641
0.330048
0.3164
0.314069
0.33531
0.314336
0.317346
0.313413
0.321753
0.317872
0.319044
0.330386
0.318815
0.32803
0.317828
0.320519
0.318519
0.351772
0.320109
0.322287
0.313873
0.336126
0.311642
0.323068
0.330511
0.329078
0.330959
0.343531
0.346061
0.323293
0.350517
0.322972
0.312036
0.309707
0.33022
0.315311
0.313489
0.324906
0.298523
0.314876
0.390087
0.360351
0.316966
0.320064
0.377508
0.324224
0.328988
0.322243
0.314995
0.30994
0.30993
0.308981
0.310451
0.312567
0.361114
0.308597
0.343597
0.309065
0.30242
0.390571
0.334729
0.316519
0.311755
0.308424
0.334729
0.307572
0.339201
0.312613
0.30795
0.363252
0.307742
0.336333
0.30795
0.295206
0.317871
0.359809
0.322028
0.322411
0.358155
0.338079
0.327084
0.332043
0.30656
0.359345
0.305734
0.312594
0.306053
0.30506
0.305665
0.320951
0.387062
0.306457
0.333207
0.305371
0.339993
0.30371
0.338518
0.303809
0.295206
0.305371
0.325151
0.306002
0.357434
0.355869
0.303679
0.311448
0.331503
0.295206
0.311147
0.303998
0.338793
0.329043
0.325575
0.311433
0.309758
0.30251
0.31528
0.365503
0.303856
0.302479
0.307023
0.303422
0.310961
0.373599
0.372079
0.304615
0.299829
0.313292
0.314845
0.30032
0.300963
0.309206
0.316507
0.301423
0.305697
0.312492
0.299972
0.314065
0.317437
0.343384
0.316661
0.325201
0.295206
0.316764
0.297653
0.300997
0.309216
0.350536
0.322537
0.296838
0.31164
0.314641
0.335006
0.307217
0.296876
0.331379
0.302398
0.348536
0.313925
0.338603
0.315301
0.299829
0.36537
0.325365
0.336979
0.336979
0.323402
0.333809
0.323402
0.327358
0.324055
0.333809
0.337477
0.324055
0.340288
0.333121
0.335149
0.340739
0.335812
0.340288
0.322737
0.329436
0.320729
0.329436
0.335149
0.335812
0.328028
0.339617
0.335812
0.326681
0.340739
0.336364
0.328737
0.332368
0.329436
0.339617
0.333809
0.323402
0.321401
0.340288
0.340288
0.333121
0.335149
0.339617
0.338064
0.337477
0.324055
0.340739
0.321401
0.340739
0.323402
0.333809
0.333121
0.322076
0.334526
0.336364
0.337477
0.322076
0.330175
0.322737
0.330896
0.324717
0.331135
0.32603
0.327358
0.332368
0.333121
0.330896
0.329436
0.324717
0.340739
0.340288
0.322076
0.326681
0.336979
0.328028
0.335149
0.339617
0.333121
0.336364
0.337477
0.319374
0.322737
0.331654
0.321401
0.327358
0.338064
0.338064
0.320048
0.340739
0.333121
0.320729
0.330896
0.327358
0.336979
0.332368
0.335812
0.319374
0.340288
0.339617
0.327358
0.324717
0.324055
0.330175
0.321401
0.335812
0.328737
0.330896
0.339136
0.333809
0.339136
0.325365
0.337477
0.336979
0.328028
0.339136
0.333809
0.328028
0.323402
0.338537
0.32603
0.318698
0.325365
0.333809
0.339617
0.340739
0.326681
0.324717
0.322737
0.333809
0.339617
0.323402
0.340288
0.335812
0.336364
0.325365
0.320048
0.333809
0.338064
0.32603
0.318698
0.328737
0.327358
0.338064
0.332368
0.335149
0.324055
0.321401
0.332368
0.340739
0.324055
0.332368
0.328737
0.320729
0.318698
0.328028
0.340739
0.332368
0.338537
0.334526
0.338537
0.32603
0.322076
0.330175
0.318698
0.336364
0.322737
0.318698
0.335812
0.328028
0.326681
0.328028
0.332368
0.334526
0.324055
0.332368
0.327358
0.333121
0.336979
0.318698
0.328737
0.32603
0.322076
0.340288
0.331654
0.338537
0.319374
0.340739
0.335812
0.337477
0.338064
0.328737
0.318032
0.328028
0.328737
0.32603
0.322737
0.378455
0.328028
0.381085
0.335149
0.393691
0.368241
0.338537
0.335812
0.393597
0.339617
0.366963
0.347273
0.344578
0.367821
0.389242
0.393703
0.383563
0.350603
0.350057
0.381465
0.348987
0.364991
0.344365
0.341028
0.387855
0.354256
0.340799
0.352119
0.354615
0.344778
0.341205
0.340293
0.372238
0.340314
0.340997
0.345631
0.341089
0.341431
0.358971
0.340725
0.347657
0.342714
0.341196
0.342302
0.34932
0.34229
0.393636
0.339617
0.349721
0.344607
0.339623
0.374362
0.353036
0.350562
0.33989
0.344987
0.352492
0.371941
0.34185
0.340994
0.349635
0.340497
0.363097
0.344896
0.339519
0.337477
0.351562
0.32603
0.356123
0.345583
0.341163
0.393708
0.370881
0.339141
0.318032
0.346665
0.348796
0.370366
0.343025
0.365014
0.343622
0.349713
0.354347
0.35222
0.356563
0.338117
0.352828
0.32603
0.338266
0.356475
0.341073
0.339054
0.336979
0.338069
0.340113
0.338358
0.339781
0.339014
0.339861
0.341062
0.345856
0.340027
0.324055
0.341938
0.361406
0.380192
0.341579
0.338064
0.338191
0.377907
0.36597
0.342089
0.339083
0.339584
0.337477
0.338454
0.389735
0.381306
0.319374
0.358697
0.33778
0.336979
0.382563
0.337255
0.344429
0.337746
0.337745
0.335149
0.338548
0.363179
0.347465
0.351458
0.354824
0.392259
0.336985
0.338395
0.362081
0.318032
0.353743
0.367498
0.34233
0.32603
0.336364
0.343862
0.336762
0.34162
0.363562
0.336502
0.338781
0.36283
0.343177
0.328737
0.336615
0.34162
0.339507
0.348001
0.352734
0.322737
0.34108
0.364429
0.370249
0.335953
0.338497
0.339504
0.360981
0.335813
0.339871
0.343016
0.376404
0.336174
0.342084
0.359076
0.331654
0.342722
0.380249
0.348476
0.335924
0.341913
0.352073
0.352734
0.38876
0.351867
0.342888
0.349358
0.338058
0.343522
0.335949
0.352091
0.347162
0.336092
0.343522
0.338304
0.356761
0.332368
0.360921
0.34247
0.335527
0.333992
0.323402
0.339641
0.344623
0.353228
0.335788
0.333832
0.333874
0.334629
0.340454
0.334254
0.34556
0.344184
0.356308
0.342238
0.318698
0.384427
0.318032
0.333254
0.346996
0.333965
0.333678
0.345386
0.333254
0.333341
0.354759
0.341687
0.393854
0.353501
0.333411
0.322076
0.340973
0.333173
0.33242
0.335825
0.381448
0.339218
0.347591
0.333246
0.334952
0.354898
0.34107
0.332045
0.353856
0.391053
0.336592
0.339389
0.345446
0.346797
0.383914
0.331501
0.350293
0.331746
0.343921
0.330969
0.352311
0.334812
0.362231
0.344365
0.341758
0.335373
0.351562
0.332679
0.334195
0.330898
0.336354
0.345729
0.349765
0.330798
0.354833
0.355113
0.339181
0.32603
0.347464
0.355693
0.334048
0.334
0.336301
0.322737
0.345729
0.332261
0.34541
0.330224
0.361324
0.393377
0.330135
0.334211
0.355874
0.33041
0.329288
0.33893
0.333308
0.328089
0.33893
0.374659
0.328109
0.340021
0.387207
0.327592
0.334884
0.329554
0.35148
0.343585
0.331206
0.334507
0.328326
0.326681
0.362206
0.345068
0.351882
0.327631
0.349921
0.351318
0.393788
0.327631
0.319374
0.331803
0.347225
0.334051
0.326681
0.326819
0.354958
0.336094
0.326118
0.377894
0.393809
0.322076
0.353079
0.331359
0.326689
0.327387
0.332888
0.330143
0.339856
0.342667
0.356509
0.341311
0.324717
0.334383
0.326665
0.329198
0.368157
0.393619
0.338016
0.325542
0.341282
0.326549
0.325478
0.325785
0.347195
0.326658
0.320729
0.32555
0.32677
0.325704
0.334567
0.33072
0.356477
0.360539
0.33883
0.393494
0.325931
0.324201
0.349109
0.35758
0.339895
0.331893
0.326464
0.354695
0.361996
0.340975
0.323766
0.334748
0.33692
0.323673
0.323163
0.32306
0.324591
0.332783
0.349453
0.322758
0.356398
0.326221
0.324998
0.32459
0.324859
0.347101
0.364191
0.321457
0.323229
0.321479
0.323007
0.326894
0.329572
0.321647
0.32849
0.357984
0.344708
0.323095
0.340713
0.365482
0.380511
0.322208
0.392821
0.329534
0.34136
0.334628
0.32013
0.371065
0.327457
0.332494
0.321121
0.334628
0.351056
0.323644
0.329293
0.357129
0.321409
0.320981
0.319386
0.358424
0.320872
0.371378
0.322129
0.323733
0.331917
0.329815
0.341486
0.336499
0.332189
0.327369
0.318044
0.323349
0.32763
0.325934
0.344572
0.323153
)


// ************************************************************************* //
