/*--------------------------------*- C++ -*----------------------------------*\
  =========                 |
  \\      /  F ield         | OpenFOAM: The Open Source CFD Toolbox
   \\    /   O peration     | Website:  https://openfoam.org
    \\  /    A nd           | Version:  7
     \\/     M anipulation  |
\*---------------------------------------------------------------------------*/
FoamFile
{
    version     2.0;
    format      ascii;
    class       vectorField;
    location    "0.7/lagrangian/reactingCloud1";
    object      coordinates;
}
// * * * * * * * * * * * * * * * * * * * * * * * * * * * * * * * * * * * * * //


2444
(
(-1.13664 0.397643 8.13152e-20)
(-1.07782 0.143941 2.37169e-20)
(-1.08574 0.259494 0)
(-1.09271 0.374884 0)
(-1.10849 0.369294 6.94567e-20)
(-1.13451 0.185202 1.35525e-20)
(-1.14386 0.384917 0)
(-1.2307 0.387112 0)
(-1.18122 0.165552 2.71051e-20)
(-1.19706 0.173646 -5.42101e-20)
(-1.20295 0.356206 -5.42101e-20)
(-1.22006 0.334181 2.1684e-19)
(-1.24163 0.211784 0)
(-1.25856 0.194629 -1.6263e-19)
(-1.41931 0.383063 0)
(-1.28604 0.286651 0)
(-1.305 0.0867675 0)
(-1.32089 0.0958065 -5.42101e-20)
(-1.33509 0.16519 -1.21973e-19)
(-1.3558 0.379259 5.42101e-20)
(-1.36756 0.332269 0)
(-1.38382 0.356189 2.71051e-20)
(-1.40117 0.227571 -1.0842e-19)
(-1.41671 0.36761 2.71051e-20)
(-1.43154 0.37188 0)
(-1.44991 0.201668 0)
(-1.46499 0.157781 0)
(-1.46502 0.207414 1.0842e-19)
(-1.53093 0.385693 -2.1684e-19)
(-1.49523 0.259276 -4.06576e-20)
(-1.51299 0.329601 0)
(-1.52886 0.177495 1.0842e-19)
(-1.54365 0.370707 -2.1684e-19)
(-1.56131 0.256869 -2.1684e-19)
(-1.58071 0.381949 -1.6263e-19)
(-1.59291 0.314725 0)
(-1.60908 0.304524 0)
(-1.62793 0.383029 -1.0842e-19)
(-1.64274 0.212642 0)
(-1.65734 0.28985 2.1684e-19)
(-1.67354 0.214488 -5.42101e-20)
(-0.940078 0.448904 -1.0842e-19)
(-0.912215 0.45388 0)
(-0.951107 0.447496 0)
(-0.605763 0.471478 1.0842e-19)
(-0.359241 0.413863 2.1684e-19)
(-0.550633 0.461644 -2.1684e-19)
(-0.314416 0.314173 5.42101e-20)
(-0.401014 0.386915 1.6263e-19)
(-0.390987 0.370745 -2.71051e-20)
(-0.377585 0.316833 2.71051e-20)
(-0.413732 0.372289 2.1684e-19)
(-0.467241 0.398058 0)
(-0.378214 0.17009 -2.03288e-20)
(-0.486559 0.411294 -2.1684e-19)
(-0.446246 0.345801 3.11708e-19)
(-0.477655 0.389818 1.0842e-19)
(-0.434507 0.189123 0)
(-0.455688 0.166599 -1.69407e-20)
(-0.504649 0.36422 1.6263e-19)
(-0.560025 0.404307 0)
(-0.528042 0.369617 0)
(-0.518237 0.26236 -5.42101e-20)
(-0.607441 0.432689 0)
(-0.536286 0.216826 0)
(-0.540381 0.111268 5.0822e-21)
(-0.584788 0.328627 5.42101e-20)
(-0.551164 0.123282 -2.71051e-20)
(-0.78527 0.449074 0)
(-0.602064 0.372648 0)
(-0.590456 0.165095 5.42101e-20)
(-0.619457 0.348581 0)
(-0.630634 0.250116 -1.6263e-19)
(-0.612714 0.12489 0)
(-0.641795 0.231517 -1.0842e-19)
(-0.709598 0.433412 -1.0842e-19)
(-0.686526 0.365111 0)
(-0.658523 0.0750397 1.35525e-20)
(-0.700056 0.412933 2.1684e-19)
(-0.698351 0.233606 5.42101e-20)
(-0.711781 0.24937 -5.42101e-20)
(-0.77744 0.43775 0)
(-0.742255 0.378954 2.1684e-19)
(-0.751634 0.378005 -1.0842e-19)
(-0.765997 0.400116 0)
(-0.765553 0.196364 1.72795e-19)
(-0.795888 0.356679 0)
(-0.775972 0.0471871 2.71051e-20)
(-0.803261 0.320487 1.35525e-20)
(-0.814008 0.226802 0)
(-0.830526 0.379939 1.0842e-19)
(-0.840034 0.346548 0)
(-0.851884 0.33405 0)
(-0.862699 0.295856 -2.71051e-20)
(-0.877115 0.379023 -2.71051e-20)
(-0.886781 0.333803 0)
(-0.912118 0.254798 -1.35525e-19)
(-0.900954 0.141262 -5.42101e-20)
(-0.926852 0.046106 2.03288e-20)
(-0.937713 0.232379 1.28749e-19)
(-0.949853 0.381853 -1.35525e-19)
(-0.964723 0.416917 0)
(-0.973188 0.358343 6.77626e-20)
(-0.988324 0.303428 0)
(-1.00227 0.261623 -3.72694e-20)
(-1.01984 0.207444 -8.13152e-20)
(-1.03103 0.253069 0)
(-1.04483 0.271621 0)
(0.0985641 0.291328 2.71051e-20)
(0.143013 0.192231 0)
(0.115928 0.230613 -2.71051e-20)
(0.0399547 0.286557 2.1684e-19)
(0.059557 0.164718 -5.42101e-20)
(0.055639 0.0695032 7.7927e-20)
(0.030799 0.050061 -1.35525e-20)
(-0.0288631 0.254787 5.42101e-20)
(-0.0232194 0.223398 0)
(-0.0141409 0.103142 0)
(-0.0659937 0.288344 0)
(-0.191653 0.362796 2.1684e-19)
(-0.0914983 0.203735 0)
(-0.0941742 0.0514073 -3.04932e-20)
(-0.159684 0.0658541 -2.71051e-20)
(-0.193465 0.317631 0)
(-0.223832 0.341603 -5.42101e-20)
(-0.2621 0.332854 0)
(-0.266152 0.339827 0)
(-0.268456 0.276399 -1.0842e-19)
(-0.280409 0.327316 5.42101e-20)
(-0.285494 0.149171 0)
(-0.2898 0.294081 0)
(-0.312061 0.201022 1.0842e-19)
(0.590911 0.251449 0)
(0.541537 0.0953485 -2.71051e-20)
(0.489471 0.170485 5.42101e-20)
(0.46656 0.254979 2.57498e-19)
(0.443621 0.113425 0)
(0.44101 0.154256 1.0842e-19)
(0.399317 0.24144 0)
(0.309705 0.190268 -5.0822e-21)
(0.304656 0.137663 5.42101e-20)
(0.198597 0.24599 1.0842e-19)
(0.189333 0.206126 -1.0842e-19)
(0.185887 0.238801 5.42101e-20)
(1.19396 0.263678 0)
(1.23445 0.198728 -8.13152e-20)
(1.19454 0.0331429 -6.77626e-21)
(1.16768 0.25726 1.35525e-20)
(1.18031 0.158641 0)
(1.09384 0.123217 5.42101e-20)
(1.09035 0.190412 1.0842e-19)
(0.967002 0.159066 6.77626e-21)
(0.952016 0.1298 3.04932e-20)
(0.935655 0.236346 1.0842e-19)
(0.860898 0.257736 0)
(0.838593 0.102212 5.42101e-20)
(0.833701 0.255523 1.21973e-19)
(0.841941 0.17056 2.71051e-20)
(0.788993 0.253414 -2.71051e-20)
(0.794575 0.186527 5.42101e-20)
(0.699947 0.0198098 3.38813e-21)
(0.672948 0.191008 1.0842e-19)
(0.670399 0.140427 0)
(0.626418 0.199286 -3.72694e-20)
(2.10494 0.306663 3.25261e-19)
(2.09398 0.184779 0)
(2.08948 0.153046 2.71051e-20)
(1.99835 0.159534 6.77626e-21)
(1.9906 0.0810309 0)
(1.92755 0.201599 1.0842e-19)
(1.86987 0.0611681 0)
(1.82855 0.24744 -4.06576e-20)
(1.82406 0.225431 -5.42101e-20)
(1.81681 0.160158 -5.42101e-20)
(1.78559 0.116825 -4.06576e-20)
(1.75289 0.23893 0)
(1.68484 0.12954 0)
(1.66176 0.107682 0)
(1.4951 0.245053 -1.0842e-19)
(1.29875 0.211529 0)
(3.33934 0.275619 5.42101e-20)
(3.21376 0.278754 2.03288e-20)
(3.38676 0.109735 5.42101e-20)
(3.30427 0.228892 0)
(3.29874 0.221269 8.13152e-20)
(3.22879 0.208677 -8.13152e-20)
(3.20991 0.160756 8.13152e-20)
(3.13779 0.219029 0)
(3.05837 0.269763 -1.0842e-19)
(3.14623 0.200669 0)
(3.14272 0.175021 0)
(3.08252 0.0285113 0)
(2.98213 0.170278 4.06576e-20)
(2.92972 0.227791 -6.77626e-20)
(2.92948 0.0805468 3.04932e-20)
(2.87822 0.198665 -1.0842e-19)
(2.77967 0.260175 -1.0842e-19)
(2.72161 0.241846 0)
(2.74015 0.186622 -1.0842e-19)
(2.67156 0.149504 4.06576e-20)
(2.65762 0.128928 0)
(2.61835 0.210088 1.0842e-19)
(2.53738 0.150389 -1.35525e-20)
(2.49101 0.06717 -2.71051e-20)
(2.48661 0.153881 5.42101e-20)
(2.47969 0.129187 8.13152e-20)
(2.44287 0.0673252 -1.35525e-20)
(2.36884 0.10951 1.35525e-20)
(2.33367 0.258062 0)
(2.30882 0.12676 2.71051e-20)
(2.13899 0.209554 0)
(4.0787 -2.01164e-33 1.75553e-35)
(5.10924 0.428789 -2.71051e-19)
(5.23727 0.240361 -1.0842e-19)
(4.97519 0.296968 0)
(4.80616 0.388889 0)
(5.14065 0.157429 -2.71051e-20)
(5.11218 0.118777 0)
(5.10542 0.151595 -5.42101e-20)
(4.93577 0.186499 0)
(4.93999 0.108713 -2.71051e-20)
(4.75388 0.257706 0)
(4.89944 0.197548 0)
(4.8272 0.218626 0)
(4.86655 0.0852809 -2.71051e-20)
(4.83282 0.061945 2.71051e-20)
(4.71245 0.222999 1.0842e-19)
(4.61839 0.17477 -5.42101e-20)
(4.60711 0.0537772 2.71051e-20)
(4.56586 0.209498 -1.0842e-19)
(4.51405 0.177597 0)
(4.43218 0.205004 -2.37169e-20)
(4.41538 0.199566 -2.71051e-20)
(4.28207 0.217366 0)
(4.29572 0.180248 -5.42101e-20)
(4.27857 0.140136 0)
(4.27498 0.113111 -2.71051e-20)
(4.2094 0.131747 1.35525e-20)
(4.01128 0.292137 0)
(4.08564 0.111524 5.42101e-20)
(4.00805 0.139448 2.03288e-20)
(3.94932 0.154304 0)
(3.80791 0.27941 0)
(3.86689 0.139872 -1.0842e-19)
(3.75591 0.180309 -1.0842e-19)
(3.72815 0.231184 -2.71051e-20)
(3.70104 0.154319 1.35525e-19)
(3.63571 0.142402 -2.71051e-20)
(3.47646 0.184407 -1.0842e-19)
(3.46795 0.120225 -5.42101e-20)
(7.06858 -1.75824e-33 1.53439e-35)
(5.8992 -1.85735e-33 1.62088e-35)
(5.6621 -1.87744e-33 1.63842e-35)
(7.40076 -1.73005e-33 1.5098e-35)
(6.61396 -1.79677e-33 1.56802e-35)
(7.78885 0.269789 0)
(7.72871 0.241636 0)
(7.59163 0.238016 0)
(7.75363 0.0766457 2.71051e-20)
(7.77592 0.111902 2.71051e-20)
(7.54478 0.135857 0)
(7.41525 0.224222 8.13152e-20)
(7.44188 0.146125 0)
(7.33071 0.193986 5.42101e-20)
(7.11209 0.248175 2.71051e-20)
(7.15676 0.210689 -5.42101e-20)
(7.17618 0.067511 2.71051e-20)
(7.20839 0.0869823 -3.38813e-20)
(7.14769 0.171444 0)
(7.14934 0.161873 0)
(7.08817 0.0541926 3.38813e-20)
(7.05055 0.0227769 0)
(7.01153 0.166164 8.13152e-20)
(6.84916 0.194922 -2.71051e-20)
(6.77748 0.219676 0)
(6.57161 0.273872 -5.42101e-20)
(6.77026 0.107744 0)
(6.76386 0.123278 2.03288e-20)
(6.70679 0.0950158 0)
(6.57634 0.210249 0)
(6.54723 0.203082 -2.71051e-20)
(6.46452 0.106219 2.71051e-20)
(6.31455 0.223632 0)
(6.38439 0.173289 0)
(6.35654 0.161213 0)
(6.23678 0.223892 0)
(6.29319 0.10784 -4.06576e-20)
(6.04268 0.312845 0)
(6.15832 0.151448 0)
(6.10912 0.219123 0)
(6.01972 0.265817 -5.42101e-20)
(6.1344 0.190075 0)
(6.09557 0.202307 0)
(6.08157 0.139127 6.09864e-20)
(5.89911 0.234591 0)
(5.84233 0.245944 0)
(5.80688 0.115438 0)
(5.68452 0.234149 -2.1684e-19)
(5.68385 0.112432 0)
(5.61949 0.177344 0)
(5.57838 0.230315 5.42101e-20)
(5.56286 0.251231 1.0842e-19)
(5.54388 0.257196 1.0842e-19)
(5.49843 0.182017 0)
(5.4793 0.207585 0)
(5.43865 0.168712 0)
(5.41338 0.167032 0)
(5.38998 0.124623 -1.0842e-19)
(5.33098 0.216816 0)
(5.34188 0.155737 0)
(10.8552 -1.43732e-33 1.25433e-35)
(10.9197 -1.43184e-33 1.24955e-35)
(9.11716 -1.58462e-33 1.38287e-35)
(10.2294 -1.49035e-33 1.30061e-35)
(8.96949 -1.59713e-33 1.3938e-35)
(10.353 -1.47987e-33 1.29147e-35)
(8.99917 -1.59462e-33 1.3916e-35)
(10.0972 -1.50156e-33 1.31039e-35)
(10.0631 -1.50445e-33 1.31291e-35)
(9.5644 -1.54671e-33 1.34979e-35)
(10.4495 -1.47166e-33 1.28436e-35)
(10.6291 -1.45647e-33 1.27104e-35)
(10.8911 0.233542 1.0842e-19)
(10.81 0.183041 -5.42101e-20)
(10.4705 0.240608 -1.6263e-19)
(10.909 0.0941777 5.42101e-20)
(10.8022 0.110184 0)
(10.4585 0.250412 5.42101e-20)
(10.5267 0.183701 8.80914e-20)
(10.5 0.175788 -1.0842e-19)
(10.4428 0.198646 -2.71051e-20)
(10.5073 0.156338 -1.0842e-19)
(10.3722 0.174593 -5.42101e-20)
(10.2169 0.212322 1.0842e-19)
(9.78336 0.427734 2.1684e-19)
(10.3883 0.0629853 1.69407e-21)
(10.1988 0.20536 1.0842e-19)
(10.2936 0.0786992 0)
(9.69537 0.422768 0)
(10.1378 0.0624414 -2.71051e-20)
(9.69425 0.255182 0)
(9.96053 0.0105309 0)
(9.74915 0.195448 5.42101e-20)
(9.86195 0.0329435 2.71051e-20)
(9.52314 0.308078 0)
(9.72728 0.118561 1.35525e-20)
(9.61593 0.149541 0)
(9.4943 0.211974 1.0842e-19)
(9.34877 0.287091 -5.42101e-20)
(9.51542 0.181321 0)
(9.60385 0.0321451 1.35525e-20)
(9.49168 0.18953 -1.0842e-19)
(9.33364 0.25304 -3.38813e-20)
(9.44976 0.170167 -1.01644e-19)
(9.49896 0.039896 0)
(9.42433 0.156464 0)
(9.07375 0.429748 -2.1684e-19)
(9.4149 0.0954284 -5.42101e-20)
(9.28112 0.203264 1.35525e-20)
(9.35987 0.0323518 -1.69407e-21)
(9.3059 0.0778494 4.06576e-20)
(9.18153 0.230103 -3.38813e-20)
(9.26632 0.152211 1.0842e-19)
(9.18824 0.0963932 0)
(9.15419 0.131626 0)
(8.92132 0.30191 -3.04932e-20)
(9.00155 0.167466 2.03288e-20)
(8.89934 0.225991 0)
(8.9818 0.134081 -1.0842e-19)
(8.93131 0.128257 -2.71051e-20)
(8.92655 0.0585741 2.71051e-20)
(8.90156 0.10933 0)
(8.47562 0.393168 0)
(8.56733 0.236972 5.42101e-20)
(8.55021 0.190595 1.35525e-20)
(8.54257 0.074541 -1.35525e-20)
(8.4332 0.26956 1.0842e-19)
(8.49085 0.0833314 1.35525e-20)
(8.44851 0.130727 -2.71051e-20)
(8.43398 0.100462 0)
(8.42666 0.132576 -2.71051e-20)
(8.36608 0.142706 5.42101e-20)
(8.3201 0.213942 -2.71051e-20)
(8.29073 0.0534587 1.69407e-20)
(8.1791 0.248073 -5.42101e-20)
(8.21747 0.135522 -1.35525e-20)
(7.99236 0.0585572 0)
(7.99065 0.138578 -2.1684e-19)
(7.98025 0.0817346 -5.42101e-20)
(7.95584 0.189585 -5.42101e-20)
(7.92435 0.0808104 -4.06576e-20)
(7.90595 0.253326 8.13152e-20)
(7.87273 0.285124 -5.42101e-20)
(7.85837 0.0515888 -1.35525e-20)
(7.8474 0.155637 5.42101e-20)
(13.0111 -1.25459e-33 1.09487e-35)
(13.2921 -1.23078e-33 1.07408e-35)
(13.6898 -1.19702e-33 1.04471e-35)
(13.4366 -1.21854e-33 1.0634e-35)
(13.3363 -1.22703e-33 1.07082e-35)
(13.9665 -1.17279e-33 1.02348e-35)
(12.5242 -1.29587e-33 1.13088e-35)
(13.4098 -1.2208e-33 1.06538e-35)
(12.354 -1.31029e-33 1.14347e-35)
(12.3154 -1.31356e-33 1.14633e-35)
(12.0712 -1.33426e-33 1.16439e-35)
(12.2834 -1.31627e-33 1.14869e-35)
(14.0083 1.03173e-28 -9.00374e-31)
(11.9073 -1.34815e-33 1.17651e-35)
(12.5792 2.65547e-29 2.31762e-31)
(11.8862 -1.34993e-33 1.17807e-35)
(13.02 -1.25384e-33 1.09421e-35)
(11.9378 -1.34556e-33 1.17426e-35)
(13.7642 -1.19077e-33 1.03917e-35)
(11.6534 -1.36966e-33 1.19528e-35)
(12.0805 6.42539e-25 5.60735e-27)
(11.5574 -1.3778e-33 1.20239e-35)
(13.945 -1.17545e-33 1.0258e-35)
(11.9407 -1.34532e-33 1.17404e-35)
(11.1944 -1.40857e-33 1.22924e-35)
(11.8677 -1.3515e-33 1.17944e-35)
(13.9976 -1.17099e-33 1.0219e-35)
(11.0231 -1.42309e-33 1.24191e-35)
(11.011 -1.42411e-33 1.2428e-35)
(13.5962 0.519319 3.25261e-19)
(13.9019 0.336254 -2.1684e-19)
(13.5981 0.486296 2.71051e-20)
(13.7856 0.250161 -1.6263e-19)
(14.0874 0.109289 -5.42101e-20)
(13.5541 0.357122 2.1684e-19)
(13.4632 0.35046 0)
(13.8177 0.207539 0)
(13.2307 0.467981 1.35525e-20)
(14.0154 0.063728 -2.71051e-20)
(13.8972 0.0969662 2.71051e-20)
(13.803 0.123796 -5.42101e-20)
(13.6464 0.203998 8.13152e-20)
(13.6232 0.188807 0)
(13.7534 0.11435 0)
(13.6222 0.163085 1.21973e-19)
(13.2068 0.314819 1.0842e-19)
(13.5614 0.17163 -5.42101e-20)
(13.6374 0.142372 0)
(13.7282 0.0492009 -2.71051e-20)
(13.6435 0.107706 -5.42101e-20)
(13.3825 0.248243 0)
(13.0938 0.357825 3.25261e-19)
(13.4928 0.132652 0)
(13.4546 0.0916156 -1.01644e-20)
(13.2979 0.161544 -1.0842e-19)
(12.7288 0.442398 2.1684e-19)
(13.315 0.0398945 0)
(13.1307 0.161417 -5.42101e-20)
(13.2294 0.00983657 1.972e-21)
(12.6866 0.403019 0)
(12.9758 0.182408 1.0842e-19)
(12.9154 0.193669 0)
(12.5389 0.504402 -2.1684e-19)
(13.0027 0.0842643 0)
(12.772 0.212968 0)
(12.9597 0.0859028 0)
(12.8974 0.12807 0)
(12.5694 0.332098 1.0842e-19)
(12.6647 0.219028 1.0842e-19)
(12.7632 0.0819854 -1.35525e-20)
(12.6378 0.14752 0)
(12.632 0.153259 1.0842e-19)
(12.5392 0.205031 -5.42101e-20)
(12.616 0.130107 5.42101e-20)
(12.4535 0.215023 5.42101e-20)
(12.1764 0.41921 1.0842e-19)
(12.3438 0.205094 1.6263e-19)
(12.3623 0.186017 0)
(12.2484 0.272192 5.42101e-20)
(12.3971 0.044155 0)
(12.3232 0.118916 -6.77626e-21)
(12.0162 0.400583 0)
(12.0877 0.228668 -2.71051e-20)
(12.153 0.147463 6.77626e-20)
(12.1291 0.129484 0)
(12.148 0.0600802 -1.35525e-20)
(12.1189 0.123404 -2.71051e-20)
(12.1069 0.141692 -2.71051e-20)
(11.806 0.492986 0)
(12.026 0.0543568 2.71051e-20)
(11.7922 0.30413 8.13152e-20)
(11.8769 0.147481 -2.1684e-19)
(11.701 0.186426 -2.03288e-20)
(11.6854 0.180053 -8.13152e-20)
(11.4784 0.531118 -8.13152e-20)
(11.4235 0.454592 2.71051e-20)
(11.5215 0.127426 -8.47033e-22)
(11.4713 0.139324 0)
(11.4039 0.188353 0)
(11.3335 0.395099 -1.0842e-19)
(11.3691 0.0445751 0)
(11.3554 0.0725912 -1.35525e-20)
(11.3353 0.0688579 0)
(11.1852 0.485208 0)
(11.1741 0.206059 0)
(11.1758 0.156334 5.42101e-20)
(11.1709 0.0963013 -1.35525e-20)
(11.1294 0.204504 -5.42101e-20)
(11.1157 0.202395 -1.0842e-19)
(11.1142 0.187156 -1.0842e-19)
(11.0817 0.0353004 -6.77626e-21)
(11.0424 0.00167401 0)
(11.0047 0.230559 -6.26804e-20)
(11.0033 0.0302828 -2.5411e-21)
(10.9773 0.248348 0)
(10.9652 0.301018 -5.42101e-20)
(10.9671 0.11229 2.71051e-20)
(10.9489 0.175148 1.0842e-19)
(16.9964 -9.16829e-34 8.00104e-36)
(16.4801 -9.60589e-34 8.38293e-36)
(16.5884 -9.51414e-34 8.30286e-36)
(16.0886 -9.93766e-34 8.67246e-36)
(16.0515 -9.96913e-34 8.69992e-36)
(18.9614 -7.50292e-34 6.54769e-36)
(18.5183 -7.87849e-34 6.87546e-36)
(17.3766 -8.8461e-34 7.71987e-36)
(16.8838 -9.26377e-34 8.08437e-36)
(17.3098 -8.90271e-34 7.76928e-36)
(15.8596 -1.01318e-33 8.8419e-36)
(18.3933 -7.98442e-34 6.9679e-36)
(18.4444 -7.94111e-34 6.9301e-36)
(16.1393 -9.89477e-34 8.63503e-36)
(18.4967 -7.89674e-34 6.89138e-36)
(15.2843 -1.06194e-33 9.2674e-36)
(17.7244 -8.55132e-34 7.46263e-36)
(18.8816 -7.5706e-34 6.60676e-36)
(18.0492 7.78818e-29 6.79679e-31)
(18.8194 -7.6233e-34 6.65275e-36)
(15.1001 4.08819e-23 3.56771e-25)
(16.3908 -9.68155e-34 8.44896e-36)
(15.096 -1.07789e-33 9.40663e-36)
(18.5332 -7.86581e-34 6.86439e-36)
(17.7033 -8.56918e-34 7.47821e-36)
(16.3905 -9.6818e-34 8.44918e-36)
(15.0348 -1.08308e-33 9.45192e-36)
(18.6991 -7.72527e-34 6.74174e-36)
(18.726 -7.70244e-34 6.72182e-36)
(16.5711 -9.52876e-34 8.31562e-36)
(17.9713 -8.34209e-34 7.28003e-36)
(15.8833 -1.01117e-33 8.82431e-36)
(16.1485 -9.88689e-34 8.62816e-36)
(15.5772 -1.03712e-33 9.05077e-36)
(16.3133 -9.74723e-34 8.50628e-36)
(15.2473 -1.06507e-33 9.29474e-36)
(18.7348 -7.69494e-34 6.71528e-36)
(14.7634 -1.10608e-33 9.65265e-36)
(16.4588 -9.62394e-34 8.39869e-36)
(16.7089 -9.41194e-34 8.21367e-36)
(17.2781 -8.9296e-34 7.79275e-36)
(16.1486 -9.88682e-34 8.6281e-36)
(14.6762 -1.11347e-33 9.71714e-36)
(17.488 1.00869e-22 8.80272e-25)
(18.327 -8.04058e-34 7.01691e-36)
(14.6481 1.81778e-29 1.58654e-31)
(18.4346 -7.94944e-34 6.93737e-36)
(17.0664 -9.10899e-34 7.9493e-36)
(16.3976 -9.67584e-34 8.44398e-36)
(19.0125 -5.35918e-34 4.67689e-36)
(16.7665 -9.36313e-34 8.17108e-36)
(18.3894 -7.98768e-34 6.97075e-36)
(19.0898 -7.39411e-34 6.45274e-36)
(16.5297 -9.56382e-34 8.34622e-36)
(14.5041 -1.12806e-33 9.84444e-36)
(14.4919 -1.12909e-33 9.85346e-36)
(16.5046 -9.5851e-34 8.36479e-36)
(19.0244 -7.44955e-34 6.50112e-36)
(14.9498 -1.09029e-33 9.51478e-36)
(17.7249 -8.55089e-34 7.46225e-36)
(14.4139 -1.13571e-33 9.91117e-36)
(17.9447 -8.36465e-34 7.29972e-36)
(15.8364 -1.01515e-33 8.85904e-36)
(14.3652 -1.13983e-33 9.94714e-36)
(16.7656 -9.36396e-34 8.17181e-36)
(18.0596 -8.26722e-34 7.2147e-36)
(17.2766 -8.93082e-34 7.79381e-36)
(15.4409 -1.04866e-33 9.15154e-36)
(16.3643 1.28396e-27 -1.12049e-29)
(18.3596 1.83907e-29 1.60507e-31)
(16.0736 -9.95044e-34 8.68361e-36)
(14.2521 2.86807e-22 -2.50293e-24)
(17.4415 -8.79111e-34 7.67188e-36)
(14.2212 -1.15204e-33 1.00537e-35)
(14.2287 -1.1514e-33 1.00482e-35)
(14.6536 -1.11539e-33 9.73387e-36)
(18.7451 -7.68622e-34 6.70766e-36)
(14.2021 -1.15365e-33 1.00678e-35)
(19.091 0.450647 -4.33681e-19)
(18.8074 0.302031 -2.1684e-19)
(18.708 0.35446 -5.42101e-20)
(18.9376 0.393442 8.13152e-20)
(18.4546 0.409478 -5.42101e-20)
(19.1083 0.119141 -2.71051e-20)
(18.5571 0.305775 0)
(18.6914 0.255465 0)
(19.0004 0.191131 0)
(18.5278 0.241976 1.0842e-19)
(18.3123 0.214542 1.0842e-19)
(18.751 0.20484 5.42101e-20)
(19.1165 0.0468328 0)
(17.6669 0.620509 1.0842e-19)
(18.6712 0.120194 -5.42101e-20)
(18.8209 0.11864 -4.74338e-20)
(18.9859 0.00487441 3.38813e-21)
(14.1531 -1.15781e-33 1.01041e-35)
(18.681 0.111032 0)
(18.9297 0.059606 1.35525e-20)
(18.3514 0.205161 -1.0842e-19)
(18.6659 0.0241025 0)
(18.3095 0.178323 5.42101e-20)
(17.774 0.318077 -2.1684e-19)
(18.0209 0.207436 0)
(18.4827 0.0386276 0)
(17.9706 0.373811 0)
(18.2819 0.144382 3.72694e-20)
(17.7889 0.268491 0)
(17.444 0.444842 1.0842e-19)
(18.1195 0.131275 0)
(17.8405 0.198595 -5.05837e-20)
(18.3551 0.0729407 2.71051e-20)
(18.3153 0.0280931 7.6233e-21)
(18.2129 0.00562649 0)
(17.4868 0.274432 0)
(17.7198 0.24341 5.42101e-20)
(17.7106 0.152683 -5.42101e-20)
(17.761 0.130172 5.42101e-20)
(16.5394 0.899234 1.0842e-19)
(17.1263 0.327232 0)
(17.5021 0.170484 0)
(17.3803 0.144879 2.71051e-20)
(17.3009 0.248326 1.0842e-19)
(16.9806 0.267902 5.42101e-20)
(17.2319 0.119202 2.71051e-20)
(16.7729 0.330327 0)
(17.1664 0.141664 1.0842e-19)
(17.2463 0.0526007 0)
(16.6402 0.384282 0)
(17.135 0.104529 -2.71051e-20)
(16.8289 0.196095 1.0842e-19)
(16.6501 0.293071 2.71051e-20)
(16.8996 0.121125 -5.42101e-20)
(16.4734 0.360024 0)
(16.7794 0.255942 0)
(16.9333 0.104241 -2.71051e-20)
(16.2078 0.527289 -2.1684e-19)
(16.5233 0.310103 5.42101e-20)
(16.3658 -9.7028e-34 8.46751e-36)
(16.5464 0.236766 5.42101e-20)
(16.3312 0.38483 2.1684e-19)
(16.5453 0.19161 0)
(16.6579 0.108082 -1.69407e-20)
(16.6768 0.102963 5.42101e-20)
(16.5124 0.185045 2.03288e-20)
(16.2147 0.376581 4.06576e-20)
(16.4988 0.169656 0)
(16.1242 0.279986 0)
(16.1979 0.176071 0)
(16.2707 0.101245 0)
(16.0619 0.188508 -5.42101e-20)
(16.0091 0.0913204 5.42101e-20)
(15.7596 0.176245 0)
(15.8064 0.205189 -5.42101e-20)
(15.771 0.173897 -1.0842e-19)
(15.5893 0.357942 0)
(15.6046 0.296165 0)
(15.7322 0.170129 0)
(15.6333 0.106566 5.42101e-20)
(15.7116 0.03905 0)
(15.5551 0.18325 7.45389e-20)
(15.6368 0.0214675 1.05879e-20)
(15.3205 0.315088 1.0842e-19)
(15.4757 0.121792 -4.06576e-20)
(15.4339 0.142411 0)
(15.3135 0.302293 6.77626e-21)
(15.3678 0.19732 5.42101e-20)
(15.2865 0.241043 2.1684e-19)
(15.3548 0.126544 -2.71051e-20)
(15.2085 0.2331 1.0842e-19)
(15.3428 0.10429 5.0822e-21)
(15.1843 0.154031 0)
(15.1067 0.23815 0)
(15.2194 0.0838529 1.35525e-20)
(15.2038 0.0995283 -2.71051e-20)
(15.0718 0.388776 5.42101e-20)
(15.0264 0.163602 -6.77626e-21)
(15.0451 0.145486 -1.35525e-20)
(14.9864 0.242485 0)
(14.952 0.207466 0)
(14.809 0.357201 1.35525e-19)
(14.8512 0.204453 5.42101e-20)
(14.785 0.172744 -1.35525e-20)
(14.8526 0.0219467 0)
(14.7518 0.208241 -1.69407e-20)
(14.6554 0.228188 0)
(14.6001 0.613418 0)
(14.6011 0.399762 -2.1684e-19)
(14.4905 0.604036 1.20279e-19)
(14.4661 0.172953 2.71051e-20)
(14.4842 0.115062 2.71051e-20)
(14.474 0.0840905 -2.71051e-20)
(14.4181 0.161482 3.55754e-20)
(14.406 0.153977 -5.42101e-20)
(14.3642 0.260085 2.71051e-20)
(14.3544 0.167019 -2.71051e-20)
(14.2639 0.231084 0)
(23.3763 -3.76123e-34 3.28237e-36)
(23.1706 -3.93555e-34 3.4345e-36)
(21.1892 -5.6148e-34 4.89996e-36)
(22.4647 -4.52397e-34 3.94801e-36)
(22.6053 -4.41464e-34 3.8526e-36)
(20.8345 -5.91543e-34 5.16231e-36)
(22.7132 -4.32318e-34 3.77278e-36)
(20.8721 -5.88354e-34 5.13448e-36)
(24.3383 -2.94591e-34 2.57085e-36)
(23.2735 -3.84837e-34 3.35842e-36)
(21.992 -4.9344e-34 4.30619e-36)
(23.6602 -3.52061e-34 3.07239e-36)
(20.6784 -6.04774e-34 5.27778e-36)
(24.339 -2.94527e-34 2.5703e-36)
(24.4066 -2.88796e-34 2.52029e-36)
(20.6477 -6.07373e-34 5.30047e-36)
(22.7198 -4.31763e-34 3.76794e-36)
(22.5656 1.15666e-27 1.00941e-29)
(22.639 1.21289e-20 1.05848e-22)
(23.8769 -3.33692e-34 2.91208e-36)
(20.6891 -6.03863e-34 5.26983e-36)
(21.0033 -5.77239e-34 5.03749e-36)
(21.5003 -5.35114e-34 4.6699e-36)
(21.0865 -5.70184e-34 4.97592e-36)
(20.8032 -5.94198e-34 5.18549e-36)
(23.762 -3.43431e-34 2.99708e-36)
(23.5784 -3.58996e-34 3.13291e-36)
(23.2204 -3.89335e-34 3.39768e-36)
(22.8832 -4.17915e-34 3.64709e-36)
(22.8807 -4.18124e-34 3.64891e-36)
(21.7294 -5.15695e-34 4.5004e-36)
(22.1425 -4.80689e-34 4.19491e-36)
(23.5225 1.42669e-27 1.24505e-29)
(22.1707 -4.78298e-34 4.17404e-36)
(20.4411 -6.24882e-34 5.45326e-36)
(24.2007 -3.06247e-34 2.67258e-36)
(21.0089 -5.76759e-34 5.0333e-36)
(22.3805 -4.60521e-34 4.0189e-36)
(20.8632 -5.89112e-34 5.14111e-36)
(24.3695 -2.9194e-34 2.54773e-36)
(22.961 -4.11316e-34 3.5895e-36)
(24.4924 -2.81531e-34 2.45688e-36)
(20.3606 4.81911e-26 4.20557e-28)
(22.5567 -4.45584e-34 3.88855e-36)
(23.5114 -3.64673e-34 3.18246e-36)
(23.3202 -3.80874e-34 3.32384e-36)
(21.5253 2.01617e-26 -1.75949e-28)
(23.5827 -3.58627e-34 3.12969e-36)
(20.3222 -6.34962e-34 5.54123e-36)
(23.0343 -4.05103e-34 3.53528e-36)
(20.481 -6.21502e-34 5.42376e-36)
(22.0919 -4.84979e-34 4.23234e-36)
(21.2682 -5.54788e-34 4.84156e-36)
(22.2384 -4.72562e-34 4.12399e-36)
(24.1151 -3.13509e-34 2.73595e-36)
(24.5009 -2.8081e-34 2.45059e-36)
(22.734 -4.30553e-34 3.75738e-36)
(21.5478 -5.31088e-34 4.63473e-36)
(23.1607 -3.94393e-34 3.44182e-36)
(20.2366 -6.42221e-34 5.60458e-36)
(22.095 -4.84711e-34 4.23001e-36)
(21.083 -5.70482e-34 4.97852e-36)
(23.3287 -3.80155e-34 3.31756e-36)
(24.0655 -3.17711e-34 2.77262e-36)
(23.1006 -3.99487e-34 3.48627e-36)
(22.4267 -4.56602e-34 3.9847e-36)
(21.4875 -5.36199e-34 4.67934e-36)
(22.9762 -4.10033e-34 3.5783e-36)
(24.3045 -2.97452e-34 2.59583e-36)
(21.7147 -5.16946e-34 4.51132e-36)
(21.7821 -5.11232e-34 4.46146e-36)
(23.3713 -3.76542e-34 3.28603e-36)
(22.7423 -4.29851e-34 3.75125e-36)
(21.9052 -5.00799e-34 4.37041e-36)
(22.3791 -4.60633e-34 4.01989e-36)
(22.7812 -4.26558e-34 3.72251e-36)
(21.7121 -5.17169e-34 4.51327e-36)
(20.5326 -6.17127e-34 5.38559e-36)
(21.6047 -5.26271e-34 4.59269e-36)
(21.0091 -5.76744e-34 5.03317e-36)
(20.1824 -6.46811e-34 5.64463e-36)
(22.1987 -4.75926e-34 4.15334e-36)
(21.3443 -5.4834e-34 4.78529e-36)
(20.0314 8.93464e-20 7.79714e-22)
(21.6746 -5.20343e-34 4.54097e-36)
(20.8571 -5.8963e-34 5.14562e-36)
(20.6515 -6.07051e-34 5.29765e-36)
(23.4965 -3.65935e-34 3.19346e-36)
(23.1436 -3.9584e-34 3.45445e-36)
(20.0029 -6.62022e-34 5.77737e-36)
(21.3938 -5.44142e-34 4.74865e-36)
(23.7518 -3.44299e-34 3.00465e-36)
(24.1217 -3.12942e-34 2.731e-36)
(24.2622 3.30275e-21 2.88227e-23)
(21.7398 3.03174e-20 -2.64576e-22)
(21.9377 -4.98041e-34 4.34634e-36)
(22.8166 -4.23557e-34 3.69633e-36)
(22.1642 -4.78845e-34 4.17882e-36)
(23.5306 4.62359e-28 -4.03495e-30)
(20.5207 -6.18142e-34 5.39444e-36)
(22.6776 -4.35337e-34 3.79913e-36)
(20.8408 -5.91009e-34 5.15766e-36)
(23.2854 -3.83826e-34 3.3496e-36)
(22.6981 -4.33601e-34 3.78398e-36)
(19.9272 -6.6844e-34 5.83339e-36)
(22.9762 4.38897e-21 3.8302e-23)
(20.8164 -5.93081e-34 5.17574e-36)
(19.9031 -6.70486e-34 5.85124e-36)
(19.9076 -6.70099e-34 5.84786e-36)
(21.1804 -5.62231e-34 4.90652e-36)
(21.2677 -5.54832e-34 4.84194e-36)
(20.7919 -5.9515e-34 5.1938e-36)
(21.5281 2.68767e-26 -2.34549e-28)
(24.0748 -3.16921e-34 2.76573e-36)
(19.8571 -6.74383e-34 5.88525e-36)
(19.8659 2.87267e-30 2.50812e-32)
(24.4685 -2.83551e-34 2.47451e-36)
(20.1317 -6.51109e-34 5.68214e-36)
(24.0378 4.04372e-22 -3.5289e-24)
(19.935 -6.67779e-34 5.82762e-36)
(24.2773 -2.99755e-34 2.61592e-36)
(20.8989 -5.86085e-34 5.11468e-36)
(21.814 -5.0853e-34 4.43787e-36)
(23.3697 -3.76678e-34 3.28722e-36)
(24.1323 -3.1205e-34 2.72322e-36)
(23.06 -4.02925e-34 3.51627e-36)
(23.1226 -3.97626e-34 3.47003e-36)
(22.6515 -4.37552e-34 3.81846e-36)
(20.5928 -6.12031e-34 5.34111e-36)
(22.269 -4.69968e-34 4.10135e-36)
(22.0631 -4.87414e-34 4.2536e-36)
(23.8746 -3.33889e-34 2.9138e-36)
(20.6216 -6.09591e-34 5.31982e-36)
(19.9373 -6.67587e-34 5.82594e-36)
(22.0768 -4.86254e-34 4.24347e-36)
(19.7474 -6.83682e-34 5.9664e-36)
(24.4324 -2.86611e-34 2.50121e-36)
(20.2116 -6.44336e-34 5.62304e-36)
(20.7618 -5.97708e-34 5.21612e-36)
(23.9153 -3.30437e-34 2.88368e-36)
(20.4737 7.79848e-06 -2.46576e-15)
(23.5959 -3.5751e-34 3.11994e-36)
(21.1713 -5.63001e-34 4.91324e-36)
(19.6838 -6.89067e-34 6.0134e-36)
(19.7946 -6.79675e-34 5.93144e-36)
(19.7114 -6.86733e-34 5.99303e-36)
(23.4629 -3.68782e-34 3.21831e-36)
(20.5058 -6.19404e-34 5.40546e-36)
(21.633 -5.23871e-34 4.57176e-36)
(24.2039 -3.05982e-34 2.67027e-36)
(24.2839 -2.99201e-34 2.61109e-36)
(21.3 -5.52096e-34 4.81807e-36)
(23.3478 -3.78539e-34 3.30346e-36)
(19.9458 -6.66863e-34 5.81963e-36)
(19.5778 -6.98055e-34 6.09183e-36)
(20.4928 -6.20502e-34 5.41504e-36)
(22.3893 -4.59768e-34 4.01233e-36)
(19.5434 -7.00963e-34 6.11721e-36)
(23.9714 -3.25684e-34 2.84221e-36)
(21.8635 -5.04335e-34 4.40127e-36)
(21.7921 -5.10388e-34 4.45409e-36)
(20.18 -6.47011e-34 5.64638e-36)
(23.0962 -3.99857e-34 3.4895e-36)
(19.5227 -5.44329e-34 7.5148e-36)
(20.6594 2.67982e-26 -2.33864e-28)
(23.6057 -3.56682e-34 3.11272e-36)
(19.4873 2.43697e-21 2.12671e-23)
(19.4885 -7.05622e-34 6.15787e-36)
(21.2864 -5.53244e-34 4.82809e-36)
(21.7091 -5.17421e-34 4.51546e-36)
(23.3487 -3.78455e-34 3.30273e-36)
(22.3845 -4.60182e-34 4.01594e-36)
(19.4363 -7.10047e-34 6.19648e-36)
(20.2016 -6.4518e-34 5.6304e-36)
(21.6858 -5.19397e-34 4.53271e-36)
(19.4327 -7.10351e-34 6.19914e-36)
(20.7828 -5.9593e-34 5.2006e-36)
(19.4228 -7.11191e-34 6.20647e-36)
(23.6 -3.57163e-34 3.11692e-36)
(20.1256 -6.51628e-34 5.68667e-36)
(22.2774 -4.69257e-34 4.09515e-36)
(22.4612 -4.53674e-34 3.95915e-36)
(21.7311 -5.15559e-34 4.49921e-36)
(21.5203 7.54793e-27 6.58698e-29)
(23.0222 -4.06135e-34 3.54429e-36)
(23.5158 -3.64299e-34 3.17919e-36)
(22.3139 3.83003e-28 -3.34242e-30)
(22.5981 -4.42073e-34 3.85791e-36)
(21.7417 -5.14655e-34 4.49133e-36)
(19.7239 -6.8567e-34 5.98375e-36)
(21.7623 -5.12909e-34 4.47609e-36)
(20.404 -6.28028e-34 5.48072e-36)
(20.0883 -6.54787e-34 5.71424e-36)
(22.9448 -4.12689e-34 3.60148e-36)
(24.4425 -2.85758e-34 2.49377e-36)
(20.9917 -5.78217e-34 5.04602e-36)
(19.275 -7.23713e-34 6.31574e-36)
(20.1401 -6.50397e-34 5.67593e-36)
(19.2604 -7.24951e-34 6.32655e-36)
(24.0244 -3.21191e-34 2.80299e-36)
(21.9263 -4.99009e-34 4.35479e-36)
(19.85 -6.74979e-34 5.89045e-36)
(23.9985 -3.23386e-34 2.82214e-36)
(21.6959 -5.18541e-34 4.52524e-36)
(21.0845 -4.32175e-34 3.77153e-36)
(22.7015 -4.33315e-34 3.78148e-36)
(24.4324 -2.86617e-34 2.50127e-36)
(19.1954 -7.30461e-34 6.37464e-36)
(19.1933 -7.30639e-34 6.37619e-36)
(24.0052 1.75674e-21 1.53309e-23)
(23.6364 -3.54074e-34 3.08996e-36)
(22.6988 -4.3354e-34 3.78345e-36)
(24.0869 1.10033 -4.33681e-19)
(22.4494 -4.54678e-34 3.96792e-36)
(24.1354 0.792988 -2.1684e-19)
(24.3886 0.549589 -1.0842e-19)
(19.18 -7.31766e-34 6.38603e-36)
(23.9889 0.501174 2.71051e-19)
(19.1746 -7.32225e-34 6.39003e-36)
(24.2753 0.523884 4.33681e-19)
(23.883 0.482335 -1.0842e-19)
(23.9027 0.489361 0)
(24.0208 0.388034 0)
(23.4602 0.646398 -4.33681e-19)
(24.4073 0.280299 5.42101e-20)
(24.2186 0.207607 1.0842e-19)
(24.2775 0.124278 0)
(23.9885 0.207235 0)
(24.4096 0.0902166 2.71051e-20)
(24.337 0.121414 -7.11508e-20)
(24.334 0.0746801 0)
(24.2678 0.173921 0)
(24.1501 0.115054 0)
(24.0266 0.136882 -5.42101e-20)
(23.777 0.266127 2.1684e-19)
(23.635 0.240765 0)
(23.1564 0.459032 2.1684e-19)
(23.5121 0.246521 -2.71051e-20)
(23.4899 0.215562 -1.0842e-19)
(23.1937 0.299314 0)
(23.3809 0.329068 1.35525e-20)
(23.6018 0.00941435 6.77626e-21)
(23.3361 0.159921 0)
(22.8204 0.633024 0)
(23.1173 0.222494 -5.42101e-20)
(19.4027 -7.12892e-34 6.22131e-36)
(23.0879 0.142381 1.35525e-20)
(22.6305 0.336956 -1.0842e-19)
(23.2048 0.0872745 0)
(23.0583 0.182741 1.0842e-19)
(22.9455 0.256279 0)
(22.8012 0.252254 0)
(22.5873 0.355581 0)
(22.9265 0.149671 1.35525e-20)
(22.9572 0.10625 0)
(23.0603 0.0523405 -1.35525e-20)
(22.2048 0.597841 -1.6263e-19)
(22.7286 0.00240102 0)
(22.641 0.317434 0)