/*--------------------------------*- C++ -*----------------------------------*\
  =========                 |
  \\      /  F ield         | OpenFOAM: The Open Source CFD Toolbox
   \\    /   O peration     | Website:  https://openfoam.org
    \\  /    A nd           | Version:  7
     \\/     M anipulation  |
\*---------------------------------------------------------------------------*/
FoamFile
{
    version     2.0;
    format      ascii;
    class       labelField;
    location    "0.7/lagrangian/reactingCloud1";
    object      origId;
}
// * * * * * * * * * * * * * * * * * * * * * * * * * * * * * * * * * * * * * //


2444
(
3946
3947
3948
3949
3950
3951
3952
3953
3954
3955
3956
3957
3958
3959
3960
3961
3962
3963
3964
3965
3966
3967
3968
3969
3970
3971
3972
3973
3974
3975
3976
3977
3978
3979
3980
3981
3982
3983
3984
3985
3986
2431
2433
3013
3795
3871
3877
3883
3884
3887
3888
3889
3890
3891
3892
3893
3894
3895
3897
3898
3899
3900
3901
3902
3903
3904
3906
3905
3896
3907
3908
3909
3911
3910
3912
3913
3915
3914
3916
3917
3918
3919
3920
3921
3922
3923
3925
3924
3926
3927
3928
3929
3930
3931
3932
3933
3935
3934
3936
3937
3938
3939
3940
3941
3942
3943
3944
3945
3780
3863
3862
3836
3867
3869
3870
3865
3868
3872
3866
3768
3873
3876
3879
3875
3864
3874
3878
3881
3880
3885
3882
3886
3837
3855
3854
3841
3857
3856
3853
3858
3860
3822
3861
3859
3831
3835
3840
3832
3838
3842
3839
3844
3845
3829
3834
3848
3833
3846
3843
3847
3852
3849
3851
3850
3794
3815
3817
3819
3821
3806
3824
3816
3818
3823
3825
3820
3827
3828
3826
3830
3748
3747
3789
3782
3785
3788
3791
3773
3772
3787
3792
3797
3796
3793
3800
3798
3790
3799
3801
3804
3805
3802
3807
3810
3808
3809
3811
3812
3803
3813
3814
1585
3704
3743
3712
3692
3750
3752
3751
3754
3756
3741
3755
3753
3758
3759
3757
3761
3764
3760
3762
3763
3766
3765
3767
3769
3770
3771
3744
3774
3775
3776
3749
3778
3779
3777
3781
3783
3786
3784
1136
1627
686
3110
3514
3654
3684
3682
3695
3694
3698
3688
3700
3701
3687
3699
3708
3707
3706
3696
3710
3703
3709
3711
3705
3697
3716
3714
3718
3715
3717
3723
3713
3721
3724
3720
3727
3640
3729
3689
3702
3722
3726
3730
3719
3725
3737
3731
3740
3736
3734
3733
3728
3742
3735
3738
3745
3746
3739
3732
786
1327
1072
1810
1084
1917
1552
2057
2139
2595
2600
2835
3558
3614
3588
3627
3626
3620
3623
3631
3617
3630
3634
3628
3522
3636
3632
3641
3581
3643
3615
3638
3646
3645
3607
3650
3653
3649
3633
3648
3656
3652
3642
3651
3658
3655
3635
3659
3647
3661
3629
3644
3660
3664
3663
3637
3662
3657
3667
3668
3670
3669
3595
3665
3672
3678
3639
3679
3674
3680
3671
3681
3673
3666
3676
3683
3690
3686
3610
3685
3691
3677
3675
3693
3304
158
338
620
739
800
1073
1597
1672
1722
1763
788
2007
2179
255
2222
895
2257
2466
2544
258
2687
1579
2901
2960
3440
3455
3470
1695
1576
3451
3498
3511
3535
3552
3533
3506
3544
3487
3559
3560
3539
3537
3548
3562
3554
3530
3556
3563
3529
3565
3526
3495
3555
3564
3550
3525
3574
3570
3576
3509
3568
3569
3409
3580
3566
3579
3577
3532
3567
3585
3582
3584
3557
3586
3572
3547
3573
3571
3561
3587
3594
3538
3583
3575
3592
3596
3598
3593
3542
3597
3553
3591
3590
3601
3543
3459
3611
3613
3608
3551
3606
3600
3619
3578
3589
3616
3621
3605
3609
3612
3624
3618
3602
3604
3599
3603
3625
3622
102
106
119
129
175
195
223
306
455
609
822
920
928
996
1076
657
1380
1506
1541
1548
206
1668
525
1684
1758
1720
1119
1844
1848
1918
1962
1982
2044
2048
2058
2019
2268
1247
2319
2351
2372
2409
1745
2487
2464
1161
2520
2517
2598
2531
2729
2771
2761
2773
1332
565
2804
2945
2933
2958
2980
2957
3004
2406
3050
3059
3094
3137
3136
3159
3249
2661
3282
55
3298
3309
3320
2359
3403
3375
3389
3420
3368
3417
3385
3424
3421
3394
3358
3396
3438
3361
3429
3441
3439
2763
3442
3447
3431
3448
3433
3411
3435
3445
3444
3453
3407
3366
3449
3425
3452
3460
3464
3376
3450
3434
3458
3372
3339
3462
3468
3467
3437
3482
3454
3476
3456
3446
3480
3469
3474
3465
3457
3478
3484
3432
3463
3491
3471
3428
3466
3494
3493
3472
3443
3488
3477
3479
3501
3461
3426
3483
3510
3504
3485
3492
3436
3502
3499
3497
3524
3486
3519
3515
3489
3481
3508
3513
3507
3527
3521
3500
3528
3531
3405
3517
3534
3523
3503
3473
3518
3505
3541
3496
3512
3475
3490
3430
3536
3546
3549
3540
3520
3250
3545
3516
5
1
2
22
40
59
65
35
67
76
78
87
109
103
140
173
191
160
251
246
294
297
321
349
376
385
348
374
402
467
450
473
474
556
558
568
635
604
653
614
693
627
722
726
723
793
791
783
77
835
808
840
811
901
899
930
932
976
936
625
1110
1150
1109
1165
1170
1199
1168
1221
1232
1242
1237
1300
1294
1314
1287
1358
1364
1307
1361
1375
1369
1397
1429
1239
1445
1475
1443
1489
1509
1141
1520
1514
1546
1562
1501
1565
1587
1526
1616
1625
1645
1654
1671
1673
774
1694
1643
1710
1708
1771
1764
1736
1808
1748
1352
918
1794
1850
1834
1873
1881
1884
1899
1898
1833
1889
1920
1839
1956
1986
2021
2001
2043
157
2066
1550
2004
2083
2118
2124
2127
2143
2178
1769
2217
2210
2283
2304
2291
2311
2280
2374
2420
2445
424
2481
2471
598
2522
2559
2572
2580
2560
2584
2607
2592
812
1251
2684
2698
2672
2682
959
2715
2741
1814
2739
2549
2793
2802
2775
2816
2796
2812
2826
2817
2848
2841
2821
2832
2889
2894
2948
2912
3015
3055
1286
3062
828
3067
3118
3155
3165
3115
3197
3183
3131
2456
1201
3237
3198
3224
3139
3181
3127
3239
1002
3214
57
3089
3238
3189
3201
3227
3287
3294
3288
3272
3283
3296
3302
3286
3269
3300
3297
3258
3248
3276
3263
3278
3290
3325
3209
3291
3267
3271
3310
3323
3316
3321
3330
3295
3256
3329
3328
3305
3264
3333
3319
3340
3326
3307
3342
3317
3242
3338
3336
3308
3349
3301
3312
3343
3306
3335
3344
3352
3318
3313
3347
3359
3303
3357
3351
3356
3345
3292
3315
3324
3327
3348
3299
3365
3371
3374
3363
3367
3332
3379
3353
3322
3390
3311
3314
3334
3387
3354
3373
3355
3380
3274
3369
3388
3337
3377
3391
3346
3398
3384
3381
3395
3401
3284
3397
3383
3378
3331
3410
3416
3364
3400
3360
3412
3404
3399
3408
3392
3382
3406
3414
3341
3370
3402
3280
2447
3261
3415
3422
3386
3350
3393
3413
3362
3418
3423
3427
3419
3
15
46
96
45
61
135
134
145
214
194
279
105
323
355
351
331
421
470
476
475
500
545
463
581
590
629
632
683
678
703
687
732
643
674
772
770
817
839
864
871
903
858
961
947
964
715
970
967
1018
935
235
1050
1096
1092
1095
31
1082
1069
1106
1156
1011
1129
1203
1207
1171
1186
1210
1204
1222
1293
1301
1318
1356
1384
1370
1409
1367
11
1441
1395
1446
183
1456
1498
1527
1545
1558
319
1641
1689
1677
1744
1718
1734
1730
1752
1801
54
1776
1863
1887
1907
1911
1905
1919
1924
1866
1915
1909
1932
85
1978
1901
1934
1617
1994
2037
2050
417
2062
2117
1248
2162
2175
2192
2227
2232
2235
2250
2281
2272
2350
2308
2391
2393
2403
2434
2416
2457
2480
2511
2225
2543
2564
531
1820
1430
1797
2596
2634
2663
1415
2649
2636
2680
2699
2574
2024
2745
2529
2768
2806
431
2834
2853
2809
2886
2927
2946
1858
2968
2988
3010
3066
3046
1765
3060
3041
3087
3063
3047
3095
3114
3070
2978
3090
3128
3043
3119
3085
3134
3097
3100
3099
3103
3135
3149
2983
3138
3129
3124
3145
3092
3105
2992
3111
3141
3065
3044
2237
2979
3132
3147
3112
3123
3133
3168
3171
3146
3086
3166
3164
3160
3150
2629
3126
3096
3143
3148
3163
3116
2999
3179
3142
3068
3170
3156
3154
90
2216
3196
3157
3106
3191
3173
3167
3101
3184
3185
3192
3193
3098
2959
3153
3207
3109
3080
3174
3205
3176
3194
3182
3219
3175
3140
3161
3158
3144
3200
2018
3190
3107
2998
3211
3186
3177
3178
3218
3221
3188
3228
3169
3235
3212
2987
3204
3231
3210
3230
3232
3151
3213
973
3203
3236
3206
3226
3202
3208
3247
3225
3255
3172
3240
3223
3233
3245
3252
3234
2941
3257
3254
3152
3268
3251
3162
3215
3187
3262
3246
3275
3266
3244
3243
3259
3195
3281
3277
3217
3265
3253
3222
3241
3260
3180
3285
3088
3229
3270
3061
3289
3279
3220
3293
3216
3273
3199
16
24
34
30
18
17
62
98
125
137
179
138
200
219
127
236
203
239
264
280
122
228
378
384
362
458
439
418
495
437
380
567
563
580
630
684
661
652
738
778
784
820
806
709
831
836
879
832
915
891
921
929
893
948
870
979
931
960
942
911
994
1006
1058
1023
1014
1041
1094
1042
1004
1051
1143
1102
1142
1178
1193
1182
1244
1195
1263
1266
1231
1339
1212
1296
1333
1363
1347
1464
1427
1438
515
1533
1191
1543
1544
1559
1560
1594
1598
1639
1653
1698
1696
1678
1655
1723
1737
1619
1784
1719
1773
1785
1780
1778
1759
1816
1859
1840
1842
1888
1876
1935
599
1954
1913
1976
1969
2015
1967
73
2084
2077
2092
2070
2095
2059
2120
2146
2128
2189
2236
2234
2206
2150
2244
2254
2249
2240
2306
2309
1754
2368
2300
2369
2380
2361
2331
1686
2399
2436
2424
2386
2451
2470
2497
2489
914
2475
2505
2494
2546
2561
2518
2575
2588
2537
2586
2624
2677
2691
2693
2707
2648
2732
2737
2090
2755
2762
2695
2787
2697
2611
2822
2828
2823
2798
1539
2857
2647
2880
1322
2593
2316
2873
2844
2721
2871
2867
2847
2836
2872
2766
2854
2753
2907
2897
2881
2850
2868
2814
2882
2900
2792
2903
2830
2883
2887
2878
2926
2910
2942
2953
2902
2837
2852
2922
2921
2924
2956
2937
2949
2905
2944
2962
2904
2891
1852
2934
2877
2965
2918
2935
2929
2874
2845
2982
2925
2888
2915
2961
2981
2885
2971
2906
2966
2938
2919
2742
2932
2920
2914
2976
2977
2989
2970
2986
2995
2909
3003
2931
2869
2859
2994
2930
2947
2954
2940
2952
2917
2955
2899
3001
3005
2813
2717
3017
2908
3022
2964
2911
2950
3020
3009
2936
3000
2928
2923
3021
3036
2810
3038
2997
3014
2896
2985
3002
3026
3029
2913
2975
2862
2967
3023
2963
3053
3031
3035
2429
3049
2991
2916
3048
3008
3052
2993
3030
3027
3077
905
3028
2972
3057
2943
3024
3071
3011
3007
3016
3054
3033
2974
3045
3081
2969
3058
3072
347
2951
3079
2876
2996
3042
3012
3075
3034
3018
3091
3083
2890
3093
3130
3037
3025
2892
3056
3076
3073
3064
3069
3051
3019
2990
3082
1311
3121
3084
2984
2973
3006
3102
3108
3125
3120
3117
3078
3040
3113
2939
3074
3104
3032
3122
3039
42
6
26
32
7
47
68
52
21
66
79
60
9
142
168
167
196
182
224
215
163
131
101
201
252
302
293
241
282
270
238
318
357
370
394
420
411
454
369
451
487
507
520
516
456
478
564
585
566
616
213
591
610
603
612
532
594
702
607
699
695
733
804
777
814
780
845
821
763
792
766
872
897
813
875
939
868
887
889
991
908
950
888
1021
1003
1031
953
1117
1108
1071
1124
1173
1166
1214
1189
1188
1067
1245
1236
1276
1228
1217
1269
1258
1259
1233
1317
1355
1362
1340
1334
1350
1472
1442
1458
1450
1453
1494
1128
1523
1500
1484
1554
1542
1566
1519
1583
1624
1615
1647
1600
1663
1650
1599
1522
1581
1620
1729
1685
1735
1714
1651
1712
1740
1648
1591
1756
1715
1774
1815
1804
19
1610
1658
1827
1824
1871
1882
1945
1883
1880
1103
1930
1975
2011
2014
1985
2022
2020
2027
2017
2035
2063
2097
2112
2098
927
1990
2055
2064
2091
2169
2144
2040
2160
2168
2142
2125
2133
705
2229
2251
2278
940
2193
2181
2205
2315
2080
2297
2328
2346
2226
2261
2314
2307
2329
2155
2260
2186
2317
2157
2301
2353
2358
2366
2376
2373
2165
2327
2344
2352
2212
2377
2387
2334
2321
2364
2418
2296
2348
2339
2362
2370
2367
2414
2303
2357
2378
2379
2338
2400
1504
2285
2421
2253
2426
2397
2363
2428
2437
2337
2394
2312
2438
2385
2119
2430
2371
2395
2356
2410
2427
2408
2446
2270
2277
2432
2049
799
2345
2375
2383
2298
2354
2443
2335
2341
2417
2461
2264
2423
2442
2459
2404
2460
2444
2488
2413
2401
2478
2454
2407
2455
2465
2453
2458
2477
2215
2405
2388
2501
2474
2390
2389
537
2479
2381
2502
2482
2441
2476
2504
2355
2360
2448
2398
2510
2422
2463
2512
2392
2509
2382
1757
2528
2347
2493
2523
2519
2473
28
2485
2452
2551
2514
2299
2503
2412
2384
2340
2525
2547
2396
2484
2440
2462
2450
2499
2535
2496
2550
2516
2521
2468
2571
2508
2498
2486
2554
2491
2349
2557
2562
2569
2323
2425
2530
2534
2325
2577
2532
2310
2541
2556
2538
2495
2565
2533
2602
2524
2548
2469
2578
2599
2618
2579
2623
2500
2490
2552
2555
2605
2545
2435
2603
2526
2635
2625
2507
2614
2601
2506
2589
2415
2621
2609
2284
2622
2185
2587
2628
2608
2585
2610
2594
2604
2472
2336
2616
2638
2613
2640
2582
2644
2646
2483
2553
2612
2615
2658
2513
2639
2674
2536
2568
2573
2642
2567
2540
2411
2666
2653
2650
2590
2617
2527
2626
2583
2655
2678
2558
2467
2632
2620
2694
1053
2645
2619
2692
2670
2654
2630
2702
2657
2439
2668
2710
2542
2708
2711
2675
2515
2664
2581
2676
2690
2681
2492
2728
2643
2576
2716
2700
2686
2591
2689
2566
2696
2449
2652
2637
2719
2597
2631
2712
2705
1078
2701
2563
2722
2736
2627
2656
2419
2760
2757
2718
2706
2720
2709
2759
2665
1843
2777
2685
2539
2779
2651
2740
2726
2733
2765
2750
2743
2723
2633
2669
2749
2764
2778
2730
2731
2714
2774
2138
2641
2738
2747
2767
2754
2799
2797
2789
2752
2746
2756
2704
2725
2606
2713
1025
2783
2785
2782
2758
2776
2811
2735
2795
2683
2790
2724
2660
2784
2833
2794
2786
2825
2772
2780
2807
2770
2815
2827
2843
2791
2727
2820
2860
2800
2863
2819
2781
2703
2840
2751
2673
2803
2838
2769
2671
2570
2667
2679
2861
2846
2824
2831
2748
2884
2829
2875
2659
2688
2879
2818
2662
2839
2849
2805
2856
2842
2744
2851
2858
2734
2865
2801
2855
2866
2808
2893
2864
2895
2870
2788
2898
)


// ************************************************************************* //
