/*--------------------------------*- C++ -*----------------------------------*\
  =========                 |
  \\      /  F ield         | OpenFOAM: The Open Source CFD Toolbox
   \\    /   O peration     | Website:  https://openfoam.org
    \\  /    A nd           | Version:  7
     \\/     M anipulation  |
\*---------------------------------------------------------------------------*/
FoamFile
{
    version     2.0;
    format      ascii;
    class       Cloud<passiveParticle>;
    location    "0.7/lagrangian/reactingCloud1";
    object      positions;
}
// * * * * * * * * * * * * * * * * * * * * * * * * * * * * * * * * * * * * * //

2444
(
(0.295977 0.351883 0.307988 0.0441523) 2380 4659 1
(0.334904 0.306624 0.339214 0.0192585) 2764 5554 2
(0.0503197 0.470493 0.105321 0.373867) 2677 5381 1
(0.197442 0.0905196 0.310425 0.401613) 2658 5209 2
(0.0103792 0.489913 0.498826 0.000881867) 2522 5073 2
(0.309414 0.271845 0.346146 0.072595) 2484 4866 2
(0.387742 0.101212 0.306427 0.20462) 2382 4663 2
(0.102029 0.364049 0.451702 0.0822197) 1904 3847 2
(0.030467 0.369916 0.491372 0.108245) 2215 4464 2
(0.137923 0.430773 0.129072 0.302231) 2146 4193 1
(0.0131804 0.490244 0.392566 0.104009) 2114 4128 1
(0.0783003 0.460616 0.313443 0.14764) 1981 3867 1
(0.146127 0.41968 0.00669153 0.427501) 1935 3774 2
(0.0637943 0.280651 0.46841 0.187145) 1869 3645 2
(0.065861 0.234938 0.230379 0.468823) 1088 2092 2
(0.421504 0.0749148 0.213584 0.289997) 1717 3340 2
(0.402114 0.0293113 0.268654 0.29992) 1684 3275 2
(0.140815 0.42646 0.106499 0.326226) 1615 3138 1
(0.0165868 0.491707 0.480053 0.0116534) 1466 2845 1
(0.544396 0.226842 0.128605 0.100157) 1361 2633 1
(0.694607 0.152697 0.0381586 0.114538) 1301 2517 1
(0.833289 0.0830712 0.0358051 0.0478344) 1229 2371 1
(0.0750785 0.364864 0.0975969 0.462461) 1184 2283 2
(0.440808 0.277859 0.225827 0.0555063) 1091 2097 1
(0.485479 0.0607614 0.196032 0.257728) 1022 1960 2
(0.396391 0.214857 0.0838782 0.304874) 984 1885 2
(0.500417 0.249003 0.0441769 0.206404) 924 1766 1
(0.412031 0.21606 0.0749234 0.296985) 915 1748 2
(0.224892 0.386392 0.230717 0.157998) 544 1147 1
(0.43704 0.27874 0.252093 0.0321275) 770 1460 1
(0.0886158 0.455036 0.0761512 0.380197) 690 1301 1
(0.266928 0.0349356 0.331037 0.3671) 648 1218 2
(0.195735 0.00757552 0.402133 0.394557) 546 1018 2
(0.130626 0.0419606 0.39226 0.435153) 498 920 2
(0.144113 0.427944 0.327775 0.100169) 340 609 1
(0.22063 0.156806 0.231454 0.39111) 352 630 2
(0.275162 0.338109 0.0211203 0.365609) 286 499 2
(0.00929048 0.257343 0.497275 0.236092) 136 337 2
(0.288345 0.19635 0.156824 0.358481) 166 261 2
(0.202265 0.173684 0.225183 0.398867) 85 101 2
(0.661823 0.00537643 0.169018 0.163783) 30 315155 2
(0.544328 0.152457 0.0742242 0.228991) 3469 6818 2
(0.763216 0.118248 0.0312343 0.0873016) 3606 7091 1
(0.28439 0.212274 0.144415 0.358921) 3401 6684 2
(0.0898694 0.454214 0.295383 0.160534) 5168 313905 2
(0.000160756 0.335424 0.16271 0.501705) 6256 313889 1
(0.0665428 0.0166857 0.449993 0.466779) 5372 313902 1
(0.140488 0.368618 0.433233 0.0576608) 6474 12919 2
(0.299424 0.349168 0.21249 0.138918) 6058 12093 1
(0.863301 0.0684397 0.017041 0.0512183) 6128 12098 1
(0.871241 0.0645455 0.0329984 0.0312155) 6204 12251 1
(0.0281262 0.484873 0.125547 0.361454) 6061 11964 1
(0.622527 0.113103 0.0761297 0.18824) 5787 11421 2
(0.638459 0.180322 0.156098 0.0251213) 6228 12431 1
(0.256366 0.0228502 0.371742 0.349041) 5717 11284 2
(0.232418 0.357346 0.387162 0.0230735) 5862 11704 2
(0.234865 0.382981 0.256263 0.125891) 5720 11290 1
(0.233609 0.377637 0.0552444 0.33351) 5954 11887 1
(0.673004 0.164249 0.145645 0.0171017) 5890 11626 1
(0.0997729 0.447316 0.307779 0.145133) 5657 11162 1
(0.669072 0.0820749 0.16522 0.0836334) 5380 10615 2
(0.119369 0.441558 0.407649 0.0314244) 5521 10893 1
(0.365727 0.129725 0.316741 0.187807) 5604 11060 2
(0.557652 0.0628152 0.157852 0.22168) 5173 10201 2
(0.329369 0.0405315 0.335193 0.294907) 5543 10939 2
(0.162673 0.406146 0.42561 0.00557189) 5559 10968 1
(0.200385 0.39874 0.298415 0.102459) 5256 10501 1
(0.388091 0.169227 0.305446 0.137237) 5489 10832 2
(0.486171 0.256907 0.0136717 0.24325) 4290 8449 1
(0.35072 0.324976 0.115909 0.208395) 5182 10220 1
(0.0208644 0.490308 0.252554 0.236273) 5280 10415 1
(0.0503125 0.475951 0.0863734 0.387363) 5117 10093 1
(0.0692455 0.462629 0.270217 0.197909) 5064 10120 1
(0.00360775 0.314792 0.184311 0.497289) 5218 10292 2
(0.0550891 0.210566 0.26248 0.471865) 5067 9992 2
(0.29638 0.1673 0.351437 0.184883) 4699 9263 2
(0.0330913 0.074689 0.408033 0.484187) 4844 9548 2
(0.593862 0.199583 0.0767007 0.129855) 5021 9900 1
(0.0267429 0.472682 0.00980043 0.490775) 4770 9401 2
(0.694436 0.151603 0.0777727 0.0761875) 4795 9451 1
(0.758058 0.120887 0.00588733 0.115168) 4725 9312 1
(0.356175 0.175537 0.321935 0.146353) 4359 8588 2
(0.0724415 0.167954 0.29421 0.465394) 4571 9006 2
(0.0323409 0.332464 0.483572 0.151623) 4503 8874 2
(0.00905871 0.253294 0.495395 0.242253) 4432 8733 2
(0.00275239 0.49877 0.486073 0.0124047) 4461 8789 1
(0.0324123 0.0727626 0.410289 0.484536) 4302 8472 2
(0.22984 0.356368 0.0118201 0.401972) 4413 8828 1
(0.301597 0.318211 0.349491 0.0307) 4239 8350 2
(0.583148 0.00229571 0.208463 0.206093) 4184 8373 2
(0.493416 0.252367 0.0980132 0.156203) 4095 8061 1
(0.326983 0.335854 0.0222888 0.314873) 4031 7937 1
(0.757182 0.121326 0.0334518 0.0880399) 3965 7804 1
(0.482382 0.229542 0.261608 0.0264681) 3902 7813 2
(0.928566 0.0356748 0.012694 0.0230657) 3822 7520 1
(0.424728 0.178532 0.289535 0.107204) 3760 7531 2
(0.362626 0.317861 0.258371 0.0611421) 3635 7283 1
(0.323603 0.0397494 0.339192 0.297455) 3719 7450 2
(0.259712 0.358524 0.219075 0.162689) 3597 7208 1
(0.413652 0.293025 0.265036 0.0282864) 3501 6885 1
(0.14234 0.426903 0.370445 0.0603116) 3411 6704 1
(0.0277114 0.262375 0.222419 0.487495) 3337 6557 2
(0.640461 0.14289 0.181093 0.0355568) 3277 6572 2
(0.730871 0.134153 0.08498 0.0499958) 3217 6319 1
(0.77341 0.112802 0.104443 0.0093443) 3155 6196 1
(0.437637 0.278328 0.188325 0.0957098) 3095 6076 1
(0.222909 0.134861 0.389151 0.253079) 3019 5928 2
(0.248005 0.351347 0.0205653 0.380083) 2948 5784 2
(0.130345 0.377832 0.434827 0.056995) 21884 43276 2
(0.134752 0.432624 0.112326 0.320298) 23023 45548 1
(0.352203 0.320828 0.319331 0.00763825) 22456 44415 1
(0.000475028 0.363984 0.135779 0.499762) 20212 39936 2
(0.425687 0.225611 0.0615451 0.287156) 20797 41104 2
(0.0566941 0.457619 0.44909 0.0365974) 20818 41145 1
(0.356131 0.20241 0.321934 0.119525) 19985 39485 2
(0.543746 0.0406212 0.228496 0.187136) 8172 16290 2
(0.46588 0.126373 0.141235 0.266511) 8247 16305 2
(0.566868 0.108318 0.108715 0.2161) 8341 16492 2
(0.458134 0.190555 0.272521 0.0787898) 7895 15740 2
(0.012728 0.492533 0.218447 0.276292) 7140 313876 2
(0.544185 0.227745 0.0136182 0.214451) 7778 15373 1
(0.198071 0.383079 0.393475 0.0253745) 7809 15435 1
(0.329442 0.330451 0.125519 0.214588) 7399 14621 1
(0.235577 0.346397 0.0328787 0.385147) 7148 14122 2
(0.679234 0.0174086 0.160523 0.142834) 6941 13846 2
(0.131307 0.435421 0.203447 0.229825) 6741 13315 1
(0.0546876 0.392682 0.0820262 0.470604) 6740 13313 2
(0.549503 0.0439432 0.181535 0.225019) 6751 13335 2
(0.267259 0.24356 0.365093 0.124088) 6674 13184 2
(0.0177928 0.195704 0.296425 0.490077) 6706 13246 2
(0.0363649 0.483172 0.254979 0.225484) 6613 13061 1
(0.465918 0.0687339 0.197296 0.268052) 6561 12957 2
(0.316508 0.341746 0.225721 0.116025) 33053 65574 1
(0.585818 0.0481301 0.207091 0.158961) 32251 63973 2
(0.151608 0.424196 0.144017 0.280179) 31118 61711 1
(0.0518975 0.473816 0.447415 0.0268722) 30542 61115 1
(0.543902 0.0587528 0.168121 0.229224) 30294 60063 2
(0.154129 0.374286 0.0431455 0.42844) 30285 60045 2
(0.15393 0.423035 0.0202186 0.402817) 29150 57780 1
(0.559396 0.213863 0.222848 0.00389308) 27208 54459 2
(0.511316 0.0442578 0.200084 0.244342) 27220 53927 2
(0.0775008 0.461052 0.0217636 0.439684) 24685 48865 1
(0.0721908 0.151096 0.463905 0.312809) 24414 48327 2
(0.262196 0.202539 0.370813 0.164452) 24128 48310 2
(0.220821 0.38959 0.0269566 0.362633) 42537 84506 1
(0.42534 0.170436 0.289267 0.114957) 43109 86204 2
(0.21854 0.290452 0.411477 0.0795314) 42588 85164 2
(0.814309 0.0481183 0.0932675 0.044305) 42259 84507 2
(0.41013 0.224977 0.0667442 0.298149) 42560 84551 2
(0.122329 0.431337 0.0264354 0.419898) 41173 82339 1
(0.474903 0.259794 0.0284495 0.236853) 41158 82309 1
(0.66517 0.165428 0.143029 0.0263719) 39491 78424 1
(0.0208434 0.489578 0.467059 0.0225195) 39219 77882 1
(0.430329 0.284836 0.153998 0.130838) 38916 77277 1
(0.876856 0.0138158 0.0477561 0.0615719) 37795 75039 2
(0.343246 0.328345 0.00146869 0.32694) 37551 74551 1
(0.136645 0.431678 0.388679 0.0429984) 37237 73927 1
(0.185224 0.271888 0.407388 0.1355) 37535 74522 2
(0.525068 0.236233 0.140561 0.0981373) 36680 72812 1
(0.684541 0.157729 0.0638044 0.0939249) 36695 72843 1
(0.360839 0.237236 0.349235 0.0526903) 35058 70131 2
(0.218852 0.387885 0.231241 0.162022) 34741 68941 1
(0.106677 0.309331 0.451651 0.132341) 34473 68963 2
(0.183375 0.403869 0.399962 0.0127947) 33902 67266 1
(0.3262 0.325957 0.00854264 0.3393) 52850 105094 2
(0.408489 0.0636137 0.296531 0.231366) 52598 105148 2
(0.360938 0.319531 0.14407 0.175461) 52605 104608 1
(0.742602 0.128699 0.0959929 0.0327061) 51767 102933 1
(0.193222 0.167301 0.403389 0.236089) 51784 102969 2
(0.0502253 0.0231116 0.474887 0.451776) 51199 101801 2
(0.046058 0.465687 0.172315 0.31594) 50394 100748 1
(0.525237 0.202902 0.237381 0.0344792) 50073 99553 2
(0.600516 0.0465969 0.152679 0.200208) 50078 99560 2
(0.0663157 0.464101 0.197348 0.272235) 50093 99590 1
(0.182325 0.408838 0.371318 0.0375194) 49544 98497 1
(0.720995 0.00102088 0.139512 0.138472) 49238 98440 2
(0.0576189 0.470502 0.0399307 0.431948) 48705 96819 1
(0.0986072 0.0779338 0.450696 0.372763) 48430 96273 2
(0.541199 0.09531 0.134091 0.229401) 46447 92312 2
(0.460044 0.012246 0.270108 0.257602) 43943 87869 2
(0.501284 0.2478 0.057695 0.193221) 62343 124603 1
(0.512812 0.243594 0.227301 0.0162928) 61505 122376 1
(0.264556 0.360515 0.0145672 0.360362) 62659 125234 1
(0.16944 0.035862 0.415632 0.379066) 62074 124066 2
(0.434979 0.199997 0.284551 0.0804724) 62076 124070 2
(0.18894 0.402341 0.299776 0.108943) 61800 122962 1
(0.194115 0.402943 0.269724 0.133218) 61532 122428 1
(0.164561 0.417719 0.0633601 0.354359) 60961 121288 1
(0.283961 0.106524 0.358907 0.250608) 60391 120706 2
(0.129364 0.434007 0.118004 0.318625) 61244 121852 1
(0.0448566 0.0667536 0.478427 0.409962) 60970 121862 2
(0.717052 0.11013 0.141474 0.0313435) 60724 120817 2
(0.0595007 0.47025 0.403624 0.0666259) 59855 119082 1
(0.250833 0.374583 0.337838 0.0367456) 59564 118499 1
(0.0214867 0.489257 0.458825 0.0304321) 59597 118565 1
(0.353281 0.192553 0.128619 0.325548) 59291 117953 2
(0.214597 0.392702 0.0201656 0.372536) 58440 116257 1
(0.0277121 0.486144 0.422623 0.0635207) 57886 115151 1
(0.642127 0.11386 0.0650772 0.178937) 58178 115732 2
(0.776842 0.111579 0.0229542 0.088625) 57628 114636 1
(0.261322 0.36804 0.0753456 0.295292) 57633 114643 1
(0.0314911 0.483584 0.0630672 0.421858) 57336 114050 1
(0.650529 0.173437 0.0877093 0.0883254) 56512 112962 1
(0.0035079 0.308162 0.498246 0.190084) 56251 111887 2
(0.359639 0.187195 0.130233 0.322933) 56232 111846 2
(0.0504006 0.472693 0.354731 0.122175) 55959 111858 1
(0.0720936 0.463953 0.373591 0.0903618) 55693 110773 1
(0.755249 0.0778918 0.123998 0.042861) 55126 110195 2
(0.730753 0.134623 0.0996281 0.0349953) 54814 109016 1
(0.479724 0.0693792 0.261377 0.18952) 54564 109073 2
(0.397526 0.09619 0.205047 0.301237) 53151 105696 2
(0 0.0936727 0.906327 0) 66868 539453 1
(0.374378 0.312356 0.225918 0.0873482) 72074 144030 1
(0.136016 0.429679 0.184517 0.249788) 72674 145228 1
(0.648455 0.175772 0.0450742 0.130698) 71545 142420 1
(0.3461 0.32695 0.215561 0.111389) 70688 140707 1
(0.31899 0.176882 0.340505 0.163623) 72413 144153 2
(0.275524 0.356026 0.032975 0.335476) 72143 144168 1
(0.286602 0.356699 0.107981 0.248718) 72136 143598 1
(0.261692 0.366573 0.154937 0.216798) 71291 142467 1
(0.115623 0.221734 0.446808 0.215835) 71308 142501 2
(0.627148 0.185296 0.0564733 0.131083) 70438 140764 1
(0.239943 0.121347 0.380029 0.258681) 71288 141907 2
(0.0351444 0.480853 0.329626 0.154377) 70726 141339 1
(0.0925695 0.453715 0.169533 0.284182) 71034 141400 1
(0.161539 0.416181 0.0853884 0.336892) 71040 141409 1
(0.103731 0.4467 0.306068 0.143501) 70167 140223 1
(0.0663484 0.215845 0.466826 0.250981) 69898 139132 2
(0.0209675 0.0335558 0.489516 0.45596) 69925 139186 2
(0.422848 0.0761579 0.212418 0.288576) 69612 138559 2
(0.660723 0.169559 0.00639399 0.163325) 69340 138015 1
(0.401419 0.299135 0.285159 0.014287) 68776 137446 1
(0.860684 0.0514628 0.0181953 0.0696581) 68777 136892 2
(0.139811 0.426178 0.0502448 0.383766) 67936 135769 1
(0.388062 0.0619468 0.243248 0.306743) 68223 135785 2
(0.276186 0.159326 0.364477 0.200011) 67953 135803 2
(0.416122 0.0529524 0.292998 0.237928) 67959 135815 2
(0.844331 0.0778346 0.00971065 0.0681239) 67676 134696 1
(0.490903 0.254548 0.0352218 0.219327) 66524 132396 1
(0.0932015 0.452481 0.0459103 0.408407) 67123 133589 1
(0.287056 0.325667 0.356472 0.0308048) 66558 132464 2
(0.51936 0.201484 0.0358735 0.243283) 66276 131898 2
(0.570572 0.117555 0.0962108 0.215662) 65411 130171 2
(0.475688 0.262156 0.0364438 0.225712) 65721 130793 1
(0.339014 0.100152 0.229089 0.331745) 65154 129658 2
(0.73673 0.131635 0.0637728 0.0678625) 64864 129080 1
(0.0425749 0.444307 0.485246 0.0278717) 64602 129113 2
(0.393661 0.303169 0.262806 0.0403635) 64326 128006 1
(0.101352 0.134592 0.450965 0.31309) 63200 126314 2
(0.299523 0.350239 0.0972289 0.25301) 63215 125788 1
(0 5.97073e-154 0.174561 0.825439) 80260 395453 2
(0 0.774903 0.225097 1.20123e-154) 75796 548381 1
(0 3.36746e-71 0.657762 0.342238) 74680 389873 2
(0 6.62373e-36 0.278785 0.721215) 81376 396569 2
(0 0.729347 0.270653 2.7712e-148) 78586 551171 1
(0.25729 0.125774 0.372403 0.244533) 82432 164709 2
(0.0661236 0.140121 0.326817 0.466938) 82439 164167 2
(0.316097 0.341952 0.0632275 0.278724) 81881 163055 1
(0.233973 0.345484 0.383014 0.0375296) 82475 164241 2
(0.0154107 0.492295 0.271 0.221295) 82468 164225 1
(0.0169911 0.333752 0.15219 0.497067) 81904 163098 2
(0.155256 0.376227 0.422372 0.0461452) 81326 161947 2
(0.448905 0.273409 0.13654 0.141146) 81344 162537 1
(0.647205 0.103268 0.176397 0.0731294) 81054 161404 2
(0.556845 0.148284 0.222925 0.0719455) 80205 160263 2
(0.110424 0.225101 0.444788 0.219687) 80492 160282 2
(0.154258 0.422871 0.022044 0.400827) 80524 160346 1
(0.154105 0.34898 0.432131 0.0647837) 80520 160892 2
(0.334942 0.122293 0.208627 0.334138) 80501 160297 2
(0.304299 0.0358009 0.34785 0.312049) 80503 160304 2
(0.204089 0.31884 0.397956 0.0791156) 80248 159795 2
(0.10529 0.0327688 0.450632 0.411309) 79976 159806 2
(0.221214 0.341375 0.389393 0.0480183) 79944 159188 2
(0.73614 0.130802 0.0993174 0.0337413) 79380 158059 1
(0.124649 0.371685 0.437676 0.0659906) 79095 157493 2
(0.332434 0.333783 0.202578 0.131205) 78246 155798 1
(0.126319 0.276468 0.436841 0.160372) 79120 157543 2
(0.511621 0.240391 0.212692 0.035295) 79117 157534 1
(0.438391 0.280804 0.0043261 0.276478) 78844 156992 1
(0.0858154 0.457092 0.190829 0.266263) 78261 155826 1
(0.710415 0.0187947 0.144793 0.125998) 78262 155830 2
(0.503662 0.247608 0.0269394 0.221791) 78005 155314 1
(0.108212 0.130226 0.315669 0.445894) 77421 154149 2
(0.305079 0.345592 0.14574 0.203589) 77711 154727 1
(0.0109431 0.494528 0.267324 0.227204) 77434 154177 1
(0.00819563 0.0912895 0.495902 0.404613) 77141 153592 2
(0.168751 0.415624 0.386529 0.0290952) 77167 153644 1
(0.264003 0.19155 0.176448 0.367998) 76285 151881 2
(0.0305266 0.482381 0.326874 0.160219) 76600 153066 1
(0.122437 0.219606 0.219175 0.438782) 76585 152480 2
(0.0165992 0.359475 0.494747 0.129179) 76016 151900 2
(0.715022 0.0925662 0.143591 0.0488206) 76591 153048 2
(0.173947 0.0961672 0.315791 0.414095) 76588 152485 2
(0.144793 0.427604 0.385511 0.0420927) 76323 151959 1
(0.447541 0.169241 0.105361 0.277857) 75744 150800 2
(0.141906 0.309756 0.119291 0.429047) 75463 150240 2
(0.297201 0.350048 0.282454 0.0702979) 75213 150297 1
(0.00322485 0.293342 0.202225 0.501208) 74907 149129 2
(0.0172863 0.101865 0.493394 0.387454) 74655 149183 2
(0.0082407 0.491033 0.387736 0.11299) 74641 148598 1
(0.734402 0.0702096 0.0619012 0.133487) 74350 148017 2
(0.219636 0.016889 0.390182 0.373293) 74345 148010 2
(0.337951 0.272754 0.333417 0.0558782) 74065 148005 2
(0.239669 0.377375 0.228815 0.154141) 74082 147482 1
(0.3625 0.180236 0.320709 0.136555) 73797 147470 2
(0.352624 0.32179 0.144266 0.18132) 73806 146931 1
(0.450581 0.0786462 0.275772 0.195) 73527 146931 2
(0.335323 0.233579 0.0987597 0.332339) 73537 146395 2
(0.844873 0.031583 0.0775633 0.0459803) 73237 145798 2
(0.437332 0.281334 0.151617 0.129717) 73251 145824 1
(0 0.876023 0.123977 6.35825e-93) 92257 564842 1
(0 0.15714 0.84286 3.64732e-43) 92257 564842 1
(0 9.832e-108 0.753483 0.246517) 86677 401870 2
(0 0.84609 0.15391 4.72775e-123) 90304 562889 1
(0 3.47536e-154 0.106422 0.893578) 86398 401591 2
(0 0.468817 0.531183 1.25317e-153) 90583 563168 1
(0 1.57322e-42 0.437493 0.562507) 86398 401591 2
(0 1.43311e-108 0.68015 0.31985) 89746 404939 2
(0 4.06078e-153 0.29999 0.70001) 89746 404939 2
(0 0 0.741154 0.258846) 88072 403265 2
(0 0.393668 0.606332 7.7145e-36) 90862 563447 1
(0 4.07636e-63 0.607113 0.392887) 91420 406613 2
(0.317978 0.341011 0.023814 0.317197) 92205 183666 1
(0.239951 0.380024 0.258347 0.121677) 91938 183131 1
(0.31906 0.339513 0.238039 0.103388) 90809 181433 1
(0.0669201 0.46654 0.223396 0.243144) 92236 183728 1
(0.788014 0.105993 0.0720831 0.03391) 91954 183163 1
(0.145832 0.427084 0.220176 0.206908) 90807 180873 1
(0.0553792 0.43846 0.47231 0.0338505) 91100 181460 2
(0.336562 0.0916741 0.23887 0.332894) 91102 181461 2
(0.728619 0.13569 0.0309725 0.104718) 90818 180897 1
(0.167474 0.165838 0.250424 0.416263) 91107 181472 2
(0.0124012 0.493799 0.248509 0.24529) 90545 180350 1
(0.029148 0.405559 0.0755524 0.48974) 90257 179774 2
(0.364796 0.307747 0.00823381 0.319223) 88814 176893 2
(0.132837 0.433581 0.424823 0.00875828) 90569 180400 1
(0.270289 0.364856 0.0525212 0.312334) 89980 179222 1
(0.261893 0.360899 0.0836356 0.293572) 90287 180391 1
(0.40275 0.18134 0.116319 0.299591) 88536 176338 2
(0.109952 0.0786155 0.366409 0.445024) 90012 179286 2
(0.0147978 0.181486 0.311115 0.492601) 88574 176415 2
(0.314522 0.184244 0.112433 0.3888) 89465 178193 2
(0.398038 0.299275 0.152533 0.150155) 88587 176997 1
(0.11685 0.297904 0.122393 0.462854) 89181 177626 2
(0.390584 0.0857111 0.218997 0.304708) 88004 175277 2
(0.885792 0.0337354 0.0577527 0.0227198) 88604 177031 2
(0.631304 0.0813845 0.101731 0.185581) 88318 175903 2
(0.0810157 0.301659 0.462701 0.154625) 87746 175318 2
(0.237623 0.217792 0.381188 0.163396) 87450 174173 2
(0.389858 0.300672 0.00064023 0.308829) 88032 175332 2
(0.350807 0.00557428 0.324597 0.319022) 88344 175958 2
(0.139577 0.259797 0.433305 0.167322) 87751 175328 2
(0.335824 0.329295 0.318433 0.0164482) 87458 174186 1
(0.0104254 0.457573 0.494787 0.0372146) 87755 174782 2
(0.022908 0.484192 0.0783659 0.414534) 88064 175396 1
(0.110823 0.123846 0.320743 0.444589) 87759 174788 2
(0.120925 0.208827 0.230711 0.439537) 86582 172438 2
(0.148148 0.238389 0.181861 0.431602) 87772 174813 2
(0.791223 0.104389 0.0821371 0.0222517) 87190 173654 1
(0.441129 0.239797 0.279436 0.0396383) 87507 174287 2
(0.282895 0.244134 0.365733 0.107238) 87218 174264 2
(0.780151 0.0813344 0.109925 0.0285902) 86905 173085 2
(0.010447 0.411849 0.0829278 0.494776) 87202 173676 2
(0.907337 0.0458468 0.0254902 0.021326) 86935 173699 1
(0.333037 0.229988 0.0995288 0.337447) 86927 173126 2
(0.855369 0.0723153 0.0690908 0.00322452) 86052 171382 1
(0.800512 0.0637625 0.0997439 0.0359814) 86361 171999 2
(0.647861 0.14809 0.0264987 0.17755) 86069 171413 2
(0.109172 0.189101 0.256313 0.445414) 86369 172013 2
(0.638816 0.179945 0.143732 0.0375069) 86091 172014 1
(0.161977 0.419011 0.127452 0.29156) 86106 171490 1
(0.697503 0.0667998 0.0830571 0.15264) 86095 171465 2
(0.437681 0.28116 0.183932 0.0972278) 84637 168555 1
(0.149341 0.425329 0.305009 0.120321) 84951 169182 1
(0.858558 0.0706644 0.00488141 0.0658965) 84961 169201 1
(0.68811 0.15561 0.0113765 0.144903) 84987 169253 1
(0.247998 0.0792588 0.296082 0.376661) 84664 168608 2
(0.465921 0.262886 0.113349 0.157844) 84706 169249 1
(0.391113 0.0992311 0.304444 0.205212) 84695 168673 2
(0.26521 0.303672 0.0568219 0.374297) 84702 168684 2
(0.101874 0.443399 0.339831 0.114896) 84695 168670 1
(0.257046 0.246598 0.124879 0.371477) 84414 168110 2
(0.275592 0.361362 0.282193 0.0808529) 84119 168077 1
(0.122791 0.438605 0.404131 0.0344732) 84155 167593 1
(0.578358 0.114813 0.0949644 0.211865) 83832 166947 2
(0.532388 0.233806 0.217228 0.0165775) 83857 167000 1
(0.15448 0.120666 0.42276 0.302095) 83316 165920 2
(0.100214 0.128521 0.321372 0.449893) 83299 165884 2
(0.122882 0.192671 0.240536 0.443911) 83311 165907 2
(0.431517 0.125532 0.285736 0.157215) 83008 165859 2
(0.095633 0.378098 0.452184 0.0740859) 83032 165353 2
(0.432854 0.281764 0.206196 0.0791861) 82994 165274 1
(0.326342 0.335599 0.18063 0.157428) 82708 165260 1
(0.656621 0.165249 0.0235617 0.154568) 82760 165364 1
(0.482315 0.258843 0.213147 0.0456954) 82737 164762 1
(0 0.91956 0.0804399 6.14829e-69) 98953 571538 1
(0 9.02083e-154 0.194446 0.805554) 99790 414983 2
(0 0.403262 0.596738 1.10681e-35) 100906 573491 1
(0 0.20615 0.79385 4.85228e-153) 100069 572654 1
(0 8.46303e-64 0.683575 0.316425) 99790 414983 2
(0 1.8659e-34 0.657049 0.342951) 101743 416936 2
(0 4.71254e-154 0.679244 0.320756) 97279 412472 2
(0 0.501938 0.498062 4.64815e-120) 100069 572654 1
(0 0.209853 0.790147 1.08641e-122) 96721 569306 1
(0 8.07426e-154 0.361524 0.638476) 96721 411914 2
(0 0.350836 0.649164 1.06775e-55) 95884 568469 1
(0 0.99331 0.00668989 7.05295e-154) 96721 569306 1
(0 2.30429e-26 0.112259 0.887741) 102022 417215 2
(0 0.171845 0.828155 9.14657e-154) 95326 567911 1
(0 0.710278 0.289722 5.93104e-27) 97558 570143 1
(0 6.35112e-150 0.594191 0.405809) 95326 410519 2
(0 0.82049 0.17951 1.17071e-70) 98953 571538 1
(0 0 0.166887 0.833113) 95605 410798 2
(0 1.06e-120 0.419743 0.580257) 101185 416378 2
(0 3.43795e-110 0.00637586 0.993624) 94768 409961 2
(0 0.246609 0.753391 1.43505e-22) 95884 568469 1
(0 2.01662e-42 0.938053 0.0619474) 94210 409403 2
(0 0.581111 0.418889 1.11207e-149) 101743 574328 1
(0 0.800885 0.199115 1.56187e-92) 95605 568190 1
(0 8.45755e-123 0.900002 0.0999977) 93094 408287 2
(0 0.611581 0.388419 4.43512e-134) 95326 567911 1
(0 0.998586 0.0014137 1.07689e-153) 102022 574607 1
(0 0.00676849 0.993232 5.50487e-154) 92536 565121 1
(0 0 0.859196 0.140804) 92536 407729 2
(0.169001 0.415499 0.35439 0.0611088) 100512 200248 1
(0.115459 0.0311745 0.442479 0.410888) 101389 202555 2
(0.835106 0.0822989 0.050345 0.03225) 100519 200818 1
(0.258433 0.370783 0.214218 0.156566) 101130 201482 1
(0.14108 0.337687 0.436495 0.0847381) 101998 203771 2
(0.190973 0.4035 0.161926 0.243601) 100548 200319 1
(0.177508 0.168258 0.241908 0.412326) 100270 199764 2
(0.0237174 0.34001 0.144435 0.491837) 101418 202056 2
(0.931139 0.0344305 0.0140141 0.0204163) 99407 198044 1
(0.370133 0.0458641 0.267431 0.316571) 102008 203234 2
(0.218488 0.385413 0.161002 0.235097) 101443 202663 1
(0.302196 0.345309 0.151287 0.201208) 101158 202094 1
(0.232037 0.380467 0.3233 0.0641953) 100861 200944 1
(0.280849 0.0272149 0.359899 0.332036) 100585 200950 2
(0.600324 0.196708 0.162766 0.0402023) 101160 201541 1
(0.301462 0.272121 0.353048 0.0733685) 100591 200962 2
(0.498029 0.0588522 0.191712 0.251407) 99441 198109 2
(0.352459 0.155085 0.166645 0.325811) 100589 200401 2
(0.0336888 0.480255 0.185661 0.300396) 100875 200972 1
(0.0232346 0.0100881 0.478295 0.488383) 101175 201572 2
(0.109741 0.0297217 0.44513 0.415408) 100882 200989 2
(0.391033 0.246725 0.0555153 0.306726) 100014 199253 2
(0.00520803 0.496784 0.400216 0.0977921) 98874 197534 1
(0.751267 0.0410358 0.0833306 0.124366) 100319 199863 2
(0.0121655 0.455357 0.505301 0.0271765) 100049 199880 2
(0.158038 0.179335 0.420981 0.241646) 99754 198737 2
(0.0989905 0.449546 0.261722 0.189742) 97739 195268 1
(0.183457 0.355971 0.0523008 0.408271) 99782 198791 2
(0.101713 0.354938 0.449143 0.0942054) 99196 197623 2
(0.369202 0.314372 0.315399 0.00102737) 99509 198248 2
(0.0428833 0.460556 0.0180024 0.478558) 97748 194730 2
(0.523973 0.238013 0.0491507 0.188863) 98634 196499 1
(0.0379191 0.235121 0.243186 0.483774) 98631 196492 2
(0.31392 0.341913 0.0896747 0.254492) 97167 194126 1
(0.024888 0.483135 0.323963 0.168015) 98656 197099 1
(0.857638 0.0710954 0.00820369 0.0630627) 98069 195370 1
(0.368049 0.315976 0.0105261 0.30545) 98655 196543 1
(0.361219 0.315646 0.105958 0.217177) 98367 196522 1
(0.323437 0.0192919 0.338282 0.31899) 97484 194205 2
(0.165024 0.155812 0.261677 0.417488) 97789 194812 2
(0.615801 0.0238089 0.192099 0.16829) 98098 195431 2
(0.106041 0.446979 0.00632805 0.440651) 97526 194287 1
(0.248812 0.103928 0.377122 0.270137) 97524 194839 2
(0.306724 0.346035 0.291738 0.0555038) 97234 194260 1
(0.11574 0.44213 0.198488 0.243642) 97529 194295 1
(0.0464527 0.476774 0.395412 0.0813616) 96952 193143 1
(0.363777 0.316892 0.0903269 0.229004) 96070 191936 1
(0.389649 0.305175 0.127639 0.177536) 96676 192590 1
(0.234681 0.378636 0.0487328 0.33795) 96680 193154 1
(0.417818 0.291091 0.173131 0.11796) 96382 192003 1
(0.281737 0.127543 0.231589 0.359132) 96991 193219 2
(0.888065 0.00406528 0.0519024 0.0559677) 96695 192628 2
(0.076563 0.39696 0.0625258 0.463951) 95795 190830 2
(0.141453 0.429274 0.332709 0.0965649) 95833 190909 1
(0.131751 0.434124 0.375816 0.0583084) 96131 191502 1
(0.163046 0.211626 0.206851 0.418477) 96135 191510 2
(0.826493 0.0867533 0.00241788 0.0843354) 96150 191542 1
(0.359823 0.315444 0.26012 0.0646138) 96136 191511 1
(0.0925525 0.448905 0.308413 0.15013) 96132 191503 1
(0.085394 0.457303 0.202141 0.255162) 94937 189120 1
(0.276481 0.0096589 0.361759 0.3521) 95872 190987 2
(0.151041 0.424479 0.375155 0.049325) 94980 189204 1
(0.123576 0.42831 0.00990226 0.438212) 95294 189831 2
(0.72994 0.13503 0.0994506 0.0355795) 94727 188699 1
(0.424385 0.149592 0.287808 0.138216) 94728 188703 2
(0.119864 0.438414 0.393275 0.0484465) 94092 187430 1
(0.899181 0.0298772 0.0203841 0.0505574) 93830 186907 2
(0.91364 0.0431798 0.0387771 0.00440269) 94182 187613 1
(0.0393783 0.0968271 0.481873 0.381922) 93900 187604 2
(0.133106 0.164856 0.433447 0.268591) 93889 187028 2
(0.42403 0.236409 0.287985 0.0515764) 93564 186379 2
(0.0907355 0.454632 0.110468 0.344164) 93643 186535 1
(0.420903 0.289549 0.191104 0.098445) 93636 186523 1
(0.749469 0.0937545 0.125266 0.031511) 93637 186525 2
(0.404144 0.105733 0.298418 0.191705) 92986 185779 2
(0.0426063 0.478697 0.173891 0.304806) 93048 185349 1
(0.169491 0.415254 0.222334 0.19292) 93060 185371 1
(0.7235 0.135226 0.00822496 0.133049) 93073 185953 1
(0.354232 0.32126 0.149469 0.17504) 93049 185348 1
(0.0487874 0.178495 0.295128 0.47759) 93049 185348 2
(0.0159015 0.489756 0.19261 0.301733) 93053 185356 1
(0.237252 0.381374 0.235656 0.145718) 92808 184868 1
(0.417329 0.487016 0.0478271 0.0478271) 92815 184881 1
(0.421385 0.281763 0.29207 0.00478247) 92485 184779 2
(0.452651 0.272525 0.258732 0.0160916) 92530 184869 1
(0.929578 0.0188411 0.0352111 0.0163701) 92481 184217 2
(0.457908 0.120443 0.271046 0.150603) 92469 184193 2
(0.156932 0.29226 0.421534 0.129275) 92511 184277 2
(0.234544 0.0502147 0.382728 0.332514) 92497 184249 2
(0 1.99659e-77 0.784364 0.215636) 107881 423074 2
(0 2.80812e-154 0.273629 0.726371) 107044 422237 2
(0 1.28596e-153 0.0107789 0.989221) 107323 422516 2
(0 2.44995e-63 0.603968 0.396032) 106207 421400 2
(0 4.0599e-154 0.350409 0.649591) 106207 421400 2
(0 3.08831e-43 0.05033 0.94967) 111787 426980 2
(0 1.22515e-106 0.0702705 0.92973) 110950 426143 2
(0 2.99539e-126 0.361936 0.638064) 108718 423911 2
(0 2.52065e-154 0.0193973 0.980603) 107881 423074 2
(0 5.40215e-49 0.909535 0.0904651) 108439 423632 2
(0 7.771e-140 0.0384412 0.961559) 105928 421121 2
(0 0.771363 0.228637 2.79985e-90) 110671 583256 1
(0 0.427251 0.572749 1.29408e-153) 110671 583256 1
(0 4.38393e-123 0.949617 0.0503833) 106207 421400 2
(0 1.2608e-153 0.925314 0.0746857) 110671 425864 2
(0 0.904878 0.095122 1.35136e-62) 104812 577397 1
(0 0.284729 0.715271 1.56262e-93) 109276 581861 1
(0 0.486359 0.513641 3.65959e-73) 111508 584093 1
(0 0.0914243 0.908576 1.73944e-26) 109834 582419 1
(0 0.904226 0.0957738 2.46445e-153) 111508 584093 1
(0 0.170763 0.829237 9.13059e-21) 104254 576839 1
(0 0.334585 0.665415 1.23289e-41) 106765 579350 1
(0 0.19892 0.80108 1.40112e-125) 104254 576839 1
(0 0.829015 0.170985 8.52127e-86) 110950 583535 1
(0 7.14834e-156 0.572792 0.427208) 109276 424469 2
(0 4.81266e-154 0.663411 0.336589) 106765 421958 2
(0 3.55796e-154 0.379708 0.620292) 104254 419447 2
(0 3.96619e-51 0.286751 0.713249) 111229 426422 2
(0 0.532114 0.467886 1.17487e-153) 111229 583814 1
(0 0.106683 0.893317 1.82157e-47) 107044 579629 1
(0 7.24373e-62 0.38288 0.61712) 109834 425027 2
(0 3.15954e-155 0.201053 0.798947) 105928 421121 2
(0 0.986954 0.0130457 5.18028e-61) 106486 579071 1
(0 0.895151 0.104849 1.05139e-106) 105370 577955 1
(0 0.862829 0.137171 5.19239e-154) 106765 579350 1
(0 5.91676e-96 0.841164 0.158836) 104533 419726 2
(0 0.47264 0.52736 4.2615e-51) 111229 583814 1
(0 1.10489e-101 0.510351 0.489649) 103696 418889 2
(0 1.94441e-156 0.128579 0.871421) 107044 422237 2
(0 0.16893 0.83107 4.37086e-154) 107323 579908 1
(0 3.26202e-133 0.694453 0.305547) 108439 423632 2
(0 2.03716e-103 0.0135951 0.986405) 106486 421679 2
(0 1.13448e-154 0.903281 0.0967192) 103417 418610 2
(0 0.883802 0.116198 2.25282e-20) 108997 581582 1
(0 1.57095e-153 0.7822 0.2178) 110392 425585 2
(0 0.303799 0.696201 4.06008e-27) 103417 576002 1
(0 0.493389 0.506611 1.18494e-153) 110671 583256 1
(0 0.740823 0.259177 5.27696e-153) 108160 580745 1