/*--------------------------------*- C++ -*----------------------------------*\
  =========                 |
  \\      /  F ield         | OpenFOAM: The Open Source CFD Toolbox
   \\    /   O peration     | Website:  https://openfoam.org
    \\  /    A nd           | Version:  7
     \\/     M anipulation  |
\*---------------------------------------------------------------------------*/
FoamFile
{
    version     2.0;
    format      ascii;
    class       scalarField;
    location    "0.7/lagrangian/reactingCloud1";
    object      pressure;
}
// * * * * * * * * * * * * * * * * * * * * * * * * * * * * * * * * * * * * * //


2444
(
583.119
591.028
590.155
589.433
586.942
588.759
583.661
578.05
587.022
586.561
581.435
581.65
585.003
584.886
582.293
582.79
585.053
584.816
584.021
581.531
582.165
582.098
583.251
582.322
582.425
583.29
583.433
583.242
582.977
583.05
582.908
583.263
582.979
583.116
583.11
583.105
583.135
583.161
583.2
583.196
583.205
601.864
601.921
601.852
606.001
595.965
605.435
588.698
598.472
596.818
593.843
597.765
602.082
589.949
603.161
599.488
602.396
594.306
594.689
601.688
604.361
602.605
599.22
605.514
598.652
597.05
602.353
597.636
602.347
603.65
599.06
603.141
600.905
598.831
600.541
604.095
603.198
598.946
603.981
600.697
600.879
602.552
602.715
602.534
602.586
599.812
601.788
598.632
601.138
599.642
601.613
601.041
600.611
599.773
601.08
599.992
597.917
597.041
595.936
596.916
599.801
601.004
598.146
596.088
594.857
593.825
593.591
593.05
215.718
461.727
463.834
456.711
488.619
493.198
502.776
518.488
516.13
517.325
536.118
572.922
541.645
541.658
557.611
570.573
577.994
582.972
583.188
580.964
584.56
579.583
584.887
583.934
331.377
377.281
384.959
359.148
393.623
392.735
396.783
420.479
421.964
441.732
446.738
447.729
233.944
335.515
335.721
258.366
335.968
337.477
337.667
340.539
341.125
337.19
275.186
346.112
277.775
345.992
305.325
349.081
358.223
358.529
360.825
363.402
33.9056
331.612
331.726
331.997
332
331.607
332.418
266.085
326.662
332.512
332.668
303.518
332.913
332.986
300.568
334.506
141.613
129.085
328.451
268.434
292.353
319.694
328.675
308.301
156.959
326.152
328.618
328.963
329.075
293.124
329.301
327.707
188.344
247.202
329.412
329.944
329.954
327.119
330.342
330.459
330.438
330.553
330.661
330.859
213.354
331.057
330.262
327.694
0.859323
205.709
86.0112
2.59572
326.074
327.138
326.731
316.122
327.221
173.912
294.747
260.48
327.252
327.253
253.327
324.598
327.351
285.322
325.092
298.899
307.254
273.989
324.911
327.502
327.552
327.568
92.794
327.656
327.699
327.66
127.308
327.831
326.851
255.751
327.973
328.08
327.28
328.324
326.749
326.934
326.996
326.717
326.807
131.104
177.413
178.894
326.64
326.101
322.23
201.2
318.83
251.882
169.111
225.628
326.73
326.696
290.591
303.705
326.746
326.758
300.457
260.344
216.411
128.02
326.63
326.311
326.75
242.819
250.589
326.759
222.832
305.885
317.419
215.942
326.791
65.5616
324.936
234.263
146.251
282.915
258.728
326.11
204.515
188.711
326.911
207.265
326.953
314.011
217.798
174.528
166.443
310.709
264.043
322.989
323.382
327.003
248.876
326.154
326.541
326.541
326.617
326.572
326.62
326.567
326.62
326.579
326.579
326.599
326.564
326.556
158.675
222.223
157.159
317.062
306.909
146.543
220.114
230.92
205.016
258.303
238.723
190.723
6.66396
326.07
202.46
325.372
7.00721
326.286
145.904
326.579
218.554
326.559
79.6934
313.302
278.019
198.607
102.602
238.151
326.577
227.604
148.021
251.229
326.575
275.083
4.93633
324.848
212.14
326.592
326.246
177.962
284.046
325.353
307.751
86.056
264.202
186.163
310.43
315.703
326.565
324.023
8.98561
177.127
239.637
326.538
128.65
326.464
317.327
325.919
317.327
310.427
211.181
326.644
161.087
316.94
326.655
318.825
326.572
249.08
326.588
156.401
111.283
326.677
303.39
326.09
325.921
325.594
325.852
325.921
325.237
326.307
325.852
326.356
326.356
326.413
326.356
325.078
326.443
326.28
326.443
326.09
326.429
325.487
326.468
326.413
326.49
325.237
326.429
326.523
326.443
325.078
326.534
326.534
7.30924
50.8764
10.2918
114.816
253.376
41.9361
43.7575
152.688
11.4536
300.499
271.326
244.011
159.842
175.243
253.668
203.84
63.6181
194.267
226.326
318.272
260.126
118.233
40.5911
239.073
284.228
208.228
13.7658
323.798
211.061
325.889
22.7288
194.38
179.816
6.00816
301.089
162.87
296.568
254.326
51.849
159.179
303.897
238.804
228.955
176.218
253.642
162.606
16.1683
178.546
198.28
106.228
325.278
272.862
20.2778
152.008
245.444
265.619
323.464
270.676
250.473
5.16018
324.513
77.3023
249.363
206.266
211.299
2.88681
7.90009
275.421
261.121
204.431
18.6469
326.202
323.439
324.304
4.52655
187.013
249.254
314.128
192.138
192.138
212.711
326.42
326.528
163.051
326.468
142.303
80.4269
299.446
225.295
266.84
286.467
280.166
302.827
302.827
178.61
194.937
246.147
266.84
253.057
307.157
200.762
200.762
302.827
200.762
318.393
232.512
183.861
219.332
183.861
321.212
292.407
321.212
194.937
232.512
292.407
321.212
189.303
189.303
286.467
219.332
307.157
297.888
313.913
292.407
319.97
189.303
322.953
286.467
280.166
253.057
297.888
323.564
239.286
206.775
323.564
200.762
259.973
292.407
178.61
273.596
200.762
178.61
286.467
324.023
324.023
286.467
178.61
322.186
232.512
324.377
219.332
310.848
324.377
273.596
219.332
253.057
316.402
292.407
200.762
302.827
324.658
246.147
324.658
324.658
323.564
189.303
324.658
28.8207
63.7856
48.2825
39.7725
35.4227
136.909
62.8378
79.9978
106.021
86.0723
102.08
102.665
166.009
7.87882
145.249
142.428
178.469
324.888
149.962
169.967
106.496
186.558
120.473
59.1931
106.752
193.205
43.2173
138.043
79.8655
26.5623
148.547
112.891
180.568
201.843
206.555
76.9974
90.7527
141.64
156.602
0.509888
56.4039
132.164
152.429
90.8732
83.1977
175.169
56.4353
160.822
228.61
39.0804
189.181
126.244
71.2902
177.775
45.4813
88.402
192.654
12.506
63.647
292.407
102.834
38.5582
132.819
195.648
203.628
136.101
39.5698
149.724
79.3671
146.962
214.368
138.328
226.725
153.447
131.391
157.308
45.8225
71.0468
161.219
223.87
288.679
153.964
307.322
62.4332
209.085
191.412
69.1923
140.459
108.483
207.692
113.027
230.58
183.912
110.832
257.431
238.552
34.3725
177.815
195.554
107.433
138.272
44.4045
142.261
174.074
319.089
140.123
125.967
3.84555
29.3506
4.02199
178.862
239.649
273.156
190.239
199.541
98.711
185.621
126.133
88.82
90.5656
122.954
100.274
98.1917
129.15
96.1827
129.15
79.4968
90.5656
106.999
85.5026
132.435
79.4968
78.1138
132.435
96.1827
98.1917
98.1917
83.9259
132.435
125.991
114.519
122.954
129.15
83.9259
87.1331
90.5656
94.2441
94.2441
111.917
104.674
87.1331
104.674
139.41
80.9252
125.991
102.434
129.15
78.1138
94.2441
78.1138
139.41
98.1917
87.1331
88.82
114.519
87.1331
139.41
92.3727
135.853
106.999
120.033
104.674
80.9252
78.1138
96.1827
114.519
90.5656
143.111
106.999
122.954
88.82
80.9252
92.3727
100.274
117.223
94.2441
79.4968
111.917
111.917
88.82
96.1827
109.412
102.434
96.1827
111.917
135.853
114.519
125.991
143.111
104.674
120.033
146.962
111.917
129.15
132.435
87.1331
92.3727
146.962
117.223
85.5026
80.9252
79.4968
111.917
109.412
96.1827
104.674
87.1331
135.853
98.1917
129.15
90.5656
98.1917
150.969
94.2441
129.15
150.969
150.969
122.954
120.033
129.15
114.519
80.9252
150.969
150.969
78.1138
146.962
82.4008
150.969
79.4968
125.991
109.412
88.82
80.9252
92.3727
92.3727
98.1917
135.853
102.434
106.999
83.9259
132.435
150.969
106.999
155.139
78.1138
143.111
129.15
82.4008
135.853
87.1331
122.954
159.477
155.139
155.139
87.1331
135.853
114.519
80.9252
79.4968
120.033
88.82
150.969
159.477
135.853
102.434
163.988
82.4008
109.412
111.917
143.111
92.3727
163.988
132.435
85.5026
163.988
163.988
120.033
111.917
88.82
102.434
163.988
143.111
111.917
163.988
129.15
163.988
87.1331
146.962
102.434
100.274
111.917
114.519
92.3727
87.1331
102.434
98.1917
111.917
155.139
111.917
139.41
146.962
94.2441
78.1138
125.991
168.677
146.962
168.677
82.4008
109.412
150.969
82.4008
111.917
122.954
96.1827
78.1138
173.55
173.55
82.4008
85.5026
98.1917
0.410932
100.274
7.10778
22.4432
173.55
26.8433
173.55
24.7842
28.6605
27.7153
39.6317
14.0759
52.7543
62.8036
72.8047
64.3848
74.4135
72.8047
76.9556
67.3152
74.8563
73.6261
56.7048
61.3271
31.0704
60.621
65.4903
53.8852
48.6246
87.0647
75.2607
14.183
67.1989
163.988
80.3265
48.6709
85.7733
73.9784
61.7138
63.1585
45.7268
80.2328
86.7821
90.5631
16.1865
96.1827
52.4885
87.1013
85.7845
83.6124
95.5414
13.7894
59.919
92.6081
77.5097
67.9552
96.7945
24.6317
86.5685
99.0554
13.2211
104.299
87.5362
84.7385
85.0868
78.1141
93.6631
103.9
88.9834
94.5636
92.4481
104.517
111.653
56.1731
60.0575
80.2054
57.4954
79.0955
115.957
83.5475
112.116
67.8274
75.5593
118.538
102.811
100.229
112.993
100.229
122.101
58.2066
60.2967
41.5242
119.269
94.6246
119.887
76.4329
125.937
48.7113
65.119
117.947
27.3099
82.9697
113.492
90.8488
134.306
109.622
114.466
115.784
135.118
40.5881
125.962
139.362
97.9078
52.2615
135.774
146.698
75.5869
150.969
115.235
148.254
107.289
150.882
130.329
123.923
115.724
119.029
109.083
44.1712
142.571
124.72
50.3306
173.55
35.9218
100.362
147.073
86.9824
74.6976
102.1
138.918
32.5079
122.151
150.692
138.918
152.761
50.2693
57.649
56.8964
50.2693
47.961
54.7494
56.1629
62.6116
60.0298
66.4079
66.4079
53.4011
67.4269
50.8716
54.0676
62.6116
56.1629
64.456
58.4215
61.7272
52.1107
50.2693
65.418
52.7491
56.8964
48.5241
62.6116
60.8669
54.0676
54.0676
52.7491
50.2693
54.7494
60.0298
57.649
61.7272
56.8964
58.4215
60.8669
51.4851
55.4475
59.2149
55.4475
66.4079
47.961
60.8669
49.2088
52.7491
57.649
48.5241
52.1107
69.5565
69.5565
52.1107
55.4475
66.4079
70.6697
54.0676
52.7491
55.4475
56.8964
62.6116
52.7491
53.4011
61.7272
68.476
50.2693
67.4269
52.7491
65.418
68.476
48.5241
60.0298
47.961
60.8669
66.4079
60.8669
66.4079
70.6697
69.5565
58.4215
61.7272
70.6697
49.0962
52.1107
56.8964
53.4011
61.7272
71.8169
54.7494
60.0298
61.7272
59.2149
52.1107
60.8669
66.4079
66.4079
65.418
71.8169
57.649
48.5241
58.4215
59.2149
67.4269
66.4079
55.4475
62.6116
72.9994
52.7491
65.418
60.8669
72.9994
71.8169
68.476
69.5565
53.4011
70.6697
56.8964
47.961
72.9994
58.4215
53.4011
72.9994
52.1107
71.8169
51.4851
51.4851
55.4475
49.6777
54.7494
67.4269
49.0962
59.2149
52.7491
56.8964
56.1629
69.5565
67.4269
60.0298
65.418
48.5241
54.7494
74.2188
63.5208
47.961
74.2188
75.4766
75.4766
75.4766
64.456
55.4475
54.7494
52.7491
49.6777
52.7491
59.2149
58.4215
61.7272
59.1234
75.4766
75.4766
63.5208
66.4079
75.4766
68.476
55.4475
53.4011
60.8669
49.0962
75.4766
76.7744
47.961
54.0676
65.418
57.649
72.9994
63.5208
51.4851
52.7491
70.6697
57.649
57.649
53.4011
72.9994
31.9661
0.36488
33.2527
41.1923
30.5155
42.0847
59.2149
41.7221
72.9994
10.1753
65.418
42.4364
43.573
47.8834
34.8797
48.181
41.9838
43.2455
47.2299
37.049
33.575
40.7396
46.2436
19.6784
36.9897
42.2026
76.7744
18.2479
28.7618
23.1761
38.4785
19.8795
49.0948
50.096
50.7007
49.8058
45.0838
49.6358
52.7083
42.0108
50.841
76.7744
36.729
44.5093
44.037
48.8332
51.6918
43.4314
45.3541
53.7344
42.8177
54.0242
48.9839
49.4604
31.7887
40.2614
76.7744
54.7494
54.3849
48.0736
54.5082
48.7244
21.9843
35.5645
55.0144
54.1526
55.7972
52.7153
37.4411
10.8343
50.9044
56.2435
32.3305
30.5538
55.6892
48.2658
52.0549
55.1385
38.9212
57.9687
51.4123
21.6283
58.9561
59.2857
55.8624
52.9441
59.8293
58.2433
37.5707
13.5728
45.221
60.323
54.8337
40.7895
61.6672
61.1644
61.1644
56.9551
39.4278
62.2299
55.1111
8.44195
24.1367
61.8633
51.3292
50.1309
63.5112
21.3888
63.2134
64.3434
27.406
64.2174
51.0538
50.2253
13.4153
45.0482
64.0151
63.832
65.6015
34.573
65.9172
54.1432
62.7523
68.1992
64.3795
62.0442
55.6679
63.9751
65.9151
16.8693
69.4208
63.9751
69.5446
70.0281
17.6867
60.8727
70.4567
68.2813
70.6697
62.1055
65.5858
66.1755
45.0656
61.9999
70.9317
29.6202
33.2648
46.4588
52.3941
63.289
60.323
31.8713
74.2048
15.21
70.632
69.9406
6.79256
59.072
73.8591
55.1207
76.145
51.1286
75.197
44.9251
37.1108
40.8047
32.163
39.8635
33.499
34.8504
41.7616
43.7303
37.1108
33.499
36.2058
36.2058
40.3323
43.7303
38.4766
41.7616
34.399
36.658
33.9484
39.3982
34.399
31.2896
33.499
37.1108
33.0511
36.658
34.8504
42.2464
43.2305
32.163
37.1108
43.2305
31.2896
38.4766
42.736
31.724
35.7539
38.0196
41.2811
32.6056
43.2305
38.936
37.1108
44.7471
43.7303
42.736
31.2896
34.8504
36.2058
31.2896
32.163
37.5645
42.2464
33.499
40.8047
45.2649
43.2305
36.658
36.2058
41.2811
31.2896
31.2896
34.8504
36.658
33.0511
43.7303
43.2305
41.7616
39.8635
36.658
42.736
33.9484
33.499
41.2811
38.936
34.8504
40.8047
38.0196
38.936
32.6056
44.7471
40.8047
43.2305
39.8635
35.302
33.0511
45.2649
38.4766
37.5645
31.2896
45.7894
31.7222
45.2649
43.7303
38.4766
41.7616
38.0196
41.2811
39.3982
42.2464
33.499
37.5645
38.4766
43.2305
38.936
32.6056
43.2305
45.7894
43.7303
45.2649
37.5645
43.2305
43.2305
40.8047
32.6056
39.3982
45.7894
31.2896
31.2896
45.7894
42.736
35.302
41.2811
33.9484
33.0511
34.8504
39.8635
38.4766
40.8047
46.3209
40.3323
31.724
33.499
33.499
45.7894
31.724
37.5645
40.8047
37.5645
41.2811
38.0196
44.2357
34.399
39.3982
43.2305
41.7616
32.163
41.7616
46.3209
43.2305
34.399
43.2305
38.0196
35.302
44.7471
34.8504
36.658
46.8597
33.499
46.3209
33.0511
43.7303
37.5645
36.2058
39.8635
43.7303
46.8597
43.7303
33.9484
35.302
38.4766
40.3323
42.736
37.1108
33.499
46.8597
40.8047
43.2305
34.399
38.936
36.2058
37.5645
33.499
41.7616
40.8047
47.4063
44.7471
39.8635
35.7539
34.399
33.9484
0.364833
43.2305
40.8047
39.3982
36.2058
47.4063
41.2811
5.12626
46.8597
47.4063
15.4988
47.4063
38.936
23.9857
20.5644
21.2619
14.2422
21.5537
15.1275
27.2139
29.6501
31.0219
10.3385
28.6906
28.6132
29.5309
31.6815
30.4159
26.3703
13.4766
28.8262
11.2989
31.7647
27.4076
28.205
31.1222
32.0794
14.0685
32.0911
32.0911
33.0177
28.121
23.7506
28.121
27.8569
31.0211
31.6693
33.3949
33.0154
33.2216
26.149
32.3735
33.499
23.8991
33.4968
31.9209
33.9484
29.9486
31.7871
31.3394
26.0807
31.4494
27.2315
32.035
30.7409
31.7008
17.1622
31.1387
29.9988
33.9714
23.739
35.208
29.7203
26.2568
26.9123
26.1231
20.5838
19.4761
29.7014
17.7019
29.8545
35.2455
36.5553
26.4612
33.5962
34.5103
29.015
44.7471
33.8137
2.60675
13.7897
32.8732
31.347
7.35962
29.3393
27.2281
30.2895
33.8583
36.4351
36.5544
37.0492
36.1713
35.2971
13.5065
37.3643
20.6997
37.0049
41.7616
2.37163
24.6316
33.2854
35.7161
37.4554
24.6316
38.0196
22.6596
35.4713
37.9295
12.6749
38.0406
24.0247
37.9295
47.4063
32.8579
14.0294
30.7755
30.6542
14.6906
23.2316
28.3671
26.0092
38.7871
14.216
39.3475
35.6689
39.1733
39.8289
39.4958
31.5201
3.76722
39.0609
25.5917
39.8756
22.4602
40.8047
23.1602
40.7494
47.4063
39.8756
29.5391
39.5247
14.9942
15.6359
40.9337
36.6408
26.4846
47.4063
36.8039
40.8626
23.09
27.7205
29.3289
36.8248
37.6511
41.8225
34.7513
11.77
41.0518
41.9513
39.3591
41.4076
37.1692
8.67401
9.24279
40.9297
43.7303
36.0557
35.2101
43.4395
43.0598
38.4072
34.384
42.8995
40.4064
36.5741
43.7609
35.784
33.9507
21.0945
34.437
29.9688
47.4063
34.4483
45.6341
43.5922
38.7495
17.9091
31.4108
46.1383
37.3676
35.6859
25.1159
39.9963
46.2357
26.9092
42.8538
18.798
36.2324
23.4019
35.4614
44.5243
11.7221
26.788
21.4988
21.4988
27.7646
23.1026
27.7646
25.8776
27.4288
23.1026
21.1887
27.4288
19.6551
23.4246
22.4547
19.3024
22.1325
19.6551
28.1119
24.9809
29.2258
24.9809
22.4547
22.1325
25.5796
19.9789
22.1325
26.177
19.3024
21.8134
25.2813
23.7436
24.9809
19.9789
23.1026
27.7646
28.8427
19.6551
19.6551
23.4246
22.4547
19.9789
20.8839
21.1887
27.4288
19.3024
28.8427
19.3024
27.7646
23.1026
23.4246
28.4713
22.7788
21.8134
21.1887
28.4713
24.6775
28.1119
24.3703
27.1037
24.2774
26.4798
25.8776
23.7436
23.4246
24.3703
24.9809
27.1037
19.3024
19.6551
28.4713
26.177
21.4988
25.5796
22.4547
19.9789
23.4246
21.8134
21.1887
30.0248
28.1119
24.0589
28.8427
25.8776
20.8839
20.8839
29.6201
19.3024
23.4246
29.2258
24.3703
25.8776
21.4988
23.7436
22.1325
30.0248
19.6551
19.9789
25.8776
27.1037
27.4288
24.6775
28.8427
22.1325
25.2813
24.3703
20.2847
23.1026
20.2847
26.788
21.1887
21.4988
25.5796
20.2847
23.1026
25.5796
27.7646
20.5838
26.4798
30.4387
26.788
23.1026
19.9789
19.3024
26.177
27.1037
28.1119
23.1026
19.9789
27.7646
19.6551
22.1325
21.8134
26.788
29.6201
23.1026
20.8839
26.4798
30.4387
25.2813
25.8776
20.8839
23.7436
22.4547
27.4288
28.8427
23.7436
19.3024
27.4288
23.7436
25.2813
29.2258
30.4387
25.5796
19.3024
23.7436
20.5838
22.7788
20.5838
26.4798
28.4713
24.6775
30.4387
21.8134
28.1119
30.4387
22.1325
25.5796
26.177
25.5796
23.7436
22.7788
27.4288
23.7436
25.8776
23.4246
21.4988
30.4387
25.2813
26.4798
28.4713
19.6551
24.0589
20.5838
30.0248
19.3024
22.1325
21.1887
20.8839
25.2813
30.8608
25.5796
25.2813
26.4798
28.1119
6.8817
25.5796
6.05212
22.4547
0.368863
10.109
20.5838
22.1325
0.387635
19.9789
10.5165
17.022
17.9544
10.312
3.13551
0.365849
5.1385
16.0456
16.0704
5.84788
16.435
11.2357
18.0287
19.2
3.6423
14.6573
19.2809
15.5275
14.681
18.0653
19.1374
19.6533
8.90151
19.6459
19.2107
17.7666
19.3694
19.2475
13.3625
19.499
17.1454
18.7924
19.331
19.0232
16.4864
18.9425
0.367315
19.9789
16.431
18.2102
19.9771
8.26635
15.2947
16.1418
19.8814
18.0769
15.4806
9.04645
19.1836
19.4875
16.5644
19.6647
12.0207
18.2262
20.1464
21.1887
15.8961
26.4798
14.3304
17.9837
19.5553
0.36485
9.40287
20.2828
30.8608
17.6761
16.9274
9.57571
18.9676
11.4364
18.6777
16.7853
15.0006
15.7349
14.2402
20.8642
15.6178
26.4798
20.8099
14.3545
19.6673
20.396
21.4988
20.8819
20.1366
20.7761
20.2573
20.5367
20.228
19.7926
18.1533
20.1677
27.4288
19.4759
12.7966
6.34331
19.6913
20.8839
20.8374
7.11639
11.2274
19.6215
20.5997
20.4167
21.1887
20.8299
2.66592
5.91407
30.0248
13.7329
21.0774
21.4988
5.51188
21.3963
18.7734
21.0897
21.2151
22.4547
20.9187
12.2383
17.6827
16.2644
15.1442
1.38985
21.4966
20.975
12.6176
30.8608
15.5243
10.7993
19.6124
26.4798
21.8134
19.055
21.6652
19.8719
12.1063
21.7619
20.9162
12.4156
19.4004
25.2813
21.7197
19.8719
20.6481
17.6488
16.0123
28.1119
20.0699
11.9079
9.93369
22.0791
21.1278
20.7537
13.1603
22.1317
20.6176
19.4591
7.81976
22.0682
19.8012
13.7736
24.0589
19.6325
6.42142
17.5379
22.1622
19.9303
16.2477
16.0123
3.19628
16.3858
19.5714
17.3302
21.4448
19.4148
22.2394
16.3056
18.0834
22.2346
19.4148
21.3527
14.6446
23.7436
13.2186
19.8025
22.4488
23.0328
27.7646
20.8529
19.0104
15.9396
22.4064
23.0938
23.0777
22.7898
20.6487
22.9327
18.7114
19.2163
14.9012
19.9845
30.4387
4.97232
30.8608
23.3737
18.1873
23.1012
23.2112
18.8226
23.3737
23.3404
15.453
20.1892
0.364827
15.8819
23.3135
28.4713
20.455
23.434
23.7237
22.4201
6.07472
21.138
18.0388
23.4442
22.7896
15.4331
20.476
23.9078
15.8063
2.17144
22.1643
21.1066
18.8522
18.3557
5.1667
24.1351
17.0915
24.0402
19.4267
24.3418
16.3617
22.8585
12.8424
19.2622
20.2501
22.6436
16.6226
23.7037
23.1189
24.3694
22.2915
18.7814
17.3018
24.4474
15.4713
15.3708
21.2269
26.4798
18.1428
15.1634
23.207
23.2049
22.3216
28.1119
18.7814
23.8998
18.911
24.6961
13.1682
0.364843
24.731
23.144
15.1049
24.6232
25.0809
21.3383
23.5067
25.5555
21.3383
8.49599
25.5474
20.9342
3.90392
25.7845
22.8843
24.9761
16.6906
19.5953
24.3535
23.042
25.492
26.177
12.86
19.0568
16.5527
25.769
17.2673
16.7577
0.364828
25.769
30.0248
24.1194
18.2644
23.2613
26.177
26.1216
15.4433
22.4939
26.4443
7.35243
0.364829
28.4713
16.1289
24.3475
26.2134
25.9319
23.7707
24.8599
21.0473
19.9808
14.8902
20.5078
27.1037
23.1595
26.2595
25.2379
10.7627
0.364827
21.7705
26.7158
20.5385
26.3534
26.7913
26.6654
18.3064
26.3089
29.2258
26.7617
26.2632
26.6988
23.1416
24.705
14.9032
13.4436
21.5013
0.364829
26.6533
27.4304
17.6011
14.5044
21.0895
24.2769
26.4905
15.5484
12.9212
20.6972
27.6122
23.172
22.2772
27.6513
27.9317
27.9752
27.3303
23.9195
17.4921
28.1032
14.932
26.7158
27.23
27.4023
27.2888
18.3925
12.1281
28.8187
28.0558
28.809
28.1509
26.4997
25.3805
28.7364
25.8308
14.3566
19.3267
28.1977
20.8814
11.655
6.35002
28.6706
1.09013
25.5278
20.6616
23.3588
29.5841
9.67941
26.4065
24.233
29.1472
23.3588
16.9281
28.0449
25.6292
14.6775
29.0206
29.3094
30.0197
14.2017
29.3579
9.55188
28.802
28.0986
24.5981
25.4827
20.6898
22.7026
24.4842
26.6089
30.8553
28.4659
26.586
27.3257
19.5077
28.5528
)


// ************************************************************************* //
