/*--------------------------------*- C++ -*----------------------------------*\
  =========                 |
  \\      /  F ield         | OpenFOAM: The Open Source CFD Toolbox
   \\    /   O peration     | Website:  https://openfoam.org
    \\  /    A nd           | Version:  7
     \\/     M anipulation  |
\*---------------------------------------------------------------------------*/
FoamFile
{
    version     2.0;
    format      ascii;
    class       scalarField;
    location    "0.7/lagrangian/reactingCloud1";
    object      T;
}
// * * * * * * * * * * * * * * * * * * * * * * * * * * * * * * * * * * * * * //


2444
(
591.628
590.697
590.46
590.483
589.755
590.066
589.511
589.553
589.581
589.452
588.125
588.094
589.018
588.985
589.999
588.401
589.032
588.966
588.744
588.708
588.232
588.242
588.53
588.37
588.496
588.541
588.581
588.528
589.462
588.474
588.435
588.534
588.535
588.493
589.173
588.489
588.498
588.82
588.516
588.514
588.517
598.217
598.229
598.239
598.02
594.533
597.617
590.258
593.96
592.928
591.603
592.972
594.681
590.472
595.725
593.138
594.465
591.645
591.743
593.747
594.928
593.994
592.982
596.545
592.818
592.372
593.853
592.531
597.03
594.269
592.919
594.091
593.43
592.853
593.328
596.121
594.131
592.881
594.689
593.37
593.422
596.345
594.039
593.993
594.164
593.124
593.732
592.794
593.514
593.081
593.741
593.513
593.379
593.13
593.604
593.211
592.612
592.361
592.054
592.334
593.283
594.154
592.747
592.119
591.769
591.477
591.417
591.269
406.979
553.711
554.599
548.387
561.951
563.135
565.973
571.018
570.17
570.326
576.798
588.494
577.348
577.206
581.657
585.991
588.721
589.086
589.339
588.135
589.375
587.683
589.202
588.877
496.928
524.515
527.581
510.208
530.534
530.336
531.52
540.152
540.498
547.565
548.968
549.569
432.555
508.571
508.061
452.606
508.567
509.076
509.412
510.453
510.59
508.446
463.236
512.52
464.686
512.713
484.443
514.01
517.032
517.742
518.437
519.675
256.588
506.867
506.777
506.908
506.66
506.925
506.768
460.531
504.25
507.124
507.053
489.125
507.185
507.159
486.462
508.184
351.513
340.114
505.248
463.693
482.475
501.089
505.516
493.815
365.518
504.55
505.574
505.285
505.743
482.854
505.515
505.249
393.918
445.652
505.945
506.012
505.938
504.93
506.179
505.976
506.237
506.191
506.061
506.263
416.046
506.404
506.335
504.766
229.108
409.871
300.601
228.165
504.464
504.735
504.698
499.14
504.739
381.029
484.536
457.442
504.692
504.64
451.441
503.838
504.67
477.396
504.073
487.542
493.396
468.436
503.993
504.96
504.886
504.952
306.932
504.916
505.039
505.079
338.387
505.093
504.862
453.339
505.206
505.196
505.055
505.222
504.435
504.489
504.509
504.428
504.45
341.967
384.506
385.835
504.465
504.333
502.54
406.031
500.671
450.378
376.832
427.738
504.474
504.496
481.443
490.944
504.461
504.442
488.665
457.429
419.562
338.994
504.526
504.446
504.531
442.621
449.242
504.557
425.205
492.467
499.888
419.1
504.58
282.067
503.932
435.201
355.737
475.577
456.056
504.42
408.861
394.585
504.636
411.309
504.651
497.827
420.691
381.646
374.246
495.713
460.428
503.019
503.221
504.699
447.717
504.483
504.419
504.419
504.417
504.419
504.417
504.419
504.417
504.419
504.419
504.417
504.42
504.42
368.595
425.357
366.872
499.581
493.133
357.238
423.426
432.849
410.042
456.052
439.532
397.172
236.187
504.272
407.672
503.994
236.569
504.348
356.177
504.419
421.854
504.418
296.301
497.276
471.849
404.026
316.531
438.9
504.42
429.745
357.948
450.01
504.421
469.522
234.916
503.774
416.087
504.421
504.343
385.274
476.507
504
493.671
301.299
460.726
392.667
495.441
498.77
504.429
503.4
237.585
384.375
440.051
504.433
339.859
504.421
499.755
504.245
499.755
495.446
415.077
504.436
369.629
499.531
504.446
500.644
504.453
448.05
504.458
365.28
323.761
504.442
490.708
504.3
504.243
504.125
504.218
504.243
503.99
504.368
504.218
504.381
504.381
504.396
504.381
503.928
504.403
504.36
504.403
504.3
504.4
504.085
504.409
504.396
504.413
503.99
504.4
504.417
504.403
503.928
504.419
504.419
231.483
275.899
235.529
333.493
453.471
267.584
269.258
367.188
237.458
489.179
467.599
445.599
373.212
386.59
453.497
411.444
287.148
403.167
430.748
500.414
458.643
336.023
266.284
441.28
477.263
414.912
240.738
503.305
417.161
504.228
249.755
402.483
389.728
231.417
489.348
374.558
486.176
453.479
276.204
371.169
491.247
440.422
432.063
385.988
452.788
373.829
243.731
387.833
405.237
323.662
503.96
468.187
247.739
363.938
445.778
462.37
503.113
466.411
449.976
231.441
503.614
297.626
448.952
411.764
416.189
227.7
235.747
470.022
458.539
409.978
246.499
504.32
503.093
503.511
231.634
394.303
448.647
497.808
398.887
398.887
417.146
504.39
504.418
372.621
504.403
353.924
299.107
487.993
428.096
468.7
481.913
477.769
492.124
492.124
401.653
414.82
453.956
468.7
458.959
494.661
419.44
419.44
492.124
419.44
500.791
443.875
405.922
433.887
405.922
502.19
485.72
502.19
414.82
443.875
485.72
502.19
410.313
410.313
481.913
433.887
494.661
489.137
498.438
485.72
501.583
410.313
503.011
481.913
477.769
458.959
489.137
503.288
448.917
424.165
503.288
419.44
463.889
485.72
401.653
473.345
419.44
401.653
481.913
503.49
503.49
481.913
401.653
502.655
443.875
503.641
433.887
496.755
503.641
473.345
433.887
458.959
499.763
485.72
419.44
492.124
503.759
453.956
503.759
503.759
503.288
410.313
503.759
252.124
289.393
273.362
264.297
259.719
361.995
288.33
305.618
331.592
311.505
326.77
327.888
390.193
226.614
368.733
366.464
401.516
503.852
373.201
392.703
331.008
407.723
344.323
284.483
330.891
412.463
268.145
360.866
304.899
250.507
370.315
336.525
400.209
419.66
423.962
301.942
315.319
363.053
376.714
210.609
281.604
354.086
372.353
315.086
307.569
392.41
281.606
379.364
438.557
264.204
404.39
347.622
296.018
394.109
270.729
312.412
407.083
234.905
288.597
485.72
325.695
263.764
353.231
409.066
415.897
356.206
264.839
368.474
303.407
365.565
424.147
357.612
434.179
370.698
350.973
374.119
271.184
295.342
377.575
431.116
481.912
370.723
494.375
287.105
418.503
403.427
293.466
358.508
329.701
417.1
333.661
436.241
396.5
331.507
457.738
442.584
260.022
390.984
406.31
328.428
355.947
269.885
359.495
387.285
501.009
357.388
344.58
223.602
255.195
224.208
391.056
442.672
469.371
400.743
408.756
319.796
396.747
344.234
322.679
324.353
354.216
333.53
331.58
359.711
329.689
359.711
313.596
324.353
339.765
319.475
362.602
313.596
312.226
362.602
329.689
331.58
331.58
317.942
362.602
356.917
346.633
354.216
359.711
317.942
321.054
324.353
327.856
327.856
344.268
337.62
321.054
337.62
368.684
315.004
356.917
335.543
359.711
312.226
327.856
312.226
368.684
331.58
321.054
322.679
346.633
321.054
368.684
326.078
365.591
339.765
351.603
337.62
315.004
312.226
329.689
346.633
324.353
371.883
339.765
354.216
322.679
315.004
326.078
333.53
349.077
327.856
313.596
344.268
344.268
322.679
329.689
341.98
335.543
329.689
344.268
365.591
346.633
356.917
371.883
337.62
351.603
375.192
344.268
359.711
362.602
321.054
326.078
375.192
349.077
319.475
315.004
313.596
344.268
341.98
329.689
337.62
321.054
365.591
331.58
359.711
324.353
331.58
378.614
327.856
359.711
378.614
378.614
354.216
351.603
359.711
346.633
315.004
378.614
378.614
312.226
375.192
316.452
378.614
313.596
356.917
341.98
322.679
315.004
326.078
326.078
331.58
365.591
335.543
339.765
317.942
362.602
378.614
339.765
382.152
312.226
371.883
359.711
316.452
365.591
321.054
354.216
385.808
382.152
382.152
321.054
365.591
346.633
315.004
313.596
351.603
322.679
378.614
385.808
365.591
335.543
389.585
316.452
341.98
344.268
371.883
326.078
389.585
362.602
319.475
389.585
389.585
351.603
344.268
322.679
335.543
389.585
371.883
344.268
389.585
359.711
389.585
321.054
375.192
335.543
333.53
344.268
346.633
326.078
321.054
335.543
331.58
344.268
382.152
344.268
368.684
375.192
327.856
312.226
356.917
393.484
375.192
393.484
316.452
341.98
378.614
316.452
344.268
354.216
329.689
312.226
397.507
397.507
316.452
319.475
331.58
210.651
333.53
220.682
242.517
397.507
248.33
397.507
245.63
250.664
249.458
264.435
231.371
280.937
293.118
305.374
294.615
307.65
305.374
310.47
298.645
307.59
305.803
285.15
290.531
253.702
289.506
295.299
281.21
275.064
320.971
306.63
231.865
296.678
389.585
311.992
274.672
318.706
304.587
290.097
291.601
271.228
311.579
319.177
323.957
234.915
329.689
279.114
319.197
317.679
314.858
328.946
231.626
287.415
325.554
307.61
296.737
329.555
245.902
317.909
332.136
231.089
337.195
318.028
314.91
315.004
307.28
324.5
335.851
319.318
325.497
322.813
336.536
343.975
282.518
286.816
308.862
283.889
307.655
347.191
312.495
343.512
295.205
303.604
349.983
333.005
329.858
343.523
329.858
353.298
284.488
286.764
266.01
350.254
323.55
350.406
304.35
356.858
273.98
291.87
347.857
249.762
310.699
342.721
318.731
363.974
337.903
343.316
344.686
364.822
264.98
354.77
368.027
325.513
277.701
364.343
374.921
302.27
378.614
342.903
375.863
334.813
378.523
358.25
351.298
343.021
346.358
336.308
268.94
370.119
351.674
275.578
397.507
259.893
326.95
373.47
313.467
300.959
328.693
364.873
256.113
348.334
376.471
364.873
377.922
282.96
291.098
290.284
282.96
280.34
287.942
289.487
296.392
293.654
300.361
300.361
286.457
301.415
283.638
287.192
296.392
289.487
298.329
291.931
295.458
285.024
282.96
299.332
285.734
290.284
280.983
296.392
294.545
287.192
287.192
285.734
282.96
287.942
293.654
291.098
295.458
290.284
291.931
294.545
284.326
288.706
292.782
288.706
300.361
280.34
294.545
281.608
285.734
291.098
280.983
285.024
303.605
303.605
285.024
288.706
300.361
304.742
287.192
285.734
288.706
290.284
296.392
285.734
286.457
295.458
302.496
282.96
301.415
285.734
299.332
302.496
280.983
293.654
280.34
294.545
300.361
294.545
300.361
304.742
303.605
291.931
295.458
304.742
281.633
285.024
290.284
286.457
295.458
305.908
287.942
293.654
295.458
292.782
285.024
294.545
300.361
300.361
299.332
305.908
291.098
280.983
291.931
292.782
301.415
300.361
288.706
296.392
307.106
285.734
299.332
294.545
307.106
305.908
302.496
303.605
286.457
304.742
290.284
280.34
307.106
291.931
286.457
307.106
285.024
305.908
284.326
284.326
288.706
282.292
287.942
301.415
281.633
292.782
285.734
290.284
289.487
303.605
301.415
293.654
299.332
280.983
287.942
308.335
297.349
280.34
308.335
309.597
309.597
309.597
298.329
288.706
287.942
285.734
282.292
285.734
292.782
291.931
295.458
292.657
309.597
309.597
297.349
300.361
309.597
302.496
288.706
286.457
294.545
281.633
309.597
310.894
280.34
287.192
299.332
291.098
307.106
297.349
284.326
285.734
304.742
291.098
291.098
286.457
307.106
256.759
210.207
258.568
270.349
254.41
271.664
292.782
270.847
307.106
224.116
299.332
271.89
273.551
279.856
260.498
280.109
270.953
272.779
279.077
263.815
258.785
269.027
276.956
238.44
263.526
270.999
310.894
236.327
251.59
243.514
265.662
238.722
280.707
282.709
283.197
281.724
275.13
281.481
285.676
270.593
283.206
310.894
262.773
273.868
273.06
280.157
284.227
272.208
274.766
286.721
271.345
287.131
280.022
280.694
255.669
267.523
310.894
287.942
287.22
278.248
287.392
279.318
241.724
260.801
288.1
286.689
288.977
284.498
263.223
225.474
281.996
289.379
256.188
253.73
288.397
278.033
283.212
287.225
265.253
291.082
282.154
241.217
292.429
292.643
288.211
284.049
293.381
291.229
263.058
229.681
273.467
293.81
286.208
267.39
295.377
294.701
294.701
289.052
265.466
295.882
286.185
222.055
244.701
295.145
281.174
279.586
297.336
240.908
296.94
298.179
249.15
298.013
280.643
279.551
229.596
272.598
297.486
297.245
299.305
258.595
299.45
283.987
295.094
302.137
297.196
294.18
285.767
296.426
298.919
234.709
303.429
296.426
303.589
303.919
235.89
292.221
304.468
301.684
304.742
293.566
298.238
298.733
271.815
293.208
304.488
251.947
256.671
273.468
280.937
294.603
290.884
254.871
308.316
232.53
303.821
302.674
219.931
288.924
307.267
284.023
310.11
279.064
308.93
271.329
267.432
271.934
261.404
270.795
263.033
264.674
273.084
275.426
267.432
263.033
266.324
266.324
271.363
275.426
269.104
273.084
264.126
266.878
263.58
270.229
264.126
260.323
263.033
267.432
262.49
266.878
264.674
273.664
274.835
261.404
267.432
274.835
260.323
269.104
274.248
260.862
265.773
268.545
272.507
261.945
274.835
269.665
267.432
276.622
275.426
274.248
260.323
264.674
266.324
260.323
261.404
267.988
273.664
263.033
271.934
277.227
274.835
266.878
266.324
272.507
260.323
260.323
264.674
266.878
262.49
275.426
274.835
273.084
270.795
266.878
274.248
263.58
263.033
272.507
269.665
264.674
271.934
268.545
269.665
261.945
276.622
271.934
274.835
270.795
265.223
262.49
277.227
269.104
267.988
260.323
277.837
260.858
277.227
275.426
269.104
273.084
268.545
272.507
270.229
273.664
263.033
267.988
269.104
274.835
269.665
261.945
274.835
277.837
275.426
277.227
267.988
274.835
274.835
271.934
261.945
270.229
277.837
260.323
260.323
277.837
274.248
265.223
272.507
263.58
262.49
264.674
270.795
269.104
271.934
278.454
271.363
260.862
263.033
263.033
277.837
260.862
267.988
271.934
267.988
272.507
268.545
276.022
264.126
270.229
274.835
273.084
261.404
273.084
278.454
274.835
264.126
274.835
268.545
265.223
276.622
264.674
266.878
279.076
263.033
278.454
262.49
275.426
267.988
266.324
270.795
275.426
279.076
275.426
263.58
265.223
269.104
271.363
274.248
267.432
263.033
279.076
271.934
274.835
264.126
269.665
266.324
267.988
263.033
273.084
271.934
279.704
276.622
270.795
265.773
264.126
263.58
210.088
274.835
271.934
270.229
266.324
279.704
272.507
215.505
279.076
279.704
232.846
279.704
269.665
247.643
241.465
242.772
230.574
243.172
232.035
253.156
257.433
259.85
223.952
255.557
255.237
256.828
260.787
258.364
251.359
229.178
255.606
225.545
260.71
252.982
254.18
259.379
260.606
230.129
260.838
260.838
262.432
253.867
246.111
253.867
253.418
258.8
259.906
262.855
262.206
262.559
250.379
261.109
263.033
246.473
262.811
260.335
263.58
256.792
259.907
258.957
250.124
259.142
251.908
259.941
257.772
259.381
235.009
258.1
256.367
263.194
245.879
265.065
255.751
250.029
251.111
249.693
240.612
238.863
255.574
235.845
255.826
264.731
266.708
250.248
262
263.513
254.314
276.622
262.36
212.053
229.447
260.641
258.135
219.077
254.845
251.179
256.401
262.261
266.509
266.517
267.33
266.073
264.284
228.967
267.66
240.568
267.257
273.084
211.794
246.9
261.007
264.967
267.809
246.9
268.545
243.667
264.246
268.218
227.629
268.398
245.732
268.218
279.704
259.904
229.796
256.573
256.27
230.85
244.471
252.633
248.886
269.425
230.091
270.148
264.261
269.868
270.739
270.208
257.428
213.705
269.514
248.023
270.466
243.105
271.934
244.159
271.846
279.704
270.466
254.126
269.912
231.316
232.328
271.961
265.226
249.291
279.704
265.481
271.677
243.962
251.142
253.798
265.24
266.663
273.004
262.026
226.241
271.804
273.031
269.021
272.189
265.639
221.367
222.266
271.132
275.426
263.678
262.387
274.98
274.397
267.137
261.02
273.981
270.18
264.349
275.296
263.035
260.262
240.727
260.895
254.093
279.704
260.811
277.424
274.366
267.129
235.848
256.177
278.18
265.066
262.557
246.708
268.854
278.144
249.389
273.104
237.193
263.152
244.106
262.012
275.426
226.33
253.968
245.284
245.284
255.511
247.606
255.511
252.417
254.996
247.606
244.918
254.996
242.918
248.108
246.628
242.602
246.142
242.918
256.036
250.834
257.622
250.834
246.628
246.142
251.902
243.372
246.142
252.942
242.602
245.736
251.361
248.66
250.834
243.372
247.606
255.511
257.091
242.918
242.918
248.108
246.628
243.372
244.488
244.918
254.996
242.602
257.091
242.602
255.511
247.606
248.108
256.558
247.083
245.736
244.918
256.558
250.28
256.036
249.745
254.476
249.565
253.449
252.417
248.66
248.108
249.745
250.834
254.476
242.602
242.918
256.558
252.942
245.284
251.902
246.628
243.372
248.108
245.736
244.918
258.699
256.036
249.185
257.091
252.417
244.488
244.488
258.162
242.602
248.108
257.622
249.745
252.417
245.284
248.66
246.142
258.699
242.918
243.372
252.417
254.476
254.996
250.28
257.091
246.142
251.361
249.745
243.712
247.606
243.712
253.968
244.918
245.284
251.902
243.712
247.606
251.902
255.511
244.143
253.449
259.242
253.968
247.606
243.372
242.602
252.942
254.476
256.036
247.606
243.372
255.511
242.918
246.142
245.736
253.968
258.162
247.606
244.488
253.449
259.242
251.361
252.417
244.488
248.66
246.628
254.996
257.091
248.66
242.602
254.996
248.66
251.361
257.622
259.242
251.902
242.602
248.66
244.143
247.083
244.143
253.449
256.558
250.28
259.242
245.736
256.036
259.242
246.142
251.902
252.942
251.902
248.66
247.083
254.996
248.66
252.417
248.108
245.284
259.242
251.361
253.449
256.558
242.918
249.185
244.143
258.699
242.602
246.142
244.918
244.488
251.361
259.781
251.902
251.361
253.449
256.036
218.514
251.902
217.014
246.628
210.119
224.549
244.143
246.142
210.169
243.372
225.327
238.054
239.909
224.803
212.493
210.113
215.621
235.798
236.167
216.8
236.889
226.538
240.057
242.397
213.249
233.379
242.559
234.787
233.14
239.767
242.272
242.914
222.146
242.9
242.419
239.177
242.35
242.108
230.313
242.608
237.772
241.205
242.274
241.473
236.661
241.503
210.149
243.372
236.375
239.866
243.369
220.898
234.167
235.812
243.178
239.603
234.527
222.325
241.791
242.395
236.431
242.747
227.711
239.662
243.438
244.918
235.142
253.449
232.146
239.189
242.271
210.11
222.957
243.708
259.781
238.448
236.999
223.265
240.965
226.525
240.546
236.39
233.305
234.706
231.863
244.449
234.308
253.449
244.342
231.924
242.337
243.772
245.284
244.484
243.022
244.276
243.258
243.806
243.201
242.35
239.013
243.083
254.996
241.732
228.783
217.534
241.99
244.488
244.397
218.841
225.943
241.637
243.763
243.405
244.918
244.214
212.236
216.9
258.699
230.502
244.699
245.284
216.193
245.084
240.004
244.723
244.731
246.628
244.153
227.674
237.917
235.227
233.01
210.881
245.28
244.263
228.362
259.781
233.719
225.013
241.473
253.449
245.736
240.403
245.447
241.972
227.436
245.635
243.991
227.895
240.884
251.361
245.553
241.972
243.472
237.56
234.388
256.036
242.354
226.9
223.348
246.038
244.198
243.477
229.056
246.141
243.216
240.996
219.711
245.879
241.65
230.267
249.185
241.203
217.502
237.239
246.061
241.771
234.826
234.388
212.762
234.962
241.086
236.637
244.513
240.642
246.041
234.813
238.131
245.932
240.642
244.337
231.753
248.66
229.092
241.378
246.344
247.471
255.511
243.38
239.877
234.057
246.148
247.589
247.558
247.002
242.791
247.278
239.226
240.178
232.036
241.532
259.242
215.142
259.781
248.01
238.241
247.485
247.696
239.341
248.01
247.946
233.044
241.919
210.033
233.873
247.894
256.558
242.423
248.063
248.622
246.114
216.812
243.665
237.824
248.001
246.744
232.942
242.342
248.893
233.625
211.52
245.549
243.536
239.288
238.36
215.427
249.291
235.988
249.108
240.337
249.69
234.643
246.84
228.248
240.028
241.844
246.429
235.146
248.407
247.287
249.743
245.708
239.077
236.334
249.806
232.977
232.794
243.667
253.449
237.89
232.417
247.388
247.425
245.742
256.036
239.077
248.71
239.295
250.236
228.814
210.288
250.303
247.268
232.298
250.096
250.944
243.844
247.934
251.855
243.844
220.717
251.84
243.067
213.606
252.239
246.773
250.742
235.186
240.559
249.502
247.05
251.677
252.942
228.262
239.534
234.921
252.209
236.231
235.296
210.069
252.209
258.699
249.055
238.058
247.393
252.942
252.836
232.899
245.901
253.381
218.841
210.059
256.558
234.135
249.395
252.94
252.404
248.26
250.313
243.194
241.21
231.897
242.167
254.476
247.153
252.963
251.027
224.599
210.159
244.515
253.83
242.191
253.056
253.884
253.646
238.088
252.972
257.622
253.828
252.886
253.709
247.025
249.886
231.92
229.323
243.937
210.226
253.536
254.885
236.792
231.213
243.177
249.01
253.128
233.082
228.407
242.414
255.225
246.9
245.316
255.299
255.7
255.781
254.582
248.348
236.564
256.02
231.978
253.317
254.265
254.583
254.373
238.159
227.039
257.047
255.646
257.029
255.82
252.797
250.754
256.895
251.575
230.955
239.802
255.747
242.599
226.24
217.349
256.442
210.581
250.775
242.139
246.983
258.097
222.853
252.356
248.559
257.305
246.983
235.486
255.311
250.957
231.501
257.076
257.412
258.69
230.669
257.499
222.665
256.501
255.238
248.982
250.559
242.045
245.611
248.779
252.418
259.771
255.536
252.217
253.522
239.888
255.69
)


// ************************************************************************* //
