/*--------------------------------*- C++ -*----------------------------------*\
  =========                 |
  \\      /  F ield         | OpenFOAM: The Open Source CFD Toolbox
   \\    /   O peration     | Website:  https://openfoam.org
    \\  /    A nd           | Version:  7
     \\/     M anipulation  |
\*---------------------------------------------------------------------------*/
FoamFile
{
    version     2.0;
    format      ascii;
    class       scalarField;
    location    "0.7/lagrangian/reactingCloud1";
    object      tTurb;
}
// * * * * * * * * * * * * * * * * * * * * * * * * * * * * * * * * * * * * * //


2444
(
0.000542382
0.00401
0.003905
0.0038
0.003695
0.00359
0.000777
9.53426e-05
0.003275
0.00317
0.003065
0.00296
0.002855
0.00275
0.0001085
0.00254
0.002435
0.00233
0.002225
0.000482
0.002015
0.00191
0.001805
0.0017
0.001595
0.00149
0.001385
0.00138125
5.5e-06
0.001175
0.00107
0.000965
0.00086
0.000755
0.0001005
0.000545
0.00044
0.000335
0.00023
0.000125
2e-05
0.00107667
0.0007285
8.35e-05
0.00065
6e-05
0.000452
0.010525
0.0039385
0.00245102
0.01
0.000442577
0.0003435
0.0097
0.0024735
0.0095
0.000657
0.0093
0.0091
0.009
0.00452519
0.0088
0.0087
0.00142302
0.0085
0.0084
0.0082
0.0083
0.000577
0.0081
0.008
0.0079
0.0077
0.0078
0.0076
0.000265
0.0073
0.0074
0.00165018
0.0071
0.007
0.00138534
0.0068
0.0067
0.0066
0.0065
0.0063
0.0064
0.0062
0.0061
0.006
0.0059
0.005795
0.00569
0.005585
0.00548
0.00527
0.005375
0.005165
0.00506
0.004955
0.0005235
0.004745
0.00464
0.004535
0.00443
0.004325
0.00422
3.2e-05
0.0003935
0.00067
0.000145411
0.0121
0.01189
0.011785
0.00474348
0.011995
0.0116762
0.0034767
0.0001485
0.011575
0.01126
0.010945
0.0009455
0.000562
0.0067885
0.001595
0.010735
0.00029095
0.010315
0.01063
0.01021
0.0014405
0.01336
0.0010435
0.00017
0.01315
0.013255
0.00303839
0.000968332
0.012835
0.0019485
0.0006985
0.00150548
0.0001155
0.00332236
0.01483
0.00191837
0.0022355
0.0147212
0.0028
0.001457
0.01441
0.0049905
0.0008135
0.014095
6.05e-05
0.00195667
0.0003555
0.0017785
0.013675
0.0019075
0.01378
0.00179627
0.0037755
0.0038235
0.01708
0.0014035
0.01668
0.003567
0.01638
0.0011255
0.004447
5e-06
0.01628
0.00104124
0.01608
0.01598
0.0012355
9.85e-05
0.000547
0.0026235
0.01988
0.001352
0.0036505
7.30281e-06
0.007037
0.0035455
0.002467
0.00863639
0.00748
0.01908
0.00699796
0.0001785
0.01878
0.0044205
0.0016535
0.002232
0.00648148
0.0010005
0.01828
0.00663236
0.01808
0.01778
0.000384732
0.01788
0.01768
0.01758
0.0008605
0.01748
0.0033255
0.00228389
0.0052005
0.00469
0.003852
0.007367
0.00017
0.02376
0.0074435
0.006697
0.02334
0.003257
0.001025
0.003562
0.02313
0.023025
0.001672
0.0100105
0.0225
0.000177
0.0009435
0.00032
0.0017631
0.0048955
0.0073885
0.002097
0.02187
0.021765
0.000362
0.02145
0.000485
0.0024955
0.0041555
0.00017
0.0086485
0.00243585
0.0030535
0.020505
0.0071535
0.0081235
0.00356587
0.00372188
0.00529624
0.000867465
0.000276247
0.0029635
0.0046155
0.0009935
0.02956
0.0041985
0.0018555
0.0015335
0.0102405
0.006995
0.000207
0.003327
0.02826
0.02836
0.002355
0.00236762
0.02806
0.0228585
0.003425
0.0024505
0.0020435
0.0032085
0.00139
0.014842
0.02726
0.0017955
0.0004955
0.0012985
0.003627
0.0036855
0.010075
0.00572
0.0001555
0.0005655
0.00539237
0.001185
0.0007205
0.0034435
0.006542
0.011597
0.0050805
0.0011155
0.001945
0.0006585
0.02502
1.05e-05
0.00447
0.0029555
0.002642
0.002715
0.005055
0.0113764
0.011437
0.00033425
0.000242
0.007667
0.00405791
0.00335882
0.00394262
0.00288439
0.00395697
0.00101284
0.000406268
0.00260505
0.00226602
0.00164568
0.00148233
0.00106859
0.007102
0.0064805
0.0054205
0.0082655
0.0013685
0.0031235
0.0057555
0.0067535
0.00412
0.003522
0.0015335
0.00179
0.0079835
0.0180735
0.009512
0.0090055
0.0057335
0.0083035
0.0014635
0.026365
0.001207
0.0010235
0.006357
0.0020985
0.00648134
0.0008835
0.009072
0.008552
0.0004435
0.0071885
0.0079285
0.0019605
0.001002
0.00814516
0.00385
0.0059785
0.0077455
0.0002935
0.013835
0.0059305
0.003335
0.0060985
0.0102585
0.0028685
0.002182
0.0065785
0.0109585
0.01086
0.000742
0.0011505
0.0081405
0.0079505
0.0033505
0.0010785
0.0071685
0.001367
0.0135911
0.00326
0.0065985
0.00494
0.0056985
0.0152814
0.0053705
0.0054135
0.030065
0.00119032
0.0228135
0.0022085
0.000107
0.002797
0.0008085
0.02976
0.0018205
0.00436107
0.00399406
0.0037391
0.00338018
0.00270036
0.00293389
0.00254608
0.00224739
0.00251907
0.00250353
0.00387168
0.00213315
0.00162031
0.00494416
0.00167971
0.00278424
0.00156838
0.00160958
0.00117452
0.0049222
0.000884986
0.00266304
0.000775715
0.000906963
0.000239996
0.000216685
9.66444e-05
0.0029572
0.00314166
0.0043905
0.0057655
0.0177455
0.006222
0.0003455
0.01507
0.004242
0.006027
0.0074035
0.0142105
0.0127635
0.0111585
0.0056085
0.0104485
0.0016285
0.012387
0.00399
0.002972
0.0109805
0.008478
0.00737322
0.00753764
0.0072955
0.00394
0.0042305
0.0113555
0.0122605
0.009535
0.00076
0.0081335
0.009875
0.0120135
0.0027405
0.0044235
0.0102705
0.00770111
0.0093355
0.00880119
0.0085185
0.0012505
0.0004585
0.002637
0.001057
0.009452
0.0035585
0.011452
0.002102
0.010427
0.0077305
0.010837
0.004835
0.0007435
0.00854206
0.0043685
0.0002005
0.0030185
0.019622
0.00132106
0.0031335
0.0063085
0.024267
0.005252
0.0045905
0.002837
0.0056285
0.000452
0.011887
0.00422067
0.0039085
0.0067485
0.0108835
0.0139055
0.000935
0.0197835
0.013887
0.002592
0.006342
0.0088655
0.0054035
0.010777
0.0085235
0.0039485
0.0056
0.0093785
0.029477
0.0037705
0.0107055
0.00210678
0.010745
0.00454021
0.00403115
0.00399706
0.0040438
0.00396262
0.00358849
0.00383477
0.00376323
0.00396026
0.00546381
0.00319368
0.00487069
0.00238442
0.0029813
0.00278387
0.0034133
0.00246877
0.00229279
0.00228835
0.00224389
0.00416625
0.00219371
0.00355448
0.00222987
0.00203073
0.00206174
0.00286718
0.000867265
0.00186202
0.00259433
0.0035844
0.00179413
0.00176811
0.00175846
0.00428634
0.00169411
0.00139682
0.00271398
0.00534452
0.00137124
0.0012972
0.00381442
0.0021731
0.00213869
0.00120361
0.00281867
0.00111012
0.00114144
0.001074
0.00100473
0.00252411
0.00362878
0.000793216
0.00119848
0.00263704
0.00355269
0.00166293
0.00540978
0.000685306
0.00058707
0.000657691
0.000830186
0.000626674
0.00136121
0.00107105
0.000449314
0.00252235
0.000454622
0.00211572
0.00641774
0.00264485
0.00104747
0.000231938
0.00413106
0.000286645
0.000265372
0.000127564
0.00140669
0.0018505
0.0160705
0.004317
0.0088385
0.0195522
0.00835
0.006397
0.00398
0.00981219
0.005407
0.0019785
0.004625
0.011467
0.00456834
0.0156905
0.0138835
0.0149785
0.000934393
0.0149785
0.006765
0.0008835
0.004333
0.0072855
0.012702
0.0073505
0.00584112
0.0119855
0.0053835
0.001012
0.0201535
0.0065035
0.0006285
0.0118835
0.005435
0.0091365
0.013527
0.0084685
0.0012335
0.0061255
0.0206335
0.0149335
0.0005155
0.0007235
0.0101955
0.007547
0.0017885
0.0149635
0.004815
0.005747
0.0153255
0.0097335
0.000322
0.0088285
0.007311
0.008522
0.0147855
0.0044505
0.006055
0.0025935
2.96389e-05
0.002767
0.005067
0.0114735
0.01013
0.00207
0.0009655
0.002592
0.013432
0.013157
0.0043105
0.013392
0.008597
0.006147
0.0066205
0.012842
0.011842
0.00822
0.00965
0.0090635
0.00954
0.0030355
0.008222
0.013552
0.0057585
0.013557
0.012157
0.006977
0.012647
0.004067
0.0090935
0.0067055
0.00714652
0.0100105
0.0004155
0.001602
0.0041405
0.0128655
0.003447
0.0044535
0.0129155
0.0053935
0.012587
0.010972
0.0047035
0.0187655
0.0083205
0.0108205
0.0011455
0.0168805
0.0014135
0.008157
0.0053905
0.0113581
0.0003105
0.0036505
0.0083435
0.0084985
0.0109035
0.000251251
0.00394284
0.0137111
0.00394932
0.00249746
0.003915
0.00387684
0.0040114
0.00381711
0.00191071
0.000420742
0.00381656
0.0038941
0.000873124
0.00370134
0.00102908
0.00135113
0.00371399
0.00366952
0.00357777
0.00228232
0.0037114
0.00359523
0.00359109
0.00360094
0.00347905
0.00346764
0.0140664
0.00355083
0.00286216
0.00341458
0.00339126
0.00334868
0.00410674
0.00337822
0.00582526
0.00326678
0.00321769
0.00116444
0.0031148
0.00314575
0.00308032
0.000763237
0.0116368
0.00309769
0.00300079
0.003053
0.00298021
0.0106918
0.00504801
0.00304735
0.00299677
0.0030135
0.00291048
0.00284349
0.0141179
0.00285784
0.00115459
0.00275793
0.00329984
0.00266438
0.00264984
0.00256961
0.00254202
0.00256142
0.0190037
0.00147145
0.00251437
0.019046
0.00251654
0.00150223
0.00239993
0.000610555
0.00242345
0.00200882
0.00235641
0.00237046
0.00215957
0.00112068
0.00237621
0.000668016
0.00668768
0.000392865
0.000539347
0.00228292
0.00267598
0.00228495
0.0162759
0.00318159
0.00270369
0.00231449
0.00212007
0.00207367
0.00207189
0.00213065
0.00279947
0.00209193
0.00210402
0.0154618
0.00556571
0.00201633
0.00279759
0.00446702
0.00200132
0.00313318
0.00195488
0.00198498
0.00201216
0.00209259
0.0019224
0.00188963
0.001893
0.00665197
0.00263538
0.00247321
0.00449489
0.00172256
0.00431595
0.00170352
0.00197169
0.0238466
0.00176404
0.00173171
0.00171891
0.00165172
0.00167974
0.00190179
0.00170464
0.00167863
0.00160944
0.00156859
0.00152022
0.0016011
0.000703493
0.00153234
0.00233159
0.00147459
0.00154045
0.00150502
0.00422522
0.00148755
0.00135776
0.00143076
0.00079808
0.00424492
0.0014134
0.00149779
0.00149241
0.0013139
0.00174647
0.00115421
0.0173624
0.00105708
0.00145479
0.00349486
0.00171686
0.00100061
0.00334421
0.000943179
0.000945115
0.000934684
0.000985242
0.000908377
0.000987292
0.000955128
0.00087207
0.00214982
0.0139413
0.000824573
0.000800751
0.000730514
0.00215392
0.00291342
0.000824133
0.00139362
0.00200528
0.00077105
0.0134801
0.000589596
0.000719355
0.000716802
0.00437758
0.000659519
0.000658544
0.000591042
0.000573382
0.00060775
0.000405718
0.000594866
0.000651455
0.000582316
0.000596943
0.000541041
0.000443999
0.00318412
0.000384248
0.00257109
0.000386054
0.00202781
0.00348045
0.000246527
0.0002964
0.000167104
0.000229431
0.000218881
0.000149265
7.64825e-05
0.00115473
0.00296042
6.98955e-05
7.63033e-05
0.000108584
0.00452069
0.000115626
0.013527
0.0258485
0.00112441
0.0027555
0.00178507
0.013205
0.0030505
0.0250835
0.023927
0.0209055
0.0084385
0.0173235
0.0195055
0.010532
0.003947
0.025405
0.0195185
0.0002055
0.017222
0.005057
0.0179506
0.0233485
0.0259535
0.0057805
0.0030685
0.0035205
0.017212
0.014685
0.0070785
0.022687
0.0150285
0.000113999
0.002442
0.0064335
0.0030655
0.0006405
0.002157
0.0007635
0.0003355
0.0148055
0.020942
0.0011605
0.01706
0.008167
0.023102
0.021867
0.0171835
0.0020735
0.021077
2.7e-05
0.018067
0.0120105
0.005242
0.0097105
0.019785
0.0247505
0.0157705
0.0077685
0.0009735
0.012862
0.0154255
0.0002685
0.004542
0.0087885
0.0119335
0.000692
0.0188085
0.0108235
0.014732
0.017372
0.001687
0.0011805
0.0032805
0.006212
0.0022085
0.00842024
0.009267
0.013912
0.0106085
0.0080305
0.0058985
0.0058405
0.0030135
0.001777
0.009472
0.010592
0.013662
0.013877
0.0144835
0.015652
0.018047
0.0152835
0.018065
0.0089955
0.014642
0.0060905
0.001402
0.0189155
0.014817
0.0134605
0.0100405
0.015407
0.0018685
0.001862
0.000982
0.0087835
0.0064905
0.014257
0.0053605
0.00242
0.001065
0.007222
0.0059905
0.0110575
0.0079035
0.00448
0.0023035
0.0153335
0.0038085
0.0032785
0.0177335
0.0008435
0.000545
0.0008535
0.007562
0.011502
0.013302
0.0100505
0.0142285
0.00616752
0.00045
0.006237
0.016102
0.007417
0.0024555
0.0159655
0.001472
0.004647
0.0108605
0.0113335
0.000947
0.0157555
0.00374308
0.00378752
0.00373796
0.00179548
0.00365198
0.00366646
0.00363271
0.00366222
0.000951214
0.00360435
0.00013159
0.00354053
0.00370596
0.00337287
0.00334939
0.00340313
0.00332468
0.00333788
0.00323434
0.00323486
0.00449511
0.00311052
0.00318332
0.00308392
0.00310367
0.00301281
0.00308181
0.00272232
0.00296353
0.00297225
0.00292425
0.00289936
0.00291632
0.00293851
0.0292599
0.00293247
0.00285961
0.00708307
0.00281761
0.00274018
0.0027449
0.0110052
0.00269918
0.0254135
0.0001385
0.00268138
0.010838
0.00257561
0.00264208
0.00144102
0.00255795
0.00351673
0.0052148
0.00431965
0.00249734
0.00255969
0.00380968
0.00247208
0.00245301
0.0024462
0.00135936
0.0132124
0.00235343
0.00535957
0.00238861
0.00242268
0.00229188
0.00237402
0.00562932
0.00236467
0.00231623
0.00830167
0.0061986
0.00351877
0.00347924
0.00718907
0.00214865
0.0129358
0.00599472
0.00529807
0.00208261
0.00163395
0.00359806
0.00362003
0.0323161
0.00197073
0.00193518
0.00199596
0.00344791
0.00183833
0.00179216
0.003533
0.000612624
0.00604173
0.00175975
0.00177804
0.00383584
0.0225566
0.0121958
0.00165097
0.00149311
0.0015702
0.00613811
0.0013781
0.00357889
0.00102329
0.0054913
0.0022886
0.00641554
0.00155842
0.00234026
0.00377398
0.00120057
0.00152035
0.00151665
0.00140823
0.00150348
0.00248442
0.00128694
0.00231327
0.00134644
0.0325664
0.00241499
0.0177409
0.00288834
0.000573155
0.0060048
0.0210901
0.00107348
0.00606945
0.00137223
0.000988661
0.00104831
0.000984116
0.000958962
0.00101491
0.00783056
0.000135608
0.00178927
0.00100833
0.000782122
0.00663717
0.00878935
0.000810601
0.000688262
0.00326298
0.00166348
0.00216413
0.00173276
0.000700675
0.000921804
0.000647976
0.00173303
0.000561214
0.00056866
0.000610168
0.000623241
0.000623126
0.0067935
0.00595963
0.00202023
0.00519312
0.00054803
0.00347271
0.0259949
0.0321851
0.00223903
0.000395244
0.0358461
0.0180157
0.00282338
0.000156371
0.00362862
0.000764358
0.0311278
0.000240563
0.00050137
0.000105
0.00584995
0.00197565
0.00729912
0.0121202
0.0105544
0.00158933
0.0265035
0.0487655
0.0173305
6.35e-05
0.003777
0.0082885
0.000114444
0.0241605
0.000163486
0.0078135
0.000129138
0.0301655
0.033035
0.0007185
0.0104255
0.0093355
0.0284605
0.004992
0.029087
0.0203635
0.025652
0.0114185
0.019022
0.017837
0.0032005
0.0068935
0.0060256
0.0099805
0.0316135
0.011457
0.0119985
0.0285935
0.0317855
0.028717
0.0288405
0.007642
0.0151185
0.019137
0.0078785
0.0011785
0.0126805
0.000780621
0.0224805
0.0138255
0.015855
0.014125
0.03391
0.021197
0.005165
0.010902
0.0157585
0.0262055
0.0314585
0.0123655
0.0245455
0.000167
0.00125366
0.0184385
0.030862
0.02754
0.0088835
0.00532
0.0144955
0.0120805
0.023847
0.0309685
0.0217585
0.0316685
0.031187
0.0072005
0.021577
0.0302456
0.018577
0.02827
0.0253155
0.03146
0.004567
0.0056885
0.009842
0.0054335
0.001632
0.002747
0.005817
0.0226905
0.0192235
0.0211355
0.0016835
0.024072
1.05e-05
0.017777
0.007242
0.0277155
0.0173955
0.008912
0.00131
0.007282
0.0139205
0.0040635
0.01406
0.0088055
0.009542
0.022947
0.0311455
0.01517
0.00388
0.0072435
0.0015035
0.028322
0.0240405
0.0225535
0.00786
0.010247
0.009527
0.0233605
0.020857
0.0051255
0.026307
0.00076
0.0202605
0.023467
0.0258455
0.014282
0.0026005
0.005347
0.0021035
0.026172
0.0224035
0.0176705
0.0190935
0.000852
0.0054405
0.0227555
0.0110905
0.004917
0.014542
0.0091855
0.012615
0.019343
0.0269305
0.025865
0.018392
0.0100385
0.01666
0.0187005
0.022842
0.0003935
0.0205655
0.004567
0.0159735
0.007497
0.014432
0.025297
0.0018935
0.0042785
0.007242
0.0228105
0.004297
0.0011155
0.0258935
0.001227
0.0082155
0.0227805
0.021837
0.0260885
0.00357027
0.00440826
0.000548425
0.00614815
0.00888746
0.0103982
0.00513656
0.00243254
0.00570268
0.00332814
0.00631143
0.00335751
0.00669811
0.00543008
0.00336527
0.0409219
0.00130325
0.0131397
0.00516459
0.00672566
0.0031839
0.00310794
0.0030166
0.00309374
0.00298119
0.0103135
0.00300274
0.00311655
0.00170706
0.00301652
0.0096253
0.0167756
0.0027664
0.00290661
0.00293417
0.040044
0.00675007
0.00278205
0.0199319
0.00254904
0.00271867
0.00266755
0.0242169
0.00193162
0.00268505
0.00264525
0.002405
0.00247164
0.00261325
0.00239676
0.0179728
0.00247922
0.00254955
0.020381
0.00253868
0.00254907
0.00252059
0.022723
0.00241105
0.00356629
0.00226065
0.00458288
0.00230879
0.00234163
0.0120558
0.00239592
0.0038228
0.00234767
0.00229848
0.00224204
0.000424295
0.00583239
0.00796207
0.0128733
0.00833823
0.00208784
0.0286207
0.0174227
0.00129222
0.00199149
0.00218673
0.00402593
0.00209811
0.00205033
0.00193492
0.00275534
0.00207914
0.00554109
0.00212242
0.00170282
0.00536432
0.0104685
0.00226278
0.00183688
0.0325135
0.00233356
0.0020503
0.00177318
0.000298326
0.00169275
0.013779
0.0178782
0.00162429
0.00350385
0.00154236
0.00140875
0.0015897
0.00175272
0.00276265
0.00159018
0.0133076
0.00155984
0.00155059
0.00147436
0.00133127
0.00405115
0.00172476
0.00124116
0.00585659
0.0191228
0.00139491
0.00197049
0.00142842
0.000472971
0.00116879
0.00119718
0.00126133
0.0326493
0.00123395
0.00183157
0.00849654
0.00127561
0.0451346
0.00102048
0.00120638
0.000951922
0.00106902
0.0010987
0.00103264
0.00105427
0.01078
0.00103063
0.000880898
0.00101519
0.0010094
0.00171062
0.00077523
0.0010219
0.002255
0.0190848
0.000218914
0.000864266
0.000780794
0.00478194
0.000862271
0.000688387
0.000704376
0.00188829
0.000648345
0.0019337
0.0408947
0.000739632
0.00064072
0.000608288
0.0150382
0.0173657
0.00262683
0.00077375
0.000516898
0.0202347
0.000577063
0.00174114
0.00182901
0.00785461
0.000435219
0.000661677
0.00347636
0.00188028
0.0188437
0.00320034
0.00691017
0.000353428
0.000294613
0.000406013
0.0136523
0.00122766
0.000441479
0.000355148
0.0002664
0.000226092
0.000184571
0.0969435
0.000310708
0.00240784
0.00507035
0.0101457
0.00191804
0.000252279
0.0116905
0.00721136
0.00210268
0.04222
0.000920231
0.0294234
0.0061555
0.030317
0.0207335
0.0026685
0.0057835
0.026097
0.0296285
0.0491855
0.011397
0.0253485
0.0109085
0.0227685
0.001717
0.0431535
0.0320505
0.019342
0.0199105
0.0294135
0.0455285
0.0051735
0.0067805
0.0343155
0.0280485
0.008587
0.0093505
0.0022085
0.0100235
0.0477285
0.0123385
0.023387
0.011427
0.038272
0.0395735
0.0212285
0.049275
0.0427055
0.0345055
0.0327735
0.0343905
0.0077535
0.009802
0.0306485
0.0266035
0.0241735
0.0437255
0.0087355
0.0133755
0.003732
0.040755
0.014382
0.0258365
0.01576
0.0403155
0.021027
0.0090585
0.045032
0.007337
0.0251655
0.0238355
0.0127605
0.00930175
0.0078055
0.0124805
0.0201485
0.025167
0.03402
0.040005
0.0089905
0.0113405
0.0040905
0.0146185
0.0442785
0.0126785
0.011437
0.0320669
0.0117085
0.0264035
0.0005105
0.0011755
0.0117035
0.016672
0.0397385
0.012642
0.0310785
0.0076535
0.0108135
0.0296355
0.0050055
0.013192
0.016935
0.0064655
0.00143
0.043997
0.004488
6.33527e-05
0.014385
0.041192
0.0261585
0.034642
0.010292
0.0015905
0.00842558
0.01393
0.0257785
0.0145505
0.007405
0.0128185
0.0324735
0.0150435
0.00025507
0.0069235
0.003007
0.0062285
0.012242
0.0012135
0.012372
0.0138455
0.0192535
0.030725
0.0327385
0.0015705
0.0343355
0.0270955
0.043035
0.0164155
0.01041
0.0199202
0.0032405
0.0173005
0.0073635
0.010302
0.038745
0.0355865
0.0151955
0.0025969
0.018377
0.0302985
0.0248735
0.0392605
0.0197835
0.026812
0.0360855
0.034992
0.00012687
0.0131485
0.036202
0.005857
0.0393535
0.0235785
0.0004135
0.000445
0.0270085
0.0199755
0.00778094
0.020357
0.0318635
0.004077
0.0022785
0.0042205
0.023542
0.0106555
0.029757
0.0394118
0.0096485
0.018672
0.0007505
0.0239205
0.0313455
0.0300605
0.0149555
0.017692
0.0033405
0.0084855
0.0267755
0.0224105
0.0324955
0.0225185
0.0103605
0.00656184
0.0115955
0.010045
0.0362155
0.018727
0.022082
7.05e-05
0.0173785
0.0161185
0.034462
0.0309155
0.035855
0.036332
0.0222155
0.0100735
0.0038585
0.033712
0.026985
0.0156955
0.021382
0.024472
0.00353067
0.0046502
0.0042393
0.00208063
0.00306916
0.00549704
0.00318662
0.0291987
0.00764129
0.000836743
0.00322233
0.00505356
0.0193243
0.00330802
0.00576114
0.00347342
0.00545519
0.00313761
0.0261803
0.00784461
0.0029588
0.0323368
0.00368469
0.00296554
0.00482943
0.0527011
0.00295525
0.00946362
0.00572626
0.00563835
0.00772428
0.0435702
0.0125784
0.0149741
0.00289493
0.00527096
0.0119489
0.00412636
0.00260557
0.00312627
0.0117961
0.00152381
0.00410388
0.00347402
0.0038475
0.00275028
0.0832611
0.0125436
0.00240015
0.0061969
0.000279263
0.00237826
0.00383535
0.00357886
0.00312602
0.00243223
0.011647
0.0629164
0.00251874
0.009715
0.0024545
0.00233799
0.00225731
0.0164614
0.00222694
0.00226717
0.0248695
0.00309614
0.0116163
0.00238639
0.00224181
0.00287188
0.0625705
0.00208586
0.00393205
0.0298711
0.00271382
0.00286262
0.00229306
0.00535684
0.00202002
0.00785414
0.00638825
0.0183904
0.00292796
0.00219674
0.00294631
0.0115431
0.0477798
0.0146524
0.00198717
0.00320241
0.00666929
0.0183888
0.0199451
0.00842574
0.00257419
0.0131256
0.00229336
0.036325
0.00172306
0.00188867
0.00552832
0.00719636
0.0121392
0.00287937
0.0026907
0.0102401
0.0294943
0.0176204
0.000561463
0.00173707
0.0210846
0.00563019
0.0396495
0.00158229
0.00157029
0.0015069
0.0544893
0.00148884
0.00965491
0.00235526
0.00259185
0.00341228
0.00144025
0.0014696
0.00122695
0.068039
0.00139088
0.0419615
0.00155313
0.00924832
0.00131738
0.001426
0.00111803
0.00210975
0.00730656
0.0239501
0.00119427
0.052267
0.00149174
0.028471
0.00133042
0.00127426
0.00130791
0.0010177
0.00150118
0.00631757
0.00102979
0.0176545
0.00124897
0.00340302
0.00139416
0.00475794
0.0317216
0.00105116
0.000827193
0.00317252
0.0454763
0.0010704
0.00157518
0.0277624
0.00877537
0.0462142
0.00105684
0.0228103
0.0214415
0.00636865
0.000798216
0.00373241
0.000628525
0.0159453
0.00102522
0.000770209
0.000624595
0.00904227
0.000677093
0.000708661
0.000783836
0.000846576
0.0190539
0.000608842
0.000702146
0.00083825
0.00144377
0.000504585
0.0149592
0.000578258
0.000613957
0.00258572
0.0126142
0.0152495
0.000579855
0.00695008
0.0650768
0.000500313
0.0153005
0.00372606
0.111202
0.0022655
0.00726967
0.00690632
0.095082
0.000192354
0.0198105
0.003262
0.0553635
0.0165335
0.025212
0.0179035
0.011948
0.0076285
0.0451085
0.0274455
0.0516935
0.009665
0.072735
0.0734935
0.0107481
0.0211735
0.0223635
0.0582085
0.001882
0.0053535
0.0610585
0.076902
0.004357
0.0794005
0.078627
0.0090285
0.071157
0.0839455
0.0137355
0.075103
0.047922
0.0531985
0.086577
0.0104355
0.0237555
0.0648205
0.0931655
0.0100085
0.044607
0.0309155
0.0839905
0.0489259
0.0602085
0.0557935
0.0454405
0.01645
0.0578905
0.054902
0.05843
0.0143735
0.0674805
0.0630255
0.003572
0.0730485
0.001482
0.000142354
0.079195
0.010109
0.021652
0.035502
0.034762
0.0571635
0.0076035
0.085102
0.0048295
0.0044285
0.0203035
0.003112
0.018187
0.0638485
0.050762
4.55e-05
0.0729219
0.0569055
0.060442
0.038427
0.013087
0.0228319
0.0346255
0.0743755
0.01563
0.028897
0.00354363
0.0444205
0.001732
0.0724685
0.0790635
0.0050405
0.080712
0.0561255
0.0384135
0.079822
0.0524445
0.0298335
0.0293362
0.014985
0.0703655
0.0816985
0.0404755
0.000915
0.050572
0.0001735
0.052297
0.059442
3.65017e-05
0.02816
0.0273685
0.00224714
0.0055158
0.058957
0.007242
0.02126
0.04663
0.013907
0.072907
0.01802
0.0660135
6.70353e-05
0.010457
0.0150855
0.0197305
0.028365
0.058977
0.00580537
0.072637
0.0095505
0.0186305
0.00342373
0.0457455
0.0099505
0.0147885
0.0265343
3.9893e-05
0.0567385
0.0683905
0.006917
0.017507
0.0292535
0.063717
0.0206
0.028827
0.000196635
0.0258685
0.0456605
0.0009855
0.0611185
0.0174885
0.000732993
0.0106455
0.0135455
0.0085805
0.0126835
0.060882
0.015947
0.0437885
0.0086385
0.0011555
0.014455
0.03144
0.0635235
0.044117
0.0394235
0.000136237
0.0568105
0.02132
0.0690185
0.051285
0.048095
0.0276305
0.016717
0.0214673
0.0058055
0.041757
0.0011755
0.0294135
0.016137
0.038697
0.0313805
0.044577
0.06845
0.0519985
0.03734
0.0237285
0.000801812
0.05793
0.0092
0.0456755
0.05715
0.000244002
0.02383
0.0073535
0.000807
0.0566605
0.0654755
0.0055335
0.0139555
0.0220435
0.0044505
0.0264935
0.0171235
0.0352485
0.0185
0.000820683
0.052137
6.75787e-05
0.0269585
0.0560785
0.0409485
0.0028055
0.001582
0.0472285
0.0656785
0.0202305
0.019065
0.101313
0.0022285
0.0386085
0.0507792
0.027557
0.035867
0.0272005
0.0155855
0.0148655
0.0566535
0.0165935
0.045165
0.015795
0.016342
0.0194755
0.0650755
0.0501435
0.001577
0.0428855
0.0350185
0.0587385
0.0005255
0.0389805
0.0195985
0.00173
0.0572355
0.0051985
0.0662535
0.0416755
0.0090985
0.0652235
0.058745
0.0243185
0.0291355
0.0147185
0.0225635
0.0669285
0.0031885
0.0110185
0.0493685
0.0226904
0.0265455
0.0107305
0.037502
0.0240305
0.00085203
0.0526185
0.0153105
0.0444535
0.0108205
0.0179435
0.018377
0.004007
0.0382335
0.0622155
0.060122
0.0435885
0.0398455
0.039297
0.004397
0.003347
0.029037
0.0353555
0.023972
0.0459135
0.0455035
0.0120905
0.0101455
0.0260785
0.028335
0.008385
0.0194935
0.019522
0.0150405
0.025842
0.012402
0.0505755
0.031812
0.0011255
0.0433273
0.0618085
0.0343385
0.0025835
0.0022085
0.0186205
0.0223955
0.115633
0.0574585
0.000141462
0.0339485
0.022117
0.0353055
0.00643769
0.0528485
0.0253305
0.056325
0.0442535
0.010865
0.082082
8.15972e-05
0.018182
0.024287
0.0406935
0.0091355
0.0118735
0.0048185
0.0514935
0.027715
0.02654
0.039925
0.0320675
0.0079885
0.0245885
0.011912
0.00458835
0.065027
0.0376385
0.0002805
0.0206935
0.0300605
0.050845
0.046085
0.0268985
0.050267
8.67863e-05
0.007327
0.0366705
0.0332205
0.0484585
0.0424335
0.0290605
0.0284555
0.0358835
0.0621
0.0344355
0.0064935
0.0406705
0.0187535
0.028055
0.0530185
0.0584605
0.0121755
0.0456805
0.0265685
0.057582
0.0416205
0.0551935
0.016165
0.0454585
0.0238105
0.049537
0.046977
0.0222335
0.027197
0.043087
0.0179405
0.037797
0.015817
0.0319905
0.0501905
0.047967
0.030822
0.0194005
0.0323885
0.0521605
0.0406555
0.0381055
0.033142
0.021415
0.0011835
0.0050185
0.016927
0.0492285
0.004597
0.0504705
0.0198305
0.0290674
0.0251705
0.046235
0.031342
0.02943
0.024852
0.0269835
0.00930432
0.0285355
0.0238955
0.0261273
0.031872
0.0434255
0.0306135
0.023867
0.0306055
0.0232605
0.014472
0.05009
0.0081255
0.001077
0.049202
0.0116935
0.05071
0.0242285
0.0346905
0.0399085
0.007385
0.0398685
0.0324255
0.0129805
0.0049135
0.02677
0.020602
)


// ************************************************************************* //
