/*--------------------------------*- C++ -*----------------------------------*\
  =========                 |
  \\      /  F ield         | OpenFOAM: The Open Source CFD Toolbox
   \\    /   O peration     | Website:  https://openfoam.org
    \\  /    A nd           | Version:  7
     \\/     M anipulation  |
\*---------------------------------------------------------------------------*/
FoamFile
{
    version     2.0;
    format      ascii;
    class       vectorField;
    location    "0.7/lagrangian/reactingCloud1";
    object      UTurb;
}
// * * * * * * * * * * * * * * * * * * * * * * * * * * * * * * * * * * * * * //


2444
(
(8.51518 5.04141 0.328078)
(0 0 0)
(0 0 0)
(0 0 0)
(0 0 0)
(0 0 0)
(7.35071 -10.5335 -0.309882)
(8.30274 -0.182442 -1.44452)
(0 0 0)
(0 0 0)
(0 0 0)
(0 0 0)
(0 0 0)
(0 0 0)
(-0.00920438 -0.272906 -0.0123546)
(0 0 0)
(0 0 0)
(0 0 0)
(0 0 0)
(-0.208645 2.90942 3.63768)
(0 0 0)
(0 0 0)
(0 0 0)
(0 0 0)
(0 0 0)
(0 0 0)
(0 0 0)
(0 0 0)
(-3.22422 -0.816039 5.06202)
(0 0 0)
(0 0 0)
(0 0 0)
(0 0 0)
(0 0 0)
(-6.97996 -2.87296 -1.94535)
(0 0 0)
(0 0 0)
(0 0 0)
(0 0 0)
(0 0 0)
(0 0 0)
(1.04426 -1.42243 -0.569459)
(-2.08105 2.84747 -1.23706)
(-2.54439 0.330193 -1.81682)
(1.14386 -1.39278 -0.914047)
(0.213984 -0.22997 0.415608)
(3.02639 0.272472 -0.949021)
(0 0 0)
(-2.40912 -0.46211 1.25482)
(1.67574 -0.355542 -0.545709)
(0 0 0)
(-1.76979 5.17138 1.54837)
(-2.78946 1.313 14.8022)
(0 0 0)
(0.590426 0.66923 -0.343864)
(0 0 0)
(-0.144225 -0.0702721 0.398792)
(0 0 0)
(0 0 0)
(0 0 0)
(-4.63716 -4.01935 0.589497)
(0 0 0)
(0 0 0)
(-1.5118 2.97544 1.0069)
(0 0 0)
(0 0 0)
(0 0 0)
(0 0 0)
(8.56712 1.06809 -4.48704)
(0 0 0)
(0 0 0)
(0 0 0)
(0 0 0)
(0 0 0)
(0 0 0)
(-2.42267 -0.53553 13.6443)
(0 0 0)
(0 0 0)
(3.34462 1.09768 -1.3217)
(0 0 0)
(0 0 0)
(5.09954 -0.821944 -2.09343)
(0 0 0)
(0 0 0)
(0 0 0)
(0 0 0)
(0 0 0)
(0 0 0)
(0 0 0)
(0 0 0)
(0 0 0)
(0 0 0)
(0 0 0)
(0 0 0)
(0 0 0)
(0 0 0)
(0 0 0)
(0 0 0)
(0 0 0)
(0 0 0)
(0 0 0)
(3.51825 1.56662 -5.24092)
(0 0 0)
(0 0 0)
(0 0 0)
(0 0 0)
(0 0 0)
(0 0 0)
(0.672873 -1.61422 -4.0341)
(-4.17307 -3.9077 -0.239003)
(-0.19737 -3.56059 1.25416)
(-4.12406 1.04493 1.41453)
(0 0 0)
(0 0 0)
(0 0 0)
(0.358667 -8.07696 0.86536)
(0 0 0)
(0 0 0)
(-0.073171 0.152451 0.276987)
(0.855703 0.483746 -0.607739)
(0 0 0)
(0 0 0)
(0 0 0)
(12.1486 4.23309 3.83964)
(1.93156 2.2945 -3.83038)
(-0.317791 -5.75729 0.834163)
(-0.17527 2.38546 -1.82411)
(0 0 0)
(2.91564 -1.49651 5.93755)
(0 0 0)
(0 0 0)
(0 0 0)
(-1.74927 -11.0022 2.60647)
(0 0 0)
(-9.30152 0.0796286 5.67272)
(4.47779 -9.59319 2.12535)
(0 0 0)
(0 0 0)
(1.38487 1.12954 -1.51074)
(-2.394 -3.3164 -0.915282)
(0 0 0)
(-9.46339 -18.1896 2.00562)
(0.206412 0.573927 -0.126268)
(-0.653011 -1.10953 -1.52553)
(-0.803081 9.23716 8.91237)
(1.63344 -2.51935 0.902389)
(0 0 0)
(0.780881 5.51238 -3.15361)
(3.15222 -2.98167 -5.00092)
(0 0 0)
(0.718225 1.33749 -1.33385)
(9.36696 -1.87434 2.64632)
(0 0 0)
(-0.897845 -4.71164 -0.0176935)
(-1.70065 -6.33975 1.52486)
(0 0 0)
(-0.00920253 -0.0912852 -0.0228387)
(1.21501 -2.19681 4.30878)
(0.40424 0.925191 -4.73)
(-0.466628 8.41368 -3.05294)
(0 0 0)
(4.05536 -2.81635 0.828239)
(0 0 0)
(-2.50129 4.31159 -3.19716)
(2.00128 1.17282 0.553124)
(1.00778 -1.7441 1.8678)
(0 0 0)
(-1.00494 3.60477 -4.69183)
(0 0 0)
(1.2886 -1.45996 -2.17746)
(0 0 0)
(-4.37292 -2.6671 -1.26466)
(0.0893124 -0.981738 -0.962593)
(3.96667 -1.19197 -0.226034)
(0 0 0)
(-3.97512 2.45006 -2.282)
(0 0 0)
(0 0 0)
(2.46207 3.80613 3.23736)
(6.23478 1.51424 -5.83653)
(-8.07057 -0.216732 -3.42096)
(0.401072 -1.14775 -2.77485)
(0 0 0)
(8.22326 -4.41815 -5.99459)
(-1.49793 -1.03405 -0.808517)
(0.202922 5.03116 -3.48785)
(-1.78737 -0.976644 0.506075)
(-13.5735 -9.43464 0.839237)
(5.88749 1.32325 1.67511)
(-8.60214 -3.97447 -0.405816)
(0.187133 -1.89131 -0.619608)
(0 0 0)
(1.27254 -2.13719 1.68479)
(-1.80741 5.89861 5.14649)
(0 0 0)
(-0.261198 -2.37612 0.518815)
(4.30827 0.43777 -4.97763)
(0.369888 -0.524972 -0.317011)
(-0.346627 0.263945 0.996143)
(-0.635212 -3.32817 -2.86689)
(0 0 0)
(0.0895794 -1.56338 0.508268)
(0 0 0)
(0 0 0)
(-1.04672 0.126664 -0.161237)
(0 0 0)
(0 0 0)
(0 0 0)
(10.4753 -5.3441 5.15927)
(0 0 0)
(-4.44898 2.66372 2.10357)
(4.9687 -1.69029 0.910659)
(1.54929 -2.63352 1.30248)
(-3.02326 5.46049 2.65789)
(-2.36411 7.74686 2.73673)
(-3.0001 18.5474 -1.70408)
(-1.20804 3.18871 1.19024)
(0 0 0)
(0.474087 -1.09969 0.97646)
(0.105031 0.488702 0.332882)
(0 0 0)
(-0.872048 0.712919 -0.83615)
(3.46247 5.84464 -3.08579)
(0.291075 -0.153891 0.31592)
(0 0 0)
(0 0 0)
(9.64663 4.69263 -2.5722)
(-0.741271 1.02768 0.539746)
(0 0 0)
(4.70804 2.12548 -0.0946282)
(-0.0222057 0.0848903 -0.0446832)
(-0.135827 0.263283 0.40514)
(-3.72023 -1.09328 -0.869551)
(-11.9738 5.72288 -0.366636)
(-2.40195 1.97341 -0.638032)
(-2.96828 -2.49125 -2.60278)
(0 0 0)
(0 0 0)
(4.88996 6.09713 -29.841)
(0 0 0)
(2.56889 -3.68895 6.20125)
(2.22607 1.51967 0.689065)
(-0.549523 -0.673997 1.65649)
(0.741376 4.38139 -2.88458)
(-0.00560265 0.0255549 -0.0105841)
(-5.78085 5.73853 2.0142)
(-1.51706 0.0546526 -2.38706)
(0 0 0)
(2.53574 3.17096 1.12463)
(-6.7279 -7.33104 -0.716716)
(-0.23767 -1.3021 -1.04019)
(1.30643 -0.538971 -3.28523)
(-2.34275 -1.43383 -1.83882)
(0.435493 -0.183217 -0.2147)
(-1.27027 -2.3724 1.76874)
(0.882494 8.00026 -1.32635)
(0.51768 2.93964 -4.66369)
(-3.27629 -3.51578 -7.32483)
(0 0 0)
(4.47606 -1.0512 -2.87847)
(-0.705424 0.311937 -0.479391)
(3.01323 1.15969 -12.625)
(-0.0987481 -0.384968 -0.0741502)
(-0.176499 0.373439 1.04069)
(3.53405 4.34666 7.16973)
(3.46829 1.05257 0.177585)
(0 0 0)
(0 0 0)
(7.58079 0.644558 1.94825)
(2.81253 0.232525 -0.0571675)
(0 0 0)
(0.49663 -11.7538 -0.352946)
(-0.370495 -0.558343 0.336251)
(3.31344 -0.971449 1.54631)
(7.70916 -0.235116 2.12729)
(-1.28023 -0.445998 -0.0538062)
(-6.22246 -0.323883 -0.852826)
(-2.21636 -2.78594 -0.458889)
(0 0 0)
(8.17295 -4.70821 -9.67434)
(-2.49088 1.62852 -2.70077)
(3.46726 -4.61471 4.77257)
(0.495377 1.39604 1.09536)
(0.764415 -0.336851 1.21537)
(0.00587251 0.421598 0.965532)
(1.37845 -0.0305542 -1.39571)
(1.16637 0.781797 0.551234)
(14.0636 -4.8447 -2.77329)
(0.230552 2.1548 0.433917)
(-1.05682 7.15493 -4.34703)
(-3.66597 -0.308851 -1.47637)
(0.0989439 0.465014 2.13698)
(1.39843 -1.10153 -0.741843)
(-0.242889 0.156025 0.718694)
(-2.11463 -0.413811 3.4082)
(-11.4717 11.1602 -4.94762)
(-0.234915 -6.99139 0.618903)
(2.18256 -10.7988 13.6102)
(0 0 0)
(10.2844 -4.71284 15.2276)
(9.25715 -3.45297 -1.33246)
(9.20148 8.44607 0.775891)
(-5.41647 6.59311 -2.45726)
(1.82823 0.0634837 1.11826)
(0.511075 1.0379 1.23371)
(0.447082 -7.09833 0.0114223)
(2.75839 0.403369 -0.87962)
(-2.64159 -0.270903 -2.17256)
(-4.22102 7.55434 -2.23724)
(26.4733 -14.6295 1.79916)
(0.168751 -0.000795124 0.0569897)
(-0.248081 -0.201578 1.49627)
(-0.703559 -1.8063 -1.44356)
(2.84903 -1.42787 8.30892)
(4.41552 -0.944705 5.22764)
(-0.395818 -2.61448 2.14966)
(-0.898954 -1.83478 -0.905579)
(-0.279027 -0.233658 0.139539)
(-2.98001 -5.48875 1.82356)
(-0.428346 -1.54336 -0.267319)
(1.44215 -0.339457 0.364411)
(1.47748 -2.74033 0.805239)
(0.767288 6.95586 -1.1532)
(3.78125 -1.1086 1.76462)
(-19.7132 -1.02608 -2.70181)
(0.441819 0.275238 0.361289)
(-3.67171 -7.39595 -7.13116)
(0.934681 7.70116 -2.03278)
(0.097778 -2.47265 1.62429)
(-0.0200267 -0.0720449 -0.0493506)
(22.2859 -7.67715 -4.3947)
(-3.17534 3.4325 -1.04504)
(-2.10522 -1.87503 -0.444001)
(0.647427 2.12332 -4.2955)
(0.426209 -4.0223 -0.846562)
(-2.19613 -5.0109 0.253317)
(1.89519 0.692195 -0.00268069)
(4.2891 -3.32419 2.01532)
(0.425151 4.3655 -1.76639)
(-2.408 -5.02171 -2.8471)
(2.98032 -2.56025 5.96918)
(4.92131 -10.2653 -0.673089)
(21.8148 6.98272 21.4078)
(0.0305854 0.00763197 0.0256233)
(2.10054 13.3351 -3.75226)
(-1.50266 -1.47163 0.849862)
(0.0857553 1.79306 -0.642016)
(3.08606 -7.35438 -0.819044)
(-0.298266 -0.974969 0.0864418)
(-1.41444 -1.56314 -0.832738)
(-2.72348 4.13531 0.759282)
(1.15394 0.778928 2.08892)
(-0.90312 -3.712 -0.116603)
(4.91708 -2.51977 7.15447)
(1.91377 -1.18891 -0.696544)
(1.12058 0.410134 1.12167)
(1.52817 -1.67204 -0.713004)
(-0.0693881 -0.669419 -0.252657)
(0.015736 -1.84974 2.08257)
(0.131607 0.179517 -0.0914154)
(-14.0885 -13.2844 0.581085)
(0.0274573 -0.497706 0.515946)
(-0.014327 0.491436 0.206281)
(2.61969 -1.37609 -1.94895)
(-2.71124 -0.187675 -0.176059)
(1.44166 0.584272 -0.219475)
(0.0378171 -4.48925 0.235146)
(0.69305 0.835538 -1.47174)
(1.76756 -3.27837 0.963339)
(0.177516 1.86302 -0.138064)
(2.68589 -3.96325 2.00104)
(-2.3058 -2.11598 -0.34096)
(0.753458 19.36 -2.31022)
(4.744 5.56399 -2.60319)
(9.08215 -1.38878 0.808866)
(0.467256 1.31391 3.87532)
(0.666812 0.612623 -0.028247)
(-0.915169 2.18812 1.67194)
(-3.00091 -6.57676 0.535912)
(0.244205 1.09572 -0.171126)
(-0.678554 -0.453238 0.0494803)
(1.05898 6.40615 -0.286427)
(-1.73679 1.82262 -0.924584)
(-11.5244 -12.1641 0.327003)
(-6.74662 7.28344 -0.690318)
(0.493854 0.0146836 0.533946)
(0 0 0)
(-1.31467 -1.10386 0.34972)
(-8.50556 -8.47683 0.659031)
(0.0906757 -2.29305 1.50631)
(-6.95705 7.0366 -3.13823)
(-1.90121 5.70875 1.8263)
(-4.1869 -1.21573 -1.93964)
(0 0 0)
(-5.79902 -16.165 -8.77732)
(1.53867 -3.20387 -0.0801091)
(0.160262 -2.1307 -0.510762)
(0.146738 -0.0496173 0.903792)
(0.595408 -2.30059 -1.31288)
(-2.12882 -0.867088 0.262405)
(-0.0771568 -1.96669 0.855874)
(2.5865 -1.15472 -1.41302)
(3.75293 -1.93193 1.38461)
(-1.48602 -0.793154 0.982404)
(-4.91145 -1.58786 -0.853538)
(0.295553 -1.17717 0.904792)
(0.246755 -0.749272 0.393901)
(0.469718 -2.92489 0.978776)
(-0.514505 -0.308922 -0.252837)
(-0.0843555 -0.572383 0.142712)
(-4.69534 -1.57713 -3.64912)
(-0.0240815 -0.0610068 -0.0134339)
(3.62701 -8.4638 0.260886)
(-0.315644 -0.420405 -0.805097)
(0.25763 -0.456663 -1.3466)
(1.89948 -6.23535 1.98223)
(4.37997 -0.39648 -0.809628)
(-0.655063 -1.61439 -1.39854)
(2.87187 -1.56827 -0.443264)
(-0.649542 -2.89823 0.349951)
(-3.01329 -1.72451 3.24786)
(-4.73491 -4.32533 -4.97505)
(-0.664686 -0.972342 -0.92597)
(-0.516644 -1.67332 1.31647)
(-11.443 2.46956 3.63611)
(-3.76234 9.93095 3.70689)
(3.67694 12.4734 -2.30147)
(-0.213205 0.413269 0.635938)
(-0.131778 11.0041 2.16695)
(6.73445 8.70812 2.59226)
(8.77693 2.21088 0.273165)
(6.24346 2.81866 -0.125489)
(4.50971 1.36862 0.230908)
(2.5207 -1.47088 -1.21893)
(-1.39316 2.36957 -0.728678)
(-0.883625 -3.63188 -0.114086)
(0.814392 -0.152614 -0.0597262)
(-2.13772 -1.42788 0.155883)
(-1.14015 0.969124 -1.02096)
(-0.350874 -1.14694 0.101689)
(-3.11199 -8.88552 -6.92815)
(-1.36528 0.899118 0.652393)
(0.232129 2.87513 1.35909)
(0.959536 5.8046 -0.25953)
(0.293335 1.31616 -0.205554)
(9.5707 -1.46348 0.852376)
(-1.19518 -0.416367 -0.0502315)
(0.280135 3.29035 -1.96866)
(1.53451 0.194531 0.734234)
(0.415418 -3.92047 -0.825129)
(0.257127 1.08439 1.1474)
(-0.065484 -0.631755 -0.238441)
(11.5702 -15.0503 7.95479)
(0.143693 0.815958 -1.2945)
(1.58077 10.0354 -2.82378)
(-0.016927 -0.110244 0.130154)
(4.91368 -8.49361 -3.58838)
(6.41742 7.91179 -3.16739)
(0.0809996 1.69363 -0.606412)
(-1.03234 -1.55576 0.936927)
(0.17895 1.83748 -0.743492)
(-0.771534 0.809661 -0.410727)
(1.1121 0.0330656 1.20238)
(0.535745 0.498893 0.668803)
(-3.27121 1.10918 -0.900016)
(-3.7254 -0.50438 -5.86595)
(6.58616 -9.18504 3.5642)
(0.0267064 -0.484096 0.501837)
(-1.21496 1.52953 -0.767586)
(3.94382 2.2695 -0.700836)
(-2.61922 1.67535 -19.145)
(0.671518 0.809578 -1.42601)
(1.55886 -1.70562 -0.727323)
(0.636304 0.584594 -0.0269547)
(-3.06314 2.97995 -1.3211)
(3.70938 7.81809 6.34859)
(-2.43826 2.9011 5.50948)
(-4.75498 -1.38068 -2.20281)
(0.620838 0.872889 2.15181)
(-2.11741 -2.56786 -3.30023)
(-1.18148 -1.3457 1.11785)
(3.30085 2.12494 -4.46933)
(8.50648 -1.74917 -6.57427)
(21.0592 1.79057 5.41219)
(-5.44664 -4.5291 -0.848764)
(-1.03363 6.99795 -4.25165)
(-2.78675 -2.99046 -6.23037)
(1.5824 -0.0998117 0.30833)
(7.244 -0.22093 1.99893)
(-3.51363 1.22677 4.0604)
(-3.51302 -1.85858 2.13264)
(-1.98093 -0.166889 -0.797764)
(2.04469 2.51484 4.14817)
(-1.40936 4.23188 1.35383)
(9.73392 5.80607 1.30305)
(-0.776553 -0.0234189 1.06896)
(2.63073 0.481821 -1.68734)
(7.32386 -4.42544 0.38032)
(4.78418 14.3382 1.32161)
(-1.08432 -0.134956 -0.986622)
(4.71865 0.390112 -0.0959113)
(0.0817085 0.344591 0.364615)
(-3.68802 -3.09665 0.981067)
(-1.28933 0.84672 -2.59743)
(-0.0165008 -0.107468 0.126877)
(-0.782198 0.511395 -0.848107)
(-0.675969 0.298913 -0.459374)
(-0.0753458 -0.0193913 -0.0187421)
(-7.00888 -8.31622 -0.189496)
(3.70888 2.48599 1.75284)
(-4.78891 8.14523 -2.50478)
(-2.5137 2.26282 2.86045)
(4.80891 2.40142 -0.0979186)
(0.27069 -0.831635 -0.813936)
(-0.226303 -0.719958 3.14596)
(4.64892 -2.15154 0.49344)
(-0.619568 -2.22197 -1.59071)
(-0.487822 -0.220393 -0.605629)
(5.16121 -1.00942 5.1171)
(3.86449 -0.69293 2.41293)
(-0.450762 -0.853003 0.0304212)
(0.0895419 -0.677832 3.53096)
(0.750377 -0.0109741 -0.187023)
(-0.0789946 -2.01354 0.876261)
(0.401306 -1.30961 -1.85509)
(-0.351422 -1.67326 6.58803)
(-0.133256 -0.0023587 -0.0617604)
(7.02084 -6.71119 0.402792)
(0.0666831 -1.48081 -0.642109)
(-7.93636 -7.20815 6.01052)
(-1.97438 -4.94838 -1.6673)
(0.291653 -1.0366 -0.196254)
(1.92004 -4.89646 -1.69234)
(-1.5727 -0.0378009 -0.771459)
(0.648083 -0.952638 2.17222)
(6.29279 -3.30732 -2.99918)
(6.31689 -0.134262 -2.8683)
(0.02453 -0.0116847 -0.455551)
(5.99419 -1.97404 9.37882)
(-0.170319 -0.24291 0.124172)
(-0.346664 -7.71998 7.40326)
(1.0882 -3.23425 13.9667)
(0.588522 -4.80124 -2.01272)
(-5.6031 -4.70263 -4.91317)
(-0.42621 -0.137539 0.308155)
(-0.21238 -0.276957 -0.405808)
(1.19239 -0.625185 -1.5765)
(-6.6111 -2.07023 -0.947337)
(-0.0847967 -0.0496073 0.0122927)
(8.04747 -8.29478 -7.02537)
(-0.377237 -0.0474793 -4.00746)
(0.123608 -0.00408465 -0.0290094)
(0.622667 -0.830188 3.51785)
(-0.757986 -4.45989 -2.11838)
(4.65823 -2.82553 -1.37429)
(-0.161545 -0.177741 -0.605877)
(4.70195 -3.38662 -0.610454)
(-3.5883 -0.643375 -0.307215)
(0.239489 -0.48293 0.325505)
(5.55175 -6.40915 -0.656188)
(-0.330772 -8.20349 11.2978)
(-3.62786 -0.833865 4.05822)
(4.98565 -4.90093 8.99335)
(-8.70744 -2.18425 -4.09583)
(0.323956 -6.09588 0.218566)
(6.57858 -2.24333 1.11259)
(-1.82312 -10.932 6.53332)
(1.13244 -1.03619 -0.0542006)
(1.34475 -1.93908 -0.972711)
(-10.477 -6.41837 -7.58005)
(2.69049 -4.52269 1.54237)
(3.4954 -2.54113 1.00494)
(8.10014 -4.25491 -6.02621)
(2.07669 -3.56976 -1.15022)
(7.67898 -0.234196 2.11896)
(-5.36786 -0.358164 -4.62157)
(0.929478 -2.25105 -2.50637)
(0.0273124 -3.24225 0.169828)
(0.45279 -4.57623 -1.49921)
(9.12194 -2.85603 2.64999)
(5.06179 -3.11726 -12.1409)
(2.61619 -2.22157 0.0579987)
(1.57123 -2.4234 0.868021)
(-2.55674 -1.41833 3.22615)
(1.57682 -8.08289 -3.85107)
(-3.32726 -14.927 16.6643)
(3.15186 -2.04576 0.0912791)
(-0.63723 -0.46601 1.82017)
(0.81624 -0.910112 1.6495)
(-23.727 -7.15995 13.4539)
(0.554743 -2.62663 0.073277)
(4.32629 -2.84876 -18.6507)
(-0.281015 -0.527938 0.621717)
(11.0925 15.9166 -3.01202)
(-3.03726 28.6922 0.266385)
(-2.52008 0.803396 0.107893)
(-5.51736 -2.31356 -3.78152)
(15.2806 -4.29329 12.3924)
(-0.0189974 0.0296753 0.106099)
(-2.26236 9.22587 -2.99101)
(-1.87758 -0.703022 -7.02387)
(-4.7122 -1.14994 1.74992)
(5.73805 8.71009 2.42758)
(1.01545 -0.0871463 0.0910021)
(-1.15174 -3.87548 11.8414)
(-8.18773 -3.31795 -0.950679)
(1.57231 2.08902 3.27325)
(4.74215 -8.79546 2.58452)
(-3.22217 -1.59471 -1.34808)
(0.158442 -0.163972 0.266854)
(8.99103 6.01856 -8.2156)
(2.02049 1.22958 0.439192)
(-1.67308 5.67482 -6.19649)
(-1.77983 1.98731 -8.66312)
(0.518731 1.66492 -1.28213)
(0.137457 -0.978633 -0.207651)
(0.388659 -2.79096 7.67713)
(17.1929 17.0268 -5.78193)
(9.518 3.793 0.160367)
(-4.11015 2.14453 -5.68085)
(-3.07283 1.93025 1.23742)
(5.26959 -6.20706 -4.06598)
(-1.97399 -31.3185 -7.72678)
(10.5983 -3.62818 2.43278)
(-4.44183 0.914883 4.51952)
(0.209132 0.638844 -1.45382)
(-9.02764 -0.624903 -0.586224)
(1.05365 12.7646 -1.57609)
(-3.40511 6.12638 -5.21907)
(2.43528 -0.0290778 2.1788)
(7.85442 10.9851 -2.04914)
(-0.922848 -0.81055 0.48253)
(13.3454 2.77083 3.21708)
(-18.402 -17.4174 -5.22736)
(7.27652 8.53426 -3.99287)
(-2.91284 5.25212 6.18346)
(-0.182044 -1.62742 -5.79057)
(0.50744 5.32555 -0.394665)
(2.81956 4.99015 5.4307)
(10.6934 -15.111 -0.821623)
(3.02289 5.36548 4.6605)
(1.14174 -0.0253075 -1.15604)
(8.37783 12.2778 1.75579)
(-2.56946 8.41976 2.97445)
(-8.17654 -2.40288 -1.91115)
(0.633983 1.78665 1.40184)
(12.6121 6.17687 -0.237267)
(0.47634 -0.799111 0.435575)
(-29.6981 22.337 2.94903)
(-12.9438 3.15089 8.94011)
(1.61426 -1.01839 -0.520575)
(1.86692 1.50861 -1.08025)
(-1.77572 0.575107 5.56026)
(0.415697 -0.160788 1.81748)
(-0.253275 0.535881 1.49338)
(0.30297 3.79137 5.05596)
(11.7656 5.0751 -7.14277)
(-0.529004 25.8374 2.36093)
(3.6031 2.07343 -0.640288)
(-1.22383 7.39574 4.14914)
(0.838555 -0.494467 -1.45198)
(0.0384639 0.0128223 -0.1442)
(2.28312 -1.00609 3.63001)
(-2.09713 3.75323 -1.11153)
(-8.69945 -0.892157 -7.1548)
(11.0628 5.52443 -0.22526)
(1.37617 0.857308 1.12534)
(10.3032 9.45731 0.868788)
(0.693736 6.48386 1.30567)
(7.41234 -9.72197 5.05277)
(-1.21395 -0.237557 1.95655)
(3.2968 -0.519222 0.416996)
(5.2708 0.183024 3.22394)
(-0.924802 0.26301 -1.12159)
(2.4371 14.4028 -9.48235)
(-2.0942 -1.10794 1.27132)
(-1.54205 -1.70416 -0.907867)
(8.50291 14.3529 -7.57788)
(2.05226 0.749564 -0.00290286)
(5.869 8.00827 -6.06352)
(7.80263 -2.91043 -1.1231)
(-0.0707136 0.270331 -0.142293)
(5.76255 2.8032 -1.53654)
(-4.7481 -1.08093 -3.13794)
(-7.00691 -10.5255 -11.3724)
(-0.666263 3.85048 2.35473)
(-1.95398 4.04199 -4.10982)
(-1.36701 0.897735 -2.75393)
(-1.58505 5.96598 -2.03247)
(4.609 12.0949 -5.07228)
(12.9713 7.7371 1.73643)
(-6.60517 6.38275 -6.70291)
(-0.0637608 -0.0164097 -0.0158603)
(0.0155557 -1.82854 2.0587)
(0.650986 -5.29407 -1.86342)
(2.71345 -1.16907 0.595303)
(-0.801994 0.655648 -0.768979)
(-0.0251498 -0.0904749 -0.0619751)
(-0.416326 0.217282 -0.201262)
(6.11813 7.91117 2.35502)
(8.92355 -6.42725 -1.15854)
(-3.99071 4.85763 -1.81044)
(0.0526705 0.967911 1.00409)
(0.206435 5.30434 -0.632961)
(-1.17966 23.2177 -3.97188)
(0.100814 2.32422 2.68203)
(0.20981 0.986059 4.53144)
(-4.78944 5.17054 -0.490059)
(1.54854 1.0453 2.80325)
(6.72824 -15.8977 1.94949)
(16.2674 -8.40553 -2.36611)
(4.73078 -2.44445 -0.688097)
(-4.82481 -0.899456 5.62838)
(-3.38814 -9.28623 14.7562)
(-2.14298 -7.41017 -5.251)
(16.9164 -3.21064 -6.15657)
(-35.9967 -0.547058 14.5577)
(-15.657 -12.8961 -2.41783)
(23.103 -21.0277 -19.8365)
(6.83575 -25.7775 5.56129)
(-2.60377 -2.20866 5.99931)
(2.74927 -4.83883 0.569925)
(9.0735 -46.5114 -22.1602)
(2.26827 -13.5897 2.72759)
(-5.72178 -3.57036 -10.5636)
(3.10885 -9.28962 -10.6334)
(1.01902 -0.109581 -0.0746819)
(7.88021 -6.49387 13.1486)
(5.3827 -8.85049 -0.567277)
(-0.637359 -1.80788 9.11739)
(4.62284 -0.374613 -5.89625)
(-4.08515 -1.92057 -2.02401)
(18.6351 -7.96282 -14.6559)
(3.3922 -0.352606 1.64804)
(-1.63142 -3.08724 0.110102)
(29.186 -10.8924 17.3704)
(1.01898 -2.30959 -1.94537)
(1.70565 -0.274114 0.608311)
(-3.78828 -5.07037 16.1022)
(-70.0385 -8.6205 -13.8925)
(6.27615 -2.7631 -5.33661)
(-8.61975 -8.20172 2.0606)
(10.9444 -1.57978 0.36344)
(2.72638 -4.09889 -4.25853)
(19.8425 -8.40519 -1.15723)
(8.16012 -1.511 -2.66763)
(13.3706 -3.58316 -3.16195)
(0.896366 -0.655405 -6.31367)
(-3.64351 -0.713614 -2.23705)
(5.36393 -2.40008 -5.10599)
(5.35613 -5.46109 3.24302)
(-17.7465 -8.78311 -7.42472)
(-1.44715 -3.22516 3.35062)
(0.95256 -3.47596 9.49011)
(0.00450105 -5.59906 29.4782)
(-1.86937 -3.03331 8.33608)
(-18.8612 -3.28691 -12.622)
(-2.01598 -2.72395 1.10403)
(25.2881 -6.79302 -4.99693)
(-3.10486 -4.8769 4.11926)
(-0.486985 -1.3225 -3.2842)
(2.00863 -1.84719 0.539873)
(3.05738 -4.59652 -4.77554)
(-0.389063 -2.77511 -1.67712)
(7.70205 -2.19419 -0.451581)
(0.229594 -3.08009 -0.716681)
(-0.53153 -0.463918 0.330044)
(-3.2052 -15.1255 13.9317)
(15.7246 -3.6266 -10.0342)
(-6.64433 -4.60394 -2.14763)
(-17.1705 -3.05466 9.97291)
(28.2176 -8.47422 -18.3109)
(-0.246399 -10.5206 -3.63327)
(4.08495 -9.18356 -9.54643)
(3.43905 -1.59419 1.00856)
(0.494751 -1.75847 -0.332921)
(-3.31786 -9.06139 7.46715)
(-3.04519 -2.67256 -0.0262787)
(8.49773 -4.23106 -17.0339)
(-0.967691 -1.33025 1.49657)
(-23.1813 -10.4174 14.0123)
(-0.643266 -2.79046 -2.73835)
(22.2095 -15.0511 20.4678)
(-3.65697 -8.27782 -17.9343)
(2.87792 -9.41657 3.08014)
(-22.6573 -17.3761 -0.154008)
(-1.2203 -6.97033 -5.38306)
(-13.7768 -3.02952 11.7289)
(-3.15918 -5.54411 -1.02176)
(-1.758 -0.869762 1.54305)
(-0.608918 -5.95072 -1.12673)
(4.67098 -16.0298 -8.35714)
(-14.5171 -0.989676 -2.26278)
(37.456 -11.0834 -1.81744)
(3.89392 -8.69151 -4.08816)
(7.12635 -4.53799 2.66055)
(-2.43611 -2.84856 -1.19772)
(11.4483 -10.9433 0.656798)
(-2.61024 -3.14648 -0.900487)
(-0.0141777 -0.140637 -0.035186)
(-29.6241 -8.90644 -5.09688)
(-10.4673 -5.73222 9.04319)
(-1.81657 -2.49578 35.0349)
(-2.84477 -13.5766 1.82548)
(-5.29112 -3.11691 -1.01715)
(-0.880257 -7.48082 2.33442)
(0.73417 -7.12207 11.9421)
(10.6268 -2.65805 2.19368)
(-25.2634 -3.82621 4.87253)
(11.9375 -3.34849 13.2964)
(19.8027 -10.194 7.30605)
(6.63103 -9.28168 1.20406)
(-0.360526 -0.441658 -1.70875)
(4.44841 -8.45368 -8.22887)
(-0.0720269 -1.56708 -1.48043)
(-30.6225 -15.9207 2.81229)
(-24.137 -7.80345 -4.19466)
(-0.351882 -0.95518 7.70093)
(-0.902592 -0.993088 -3.38519)
(-19.1531 -12.1254 11.0535)
(-20.547 -16.2674 3.2648)
(-5.4487 -4.04357 1.12312)
(-6.98271 -14.3516 6.56547)
(-5.04197 -3.66015 3.61943)
(0.0302481 -0.0173469 -0.0210367)
(2.21734 -2.21631 -0.562397)
(-10.0944 -5.83358 8.32884)
(1.83558 -4.2578 3.78069)
(-0.0435439 -0.156608 -0.0331084)
(-0.293025 -0.842328 -0.924616)
(-19.5877 -16.2879 -3.05239)
(-2.65556 -8.6009 6.76666)
(0.162214 -1.23563 1.74906)
(-0.589602 -7.61045 0.829082)
(-5.4085 -3.7336 -2.91927)
(-19.1202 -13.29 1.18218)
(0.640816 -0.909491 -0.549208)
(-5.49958 -3.99235 3.94793)
(33.1977 -7.27755 -20.2679)
(-1.42145 -16.2724 -11.8879)
(8.14125 -2.55987 10.0725)
(2.49079 -11.1653 10.7117)
(0.274887 -0.0260832 0.230522)
(15.2261 -2.83386 3.53854)
(-0.0775835 -0.149891 0.122812)
(-7.97276 -1.45937 -4.66662)
(-2.21078 -8.46362 6.78774)
(-3.41319 -3.99106 -1.6781)
(-7.14651 -5.15686 4.82021)
(-1.513 -5.19899 4.80232)
(-4.43621 -5.64235 -1.16279)
(14.0956 -7.0644 41.1085)
(3.46264 -5.88587 2.91102)
(1.99305 -1.53597 -5.81739)
(-0.675905 -3.52989 -18.0647)
(-0.189269 -0.158436 -0.578293)
(-8.31137 -0.110555 1.7285)
(-11.3026 -10.7738 -4.74957)
(5.36798 -13.0004 -14.4749)
(4.05937 -4.55218 2.01691)
(-0.497517 -2.09021 -0.664335)
(0.470861 -9.37036 -2.0355)
(-0.0243825 -0.0427305 0.0290175)
(9.68398 -6.83069 5.80835)
(0.0449307 -0.0214025 -0.834415)
(12.179 -29.0817 4.0733)
(-0.536116 -3.44675 5.71079)
(39.1613 -12.7917 40.0026)
(-8.26551 -5.41771 9.87907)
(17.4822 -30.4385 13.1417)
(-0.506384 -4.52371 -0.0548679)
(-8.72153 -2.20224 4.08242)
(-1.3092 -3.76342 -4.13108)
(-5.97963 -4.43757 1.23256)
(-1.46125 -0.700592 0.0135926)
(-6.00979 -2.53823 -6.88159)
(1.19488 -0.288856 -0.45849)
(-0.381736 -4.4225 -1.50821)
(-8.06387 -1.77773 3.26965)
(29.9807 -5.78623 -19.6418)
(-12.5704 -10.5502 -11.0225)
(-10.9261 -4.3775 3.92123)
(1.2998 -1.79695 -0.482202)
(3.84289 -19.9032 -0.169757)
(0.0407382 -0.280482 0.19312)
(-3.96893 -6.95622 9.29415)
(-1.03187 -0.64388 -1.90504)
(3.64283 -1.9234 0.865642)
(4.23862 -7.73984 -7.28257)
(-0.473944 -0.277264 0.0687059)
(12.9472 -5.62706 6.85403)
(4.63771 -7.78502 11.4784)
(-22.2054 -1.13557 -11.9673)
(-7.05023 -12.5461 -1.37189)
(14.9797 -11.5999 -12.7431)
(-3.39162 -2.60035 -2.46733)
(0.677445 -7.79507 -3.11409)
(1.27514 -21.0903 2.02328)
(0.72067 -14.6624 -3.03146)
(5.32866 -1.82245 -0.125685)
(-3.42174 -1.24815 6.43585)
(-2.64408 -2.05113 1.41741)
(4.30638 -13.7373 -29.3176)
(2.83068 -14.0569 12.1852)
(-8.14603 -4.51321 -21.5685)
(0.230759 -0.352258 0.447185)
(7.88247 -3.33204 6.32297)
(0.00315896 -0.407115 -4.69904)
(-22.6931 -9.6061 1.98022)
(5.13896 -35.0785 -14.196)
(2.55678 -1.62288 -0.465016)
(-7.53475 -1.185 -12.63)
(9.51473 -10.2856 -2.84244)
(-4.1982 -2.08466 2.91524)
(1.86456 -2.48597 10.5341)
(25.9447 -15.7372 -7.65433)
(-1.76914 -11.6856 9.60808)
(-6.8073 -7.46388 -1.6096)
(0.206942 -18.4977 -38.1255)
(-3.54198 -15.8042 1.9083)
(-6.50612 -1.50069 -2.70298)
(-1.87391 8.37996 -3.79221)
(4.20526 -3.39451 -5.56397)
(3.8408 13.0943 -5.30646)
(-11.8736 16.2702 -0.552832)
(0.343718 -8.11167 -15.5069)
(-1.25865 -1.10549 0.658113)
(-15.1906 -7.51814 -6.3554)
(12.6884 9.1598 -0.949448)
(0.286076 -0.29606 0.481821)
(-5.39623 6.80552 -2.04959)
(-2.21757 1.60081 -2.37268)
(-16.7016 21.1462 -2.14036)
(7.29434 24.3578 -8.412)
(-14.1748 12.3083 -3.0745)
(-7.04678 1.00951 0.933595)
(-15.1521 -2.14524 5.09868)
(4.88291 8.66692 7.52817)
(1.10902 1.65419 1.67641)
(1.41623 2.68378 -2.68874)
(13.0635 -4.87274 -1.88034)
(2.92414 -1.54407 5.10016)
(-3.55527 -0.107218 4.894)
(-2.35985 8.38656 2.49598)
(-0.00621887 0.00249186 -0.0146024)
(-6.25154 6.23818 -0.890813)
(2.68462 1.5038 0.118853)
(21.5283 11.5148 16.2272)
(-17.6744 -10.1151 19.0502)
(6.45707 10.3267 -0.154305)
(8.86074 -0.762421 -3.34652)
(-8.94231 -3.02342 -5.81538)
(10.1083 17.8232 1.37198)
(2.77951 0.434572 -1.0025)
(7.37482 -10.4264 -16.2223)
(-2.40811 -4.15722 -8.12327)
(10.0537 -0.0300271 -5.76377)
(8.21066 -15.2286 4.47489)
(1.0519 9.83133 1.97976)
(-1.97075 11.9095 6.68143)
(-8.03842 -1.82999 -5.31245)
(8.65536 -12.8823 -18.4584)
(-2.52536 5.59004 2.46533)
(-0.430856 -0.836521 -1.01111)
(-21.9389 -10.6851 9.68899)
(0.59822 13.498 3.46132)
(-8.69109 -2.83459 1.47926)
(9.36161 6.75817 -0.70051)
(2.68994 1.75024 1.33068)
(5.70404 -1.68157 5.20455)
(-8.09807 -6.58258 -24.6244)
(1.27857 -1.92741 2.46855)
(9.1804 -12.0409 6.25801)
(-0.466751 -0.54657 0.443179)
(5.26501 0.236368 0.133095)
(-0.383566 -0.7206 0.848602)
(1.93548 3.22314 -2.86495)
(0.227842 -0.036063 0.328538)
(10.0843 10.7749 3.38438)
(-0.308688 -1.42268 0.084237)
(1.56783 -2.56103 -0.405795)
(-0.487274 1.03098 2.87311)
(-3.0801 0.946229 0.556216)
(-0.549879 1.99353 0.430615)
(-24.0368 -7.09739 -33.7176)
(-12.8881 -5.2227 -1.49644)
(-6.43267 3.1742 0.56403)
(-4.05803 -6.93374 -0.311152)
(2.25352 -0.0499509 -2.28175)
(1.43838 2.56561 -4.41418)
(-0.847038 2.47861 -0.464476)
(-4.23218 0.41758 -1.82836)
(-6.86343 -2.81126 -0.081201)
(-5.8877 -25.6491 23.055)
(0.64057 -0.247767 2.80066)
(-1.19945 0.126852 -17.0479)
(-0.847631 3.53788 -2.86421)
(-12.9377 -0.89556 -0.840128)
(-4.17527 19.3626 -2.65696)
(-10.8173 -23.7903 -2.54618)
(8.238 3.33356 -0.455882)
(19.3073 -3.133 0.941991)
(17.545 18.5924 -0.947396)
(-1.02715 4.53745 -2.094)
(-6.24309 -15.6559 6.3997)
(0.781624 8.20311 -0.607914)
(-8.08533 11.5945 29.2472)
(-5.40326 -9.24709 6.78096)
(-9.7364 -10.8587 2.68397)
(-1.50794 -1.78287 -0.778352)
(-2.84671 -0.271628 1.72531)
(-14.0147 1.54843 -1.80763)
(-6.39206 4.60461 -5.43237)
(0.659059 -1.07657 -0.170582)
(-2.59963 -1.50567 5.67852)
(-0.777322 0.288365 0.535115)
(24.2903 15.9228 -3.26724)
(-0.203033 -8.02831 3.03926)
(2.33053 -3.03946 0.0843606)
(25.9474 25.6967 -8.72606)
(-0.0313944 0.0138106 -0.266949)
(-1.46561 0.794648 -0.924588)
(18.1024 6.19451 -3.54161)
(-0.686145 0.514577 0.461042)
(0.409696 -4.17296 -4.60064)
(-18.5108 -15.2307 18.4952)
(-53.7338 11.0427 -11.2918)
(10.7448 12.602 -5.89601)
(1.95616 5.0214 5.93545)
(-2.53873 -6.41179 0.862156)
(-0.442282 -1.3472 -0.0182022)
(25.6745 -7.42422 -5.29035)
(3.14097 4.1732 6.53891)
(-12.1851 6.78414 14.2567)
(-17.7709 -24.624 -9.08972)
(16.8785 -6.79112 10.6077)
(0.508937 -6.10549 -0.496729)
(1.96784 1.93054 3.31412)
(-6.25809 0.0197749 3.10473)
(4.8976 -7.90444 -11.326)
(0.206196 0.303636 0.570116)
(3.25433 -7.87877 -6.77226)
(-0.250935 2.58792 1.73487)
(0.868471 -0.36999 -0.233569)
(-14.2507 -34.8791 19.568)
(-3.11979 -0.610509 5.02823)
(-7.99051 1.35353 19.9332)
(1.63547 5.39741 2.03072)
(-0.676853 -1.50817 1.84088)
(-4.99815 -15.1557 -4.91637)
(-3.72067 -4.73951 1.66578)
(1.82662 10.9426 -0.173728)
(-5.35291 -0.548958 -4.40246)
(20.5798 -0.585968 14.7571)
(-7.57689 14.9395 -3.3583)
(0.889604 -0.59043 0.0198182)
(0.908477 3.78964 0.950563)
(2.46808 -2.55179 1.56549)
(8.41675 -2.93173 -1.70327)
(5.31206 -3.3549 -2.50228)
(17.8195 -10.8511 2.81036)
(6.58771 0.373277 0.119291)
(-5.58315 -3.10018 4.3206)
(-1.39292 0.881462 -1.62753)
(-1.11842 -6.58065 -3.12571)
(-2.22039 -7.67784 -5.44068)
(-1.45608 -13.204 -7.25965)
(-20.5808 -10.7416 6.38647)
(-10.5224 -19.1816 27.7222)
(-4.90865 -1.66053 2.65801)
(9.07146 -11.2863 10.2527)
(24.1402 -11.1722 2.56226)
(4.68315 -7.05742 4.54724)
(-38.6547 -21.3567 -21.4592)
(2.79057 -12.0411 -17.7355)
(4.86172 -4.63912 0.129387)
(-8.62312 -0.207263 -4.22992)
(5.13696 -7.69094 -8.68701)
(7.3859 -2.68772 -24.1533)
(-14.5542 -19.4331 0.534401)
(7.5193 -15.4661 -4.16516)
(6.26312 -14.9272 11.0646)
(-13.4645 -3.90818 -1.59618)
(0.484309 -1.75221 -2.06629)
(8.00539 -16.6959 4.43234)
(1.05312 -0.012506 -1.11883)
(5.99362 -2.63872 -5.09638)
(-3.12247 -6.29639 -2.64659)
(-8.30402 -14.6419 11.611)
(-2.36145 -5.6565 7.13488)
(-0.718961 -0.419605 1.57322)
(-38.0155 -12.7884 14.8879)
(-0.0443369 -0.0249788 0.0239041)
(0.605159 -7.0616 -3.82583)
(-8.12324 -3.26858 3.82454)
(-3.34869 -2.01288 10.8896)
(7.23325 -10.4301 -5.23209)
(8.39487 -1.55447 -2.74438)
(-9.97495 -10.8052 22.0847)
(0.292744 -0.308585 -0.366304)
(-23.9072 -11.2303 -4.40776)
(-0.233089 -3.18665 1.9555)
(4.43524 -2.69027 -4.93356)
(8.7544 -12.2291 19.0331)
(5.05045 -2.25981 -4.80758)
(-5.11499 -7.1514 0.530315)
(-19.9599 -2.29362 -4.13053)
(-3.47454 -0.68052 -2.1333)
(2.01181 -1.99868 -1.11711)
(-1.3281 5.61836 4.26943)
(-8.10105 -2.82899 -9.41678)
(16.6982 5.28597 -11.5973)
(3.14966 -12.17 -6.94504)
(3.03625 -0.667877 -0.837926)
(-0.874394 -7.95438 1.7368)
(2.50263 -4.65578 4.06938)
(18.2864 -9.38311 -23.1169)
(5.40992 -7.49612 9.77644)
(24.4774 -6.57525 -4.83673)
(-0.470792 -1.27852 -3.17499)
(-8.02183 -9.11449 11.0566)
(-19.233 -9.3029 3.20862)
(-17.8229 -3.10596 -11.9272)
(-1.00964 -3.6125 -15.6341)
(3.75016 -0.0548451 -0.934686)
(-0.22724 -1.51411 -0.225668)
(-0.720418 -2.51759 0.666454)
(-6.61087 -3.25797 5.19029)
(-3.24102 -8.6543 -1.97919)
(3.01182 -4.52803 -4.70438)
(-14.3118 -4.10476 9.42462)
(-19.0935 -4.52862 11.4247)