/*--------------------------------*- C++ -*----------------------------------*\
  =========                 |
  \\      /  F ield         | OpenFOAM: The Open Source CFD Toolbox
   \\    /   O peration     | Website:  https://openfoam.org
    \\  /    A nd           | Version:  7
     \\/     M anipulation  |
\*---------------------------------------------------------------------------*/
FoamFile
{
    version     2.0;
    format      ascii;
    class       scalarField;
    location    "0.7/lagrangian/reactingCloud1";
    object      yH2O;
}
// * * * * * * * * * * * * * * * * * * * * * * * * * * * * * * * * * * * * * //


2444
(
0.022
0.022
0.022
0.022
0.022
0.022
0.022
0.022
0.022
0.022
0.022
0.022
0.022
0.022
0.022
0.022
0.022
0.022
0.022
0.022
0.022
0.022
0.022
0.022
0.022
0.022
0.022
0.022
0.022
0.022
0.022
0.022
0.022
0.022
0.022
0.022
0.022
0.022
0.022
0.022
0.022
0.022
0.022
0.022
0.022
0.022
0.022
0.022
0.022
0.022
0.022
0.022
0.022
0.022
0.022
0.022
0.022
0.022
0.022
0.022
0.022
0.022
0.022
0.022
0.022
0.022
0.022
0.022
0.022
0.022
0.022
0.022
0.022
0.022
0.022
0.022
0.022
0.022
0.022
0.022
0.022
0.022
0.022
0.022
0.022
0.022
0.022
0.022
0.022
0.022
0.022
0.022
0.022
0.022
0.022
0.022
0.022
0.022
0.022
0.022
0.022
0.022
0.022
0.022
0.022
0.022
0.022
0.022
0.0102442
0.022
0.0219997
0.021151
0.022
0.022
0.022
0.022
0.022
0.022
0.022
0.022
0.022
0.022
0.022
0.022
0.022
0.022
0.022
0.022
0.022
0.022
0.022
0.022
0.0198303
0.022
0.022
0.0204223
0.022
0.022
0.0218255
0.022
0.022
0.0219591
0.022
0.0219881
0.0153006
0.0219935
0.022
0.0168848
0.022
0.022
0.0219985
0.022
0.022
0.0216923
0.01755
0.022
0.0176251
0.022
0.019262
0.0219997
0.022
0.0219996
0.022
0.0219987
0.0022493
0.0219923
0.0219998
0.0219997
0.022
0.0219619
0.022
0.017603
0.0216111
0.0219998
0.022
0.0200635
0.022
0.022
0.0198091
0.021965
0.00948331
0.00863892
0.022
0.0179726
0.019574
0.0214
0.0219964
0.0206236
0.0104946
0.0218226
0.0219826
0.022
0.0219912
0.0195838
0.022
0.0218883
0.0125698
0.0164883
0.0219772
0.0219995
0.022
0.0218052
0.0219996
0.022
0.0219994
0.022
0.022
0.022
0.0141839
0.022
0.0219154
0.022
5.77818e-05
0.0138345
0.00578285
0.000174478
0.021928
0.0219982
0.0219708
0.0212531
0.0219994
0.0116896
0.0198161
0.0175098
0.0219999
0.022
0.0170264
0.0218148
0.022
0.0191737
0.0218444
0.0200809
0.0206422
0.0184021
0.0218244
0.0219963
0.0219997
0.0219985
0.00622872
0.0219998
0.0219975
0.0219922
0.00854112
0.0219981
0.0219261
0.017154
0.021995
0.0219987
0.0219299
0.0219999
0.022
0.022
0.022
0.022
0.022
0.00882871
0.0119473
0.0120466
0.0219966
0.0219603
0.0216988
0.0135481
0.0214689
0.0169605
0.0113862
0.0151919
0.0219993
0.021997
0.019566
0.020449
0.0219998
0.022
0.0202292
0.0175275
0.0145693
0.00861762
0.0219895
0.021968
0.0219969
0.0163456
0.0168686
0.0219953
0.0149985
0.0205895
0.021365
0.0145342
0.021995
0.00441204
0.0218684
0.0157661
0.00984186
0.0190404
0.0174126
0.0219465
0.0137622
0.0126981
0.0219964
0.0139453
0.0219971
0.0211264
0.0146525
0.0117414
0.0111969
0.020902
0.0177618
0.0217269
0.0217522
0.0219957
0.0167396
0.0219374
0.0219977
0.0219977
0.0219998
0.021999
0.0219998
0.0219988
0.0219998
0.0219992
0.0219992
0.0219996
0.0219987
0.0219984
0.0106892
0.0149702
0.0105868
0.0213592
0.0206751
0.00987166
0.0148279
0.0155558
0.0138107
0.0174005
0.0160813
0.0128477
0.000448866
0.0219653
0.0136383
0.0219182
0.000471983
0.0219796
0.00982811
0.0219991
0.014722
0.0219976
0.00536799
0.0211043
0.0187275
0.013378
0.00691101
0.0160418
0.0219983
0.0153312
0.00997042
0.0169226
0.021998
0.0185294
0.000332477
0.0218815
0.0142893
0.0219988
0.0219753
0.011987
0.0191328
0.0219149
0.0207293
0.00579619
0.0177956
0.012539
0.0209093
0.0212642
0.0219958
0.0218246
0.000605159
0.0119298
0.01614
0.0219929
0.00866459
0.0219876
0.0213722
0.0219509
0.0213722
0.0209072
0.0142228
0.0219991
0.0108488
0.0213452
0.0219988
0.0214715
0.0219932
0.0167742
0.0219939
0.0105327
0.00749403
0.0219995
0.0204313
0.0219697
0.0219587
0.0219375
0.0219542
0.0219587
0.0219145
0.0219837
0.0219542
0.0219868
0.0219868
0.0219904
0.0219868
0.0219042
0.0219922
0.021982
0.0219922
0.0219697
0.0219914
0.0219306
0.0219937
0.0219904
0.021995
0.0219145
0.0219914
0.0219968
0.0219922
0.0219042
0.0219974
0.0219974
0.00049243
0.0034276
0.00069336
0.00773566
0.0170731
0.00282521
0.0029479
0.0102877
0.000771618
0.0202482
0.0182817
0.0164409
0.0107694
0.011807
0.0170916
0.0137338
0.0042859
0.0130888
0.0152491
0.0214445
0.0175265
0.00796566
0.00273452
0.0161076
0.0191498
0.0140291
0.000927361
0.0218157
0.0142198
0.0219564
0.00153115
0.0130958
0.0121146
0.000404757
0.0202852
0.0109728
0.0199806
0.0171346
0.0034929
0.010724
0.0204742
0.0160886
0.015425
0.0118719
0.0170883
0.0109548
0.00108918
0.0120287
0.0133582
0.0071564
0.0219143
0.0183829
0.001366
0.0102406
0.0165356
0.0178948
0.0217918
0.0182355
0.0168744
0.00034762
0.0218624
0.00520755
0.0167994
0.0138958
0.0142349
0.000194473
0.00053218
0.0185546
0.0175912
0.013772
0.0012561
0.0219754
0.0217893
0.0218475
0.000304926
0.0125984
0.0167915
0.0211618
0.0129437
0.0129437
0.0143296
0.0219898
0.0219971
0.010984
0.0219929
0.00958633
0.00541788
0.0201726
0.0151773
0.0179818
0.0193039
0.0188795
0.0204058
0.0204058
0.0120373
0.0131375
0.0165878
0.0179818
0.0170533
0.0206973
0.01353
0.01353
0.0204058
0.01353
0.0214519
0.0156692
0.0123911
0.0147812
0.0123911
0.0216407
0.019704
0.0216407
0.0131375
0.0156692
0.019704
0.0216407
0.0127578
0.0127578
0.0193039
0.0147812
0.0206973
0.0200732
0.0211516
0.019704
0.0215574
0.0127578
0.021759
0.0193039
0.0188795
0.0170533
0.0200732
0.021801
0.0161256
0.0139352
0.021801
0.01353
0.0175192
0.019704
0.0120373
0.0184369
0.01353
0.0120373
0.0193039
0.0218327
0.0218327
0.0193039
0.0120373
0.0217066
0.0156692
0.0218571
0.0147812
0.0209456
0.0218571
0.0184369
0.0147812
0.0170533
0.0213186
0.019704
0.01353
0.0204058
0.0218763
0.0165878
0.0218763
0.0218763
0.021801
0.0127578
0.0218763
0.00194198
0.00429806
0.00325335
0.00267993
0.0023868
0.00922626
0.00423415
0.00539056
0.00714438
0.00579989
0.00687861
0.00691816
0.0111878
0.000530875
0.00978819
0.00959814
0.0120276
0.0218917
0.0101059
0.0114544
0.00717621
0.0125727
0.0081182
0.00398844
0.00719335
0.0130205
0.00291197
0.00930234
0.00538146
0.00178971
0.0100102
0.00760702
0.0121685
0.0136026
0.0139202
0.00518812
0.00611508
0.00954445
0.0105528
3.43565e-05
0.00380039
0.00890573
0.0102714
0.00612309
0.00560581
0.0118038
0.00380247
0.0108369
0.0154055
0.0026331
0.0127481
0.00850653
0.00480339
0.0119793
0.00306436
0.00595647
0.012982
0.000842605
0.00428836
0.019704
0.00692891
0.00259789
0.0089495
0.0131836
0.0137214
0.00917064
0.00266603
0.0100887
0.0053475
0.00990242
0.0144448
0.00932056
0.0152774
0.0103391
0.00885285
0.0105993
0.00308719
0.00478671
0.0108628
0.0150843
0.0194518
0.0103736
0.0207075
0.00420623
0.0140877
0.0128968
0.00466162
0.00946335
0.00730886
0.0139934
0.00761488
0.0155355
0.0123908
0.00746691
0.0173441
0.0160722
0.0023157
0.0119798
0.0131749
0.00723787
0.00931558
0.00299157
0.00958433
0.0117279
0.0214979
0.00944043
0.00848694
0.000259095
0.00197739
0.00027098
0.0120513
0.0161473
0.0184051
0.0128182
0.013445
0.00665069
0.012507
0.00849857
0.00598589
0.00610353
0.00828639
0.00675786
0.0066175
0.00870396
0.0064821
0.00870396
0.00535757
0.00610353
0.00721106
0.00576232
0.00892539
0.00535757
0.00526437
0.00892539
0.0064821
0.0066175
0.0066175
0.00565606
0.00892539
0.00849108
0.00771794
0.00828639
0.00870396
0.00565606
0.0058722
0.00610353
0.00635145
0.00635145
0.00754255
0.00705439
0.0058722
0.00705439
0.00939547
0.00545383
0.00849108
0.00690341
0.00870396
0.00526437
0.00635145
0.00526437
0.00939547
0.0066175
0.0058722
0.00598589
0.00771794
0.0058722
0.00939547
0.00622532
0.00915577
0.00721106
0.00808953
0.00705439
0.00545383
0.00526437
0.0064821
0.00771794
0.00610353
0.0096449
0.00721106
0.00828639
0.00598589
0.00545383
0.00622532
0.00675786
0.00790016
0.00635145
0.00535757
0.00754255
0.00754255
0.00598589
0.0064821
0.00737369
0.00690341
0.0064821
0.00754255
0.00915577
0.00771794
0.00849108
0.0096449
0.00705439
0.00808953
0.00990445
0.00754255
0.00870396
0.00892539
0.0058722
0.00622532
0.00990445
0.00790016
0.00576232
0.00545383
0.00535757
0.00754255
0.00737369
0.0064821
0.00705439
0.0058722
0.00915577
0.0066175
0.00870396
0.00610353
0.0066175
0.0101745
0.00635145
0.00870396
0.0101745
0.0101745
0.00828639
0.00808953
0.00870396
0.00771794
0.00545383
0.0101745
0.0101745
0.00526437
0.00990445
0.00555328
0.0101745
0.00535757
0.00849108
0.00737369
0.00598589
0.00545383
0.00622532
0.00622532
0.0066175
0.00915577
0.00690341
0.00721106
0.00565606
0.00892539
0.0101745
0.00721106
0.0104555
0.00526437
0.0096449
0.00870396
0.00555328
0.00915577
0.0058722
0.00828639
0.0107479
0.0104555
0.0104555
0.0058722
0.00915577
0.00771794
0.00545383
0.00535757
0.00808953
0.00598589
0.0101745
0.0107479
0.00915577
0.00690341
0.0110519
0.00555328
0.00737369
0.00754255
0.0096449
0.00622532
0.0110519
0.00892539
0.00576232
0.0110519
0.0110519
0.00808953
0.00754255
0.00598589
0.00690341
0.0110519
0.0096449
0.00754255
0.0110519
0.00870396
0.0110519
0.0058722
0.00990445
0.00690341
0.00675786
0.00754255
0.00771794
0.00622532
0.0058722
0.00690341
0.0066175
0.00754255
0.0104555
0.00754255
0.00939547
0.00990445
0.00635145
0.00526437
0.00849108
0.0113679
0.00990445
0.0113679
0.00555328
0.00737369
0.0101745
0.00555328
0.00754255
0.00828639
0.0064821
0.00526437
0.0116963
0.0116963
0.00555328
0.00576232
0.0066175
2.76923e-05
0.00675786
0.000478982
0.00151241
0.0116963
0.0018089
0.0116963
0.00167016
0.00193136
0.00186766
0.00267071
0.000948537
0.0035551
0.00423238
0.00490646
0.00433892
0.00501492
0.00490646
0.00518625
0.00453646
0.00504473
0.00496179
0.0038213
0.00413281
0.00209373
0.00408521
0.00441339
0.00363123
0.00327671
0.00586754
0.00507189
0.000955741
0.0045285
0.0110519
0.0054133
0.00327979
0.00578046
0.00498543
0.00415881
0.00425617
0.00308139
0.00540697
0.00584841
0.0061033
0.00109074
0.0064821
0.00353706
0.00586991
0.00578115
0.00563472
0.00643882
0.000929211
0.00403781
0.0062411
0.00522338
0.00457942
0.00652324
0.00165982
0.00583395
0.00667564
0.000890912
0.00702902
0.00589911
0.00571054
0.005734
0.00526405
0.00631206
0.00700209
0.00599664
0.00637276
0.00623015
0.00704365
0.00752466
0.0037853
0.00404707
0.00540494
0.0038744
0.00533014
0.00781469
0.00563019
0.00755581
0.0045707
0.00509179
0.00798866
0.00692859
0.00675447
0.00761489
0.00675447
0.00822883
0.0039223
0.00406316
0.00279809
0.00803789
0.00637672
0.00807952
0.00515065
0.00848736
0.0032824
0.00438813
0.00794869
0.00184024
0.00559115
0.00764835
0.00612216
0.00905138
0.00738748
0.00771403
0.00780283
0.00910612
0.00273498
0.00848882
0.00939207
0.00659787
0.0035216
0.00915021
0.00988657
0.00509351
0.0101745
0.00776572
0.00999136
0.00723014
0.0101685
0.00878315
0.00835129
0.00779861
0.00802136
0.00735102
0.0029764
0.0096083
0.00840492
0.00339146
0.0116963
0.00242051
0.00676318
0.00991163
0.00586143
0.00503352
0.0068803
0.00936186
0.00219046
0.00823168
0.0101555
0.00936186
0.0102949
0.00338808
0.0038853
0.00383459
0.00338808
0.00323255
0.00368994
0.00378517
0.0042197
0.00404572
0.00447552
0.00447552
0.0035991
0.00454419
0.00342866
0.00364401
0.0042197
0.00378517
0.00434398
0.00393735
0.0041601
0.00351215
0.00338808
0.00440881
0.00355517
0.00383459
0.00327049
0.0042197
0.00410213
0.00364401
0.00364401
0.00355517
0.00338808
0.00368994
0.00404572
0.0038853
0.0041601
0.00383459
0.00393735
0.00410213
0.00347
0.00373697
0.00399081
0.00373697
0.00447552
0.00323255
0.00410213
0.0033166
0.00355517
0.0038853
0.00327049
0.00351215
0.0046877
0.0046877
0.00351215
0.00373697
0.00447552
0.00476272
0.00364401
0.00355517
0.00373697
0.00383459
0.0042197
0.00355517
0.0035991
0.0041601
0.00461489
0.00338808
0.00454419
0.00355517
0.00440881
0.00461489
0.00327049
0.00404572
0.00323255
0.00410213
0.00447552
0.00410213
0.00447552
0.00476272
0.0046877
0.00393735
0.0041601
0.00476272
0.00330904
0.00351215
0.00383459
0.0035991
0.0041601
0.00484002
0.00368994
0.00404572
0.0041601
0.00399081
0.00351215
0.00410213
0.00447552
0.00447552
0.00440881
0.00484002
0.0038853
0.00327049
0.00393735
0.00399081
0.00454419
0.00447552
0.00373697
0.0042197
0.00491971
0.00355517
0.00440881
0.00410213
0.00491971
0.00484002
0.00461489
0.0046877
0.0035991
0.00476272
0.00383459
0.00323255
0.00491971
0.00393735
0.0035991
0.00491971
0.00351215
0.00484002
0.00347
0.00347
0.00373697
0.00334822
0.00368994
0.00454419
0.00330904
0.00399081
0.00355517
0.00383459
0.00378517
0.0046877
0.00454419
0.00404572
0.00440881
0.00327049
0.00368994
0.00500189
0.00428097
0.00323255
0.00500189
0.00508665
0.00508665
0.00508665
0.00434398
0.00373697
0.00368994
0.00355517
0.00334822
0.00355517
0.00399081
0.00393735
0.0041601
0.00398463
0.00508665
0.00508665
0.00428097
0.00447552
0.00508665
0.00461489
0.00373697
0.0035991
0.00410213
0.00330904
0.00508665
0.0051741
0.00323255
0.00364401
0.00440881
0.0038853
0.00491971
0.00428097
0.00347
0.00355517
0.00476272
0.0038853
0.0038853
0.0035991
0.00491971
0.00215442
2.4591e-05
0.00224113
0.00277629
0.00205662
0.00283645
0.00399081
0.00281198
0.00491971
0.000685758
0.00440881
0.00286012
0.00293674
0.00322728
0.00235074
0.00324732
0.00282959
0.00291463
0.00318325
0.00249697
0.00226282
0.00274571
0.0031167
0.00132622
0.00249295
0.00284431
0.0051741
0.00122979
0.00193839
0.00156193
0.0025933
0.00133976
0.00330885
0.00337639
0.00341711
0.00335678
0.00303851
0.00334532
0.0035524
0.00283137
0.00342655
0.0051741
0.00247534
0.00299975
0.0029679
0.00329121
0.00348389
0.00292708
0.00305666
0.00362153
0.00288572
0.00364107
0.00330133
0.00333345
0.00214236
0.00271339
0.0051741
0.00368994
0.00366534
0.00323992
0.00367365
0.0032838
0.00148156
0.00239681
0.00370777
0.00364966
0.00376051
0.00355276
0.00252326
0.000730141
0.0034307
0.00379057
0.00217883
0.00205909
0.00375319
0.00325282
0.00350821
0.00371603
0.00262301
0.0039068
0.00346488
0.00145756
0.00397335
0.00399555
0.00376482
0.00356811
0.00403219
0.00392529
0.00253196
0.000914686
0.00304757
0.00406545
0.00369544
0.00274889
0.00415604
0.00412215
0.00412215
0.00383843
0.00265711
0.00419395
0.00371411
0.000568908
0.00162658
0.00416923
0.00345922
0.00337845
0.0042803
0.0014414
0.00426023
0.00433638
0.0018469
0.00432789
0.00344064
0.0033848
0.000904056
0.00303587
0.00431423
0.00430189
0.00442115
0.00232988
0.00444241
0.00364881
0.00422907
0.00459621
0.00433874
0.00418134
0.00375156
0.00431147
0.00444223
0.00113681
0.00467853
0.00431147
0.00468687
0.00471945
0.00119189
0.00410235
0.00474834
0.0046017
0.00476272
0.00418542
0.00442002
0.00445974
0.00303697
0.00417829
0.00478031
0.00199607
0.00224168
0.00313085
0.00353086
0.00426516
0.00406525
0.00214777
0.00500091
0.00102498
0.00476009
0.00471347
0.000457745
0.00398091
0.00497757
0.0037146
0.00513165
0.00344555
0.00506775
0.00302747
0.00250142
0.00275034
0.00216795
0.00268692
0.00225799
0.00234908
0.00281482
0.00294748
0.00250142
0.00225799
0.00244043
0.00244043
0.00271851
0.00294748
0.00259346
0.00281482
0.00231866
0.00247091
0.00228828
0.00265556
0.00231866
0.00210909
0.00225799
0.00250142
0.00222781
0.00247091
0.00234908
0.0028475
0.0029138
0.00216795
0.00250142
0.0029138
0.00210909
0.00259346
0.00288048
0.00213837
0.00240997
0.00256266
0.00278245
0.00219778
0.0029138
0.00262441
0.00250142
0.00301599
0.00294748
0.00288048
0.00210909
0.00234908
0.00244043
0.00210909
0.00216795
0.00253199
0.0028475
0.00225799
0.00275034
0.00305088
0.0029138
0.00247091
0.00244043
0.00278245
0.00210909
0.00210909
0.00234908
0.00247091
0.00222781
0.00294748
0.0029138
0.00281482
0.00268692
0.00247091
0.00288048
0.00228828
0.00225799
0.00278245
0.00262441
0.00234908
0.00275034
0.00256266
0.00262441
0.00219778
0.00301599
0.00275034
0.0029138
0.00268692
0.00237952
0.00222781
0.00305088
0.00259346
0.00253199
0.00210909
0.00308622
0.00213824
0.00305088
0.00294748
0.00259346
0.00281482
0.00256266
0.00278245
0.00265556
0.0028475
0.00225799
0.00253199
0.00259346
0.0029138
0.00262441
0.00219778
0.0029138
0.00308622
0.00294748
0.00305088
0.00253199
0.0029138
0.0029138
0.00275034
0.00219778
0.00265556
0.00308622
0.00210909
0.00210909
0.00308622
0.00288048
0.00237952
0.00278245
0.00228828
0.00222781
0.00234908
0.00268692
0.00259346
0.00275034
0.00312203
0.00271851
0.00213837
0.00225799
0.00225799
0.00308622
0.00213837
0.00253199
0.00275034
0.00253199
0.00278245
0.00256266
0.00298153
0.00231866
0.00265556
0.0029138
0.00281482
0.00216795
0.00281482
0.00312203
0.0029138
0.00231866
0.0029138
0.00256266
0.00237952
0.00301599
0.00234908
0.00247091
0.00315834
0.00225799
0.00312203
0.00222781
0.00294748
0.00253199
0.00244043
0.00268692
0.00294748
0.00315834
0.00294748
0.00228828
0.00237952
0.00259346
0.00271851
0.00288048
0.00250142
0.00225799
0.00315834
0.00275034
0.0029138
0.00231866
0.00262441
0.00244043
0.00253199
0.00225799
0.00281482
0.00275034
0.00319517
0.00301599
0.00268692
0.00240997
0.00231866
0.00228828
2.4591e-05
0.0029138
0.00275034
0.00265556
0.00244043
0.00319517
0.00278245
0.000345528
0.00315834
0.00319517
0.00104468
0.00319517
0.00262441
0.00161674
0.00138612
0.00143314
0.00095997
0.0014528
0.00101964
0.00183435
0.00199857
0.00209105
0.00069684
0.00193388
0.00192866
0.00199052
0.0021355
0.00205018
0.00177747
0.000908362
0.00194302
0.000761576
0.0021411
0.00184739
0.00190113
0.00209778
0.0021623
0.000948251
0.0021631
0.0021631
0.00222556
0.00189547
0.00160086
0.00189547
0.00187766
0.00209096
0.00213465
0.00225097
0.00222539
0.00223929
0.00176254
0.00218212
0.00225799
0.00161088
0.00225784
0.00215161
0.00228828
0.00201866
0.00214259
0.00211241
0.00175793
0.00211982
0.0018355
0.00215929
0.00207206
0.00213677
0.00115676
0.00209886
0.00202204
0.00228983
0.00160007
0.00237318
0.00200325
0.00176979
0.00181397
0.00176077
0.00138739
0.00131273
0.00200197
0.00119314
0.00201229
0.00237569
0.00246398
0.00178356
0.00226451
0.00232613
0.0019557
0.00301599
0.00227917
0.000175698
0.000929445
0.00221577
0.00211289
0.000496047
0.00197756
0.00183523
0.00204161
0.00228218
0.00245588
0.00246391
0.00249726
0.00243809
0.00237914
0.000910346
0.0025185
0.00139518
0.00249428
0.00281482
0.000159849
0.00166021
0.00224354
0.00240739
0.00252464
0.00166021
0.00256266
0.00152728
0.00239086
0.00255657
0.000854288
0.00256406
0.00161928
0.00255657
0.00319517
0.0022147
0.000945581
0.00207432
0.00206614
0.000990144
0.00156582
0.00191198
0.00175304
0.00261437
0.000958153
0.00265214
0.00240417
0.0026404
0.00268458
0.00266213
0.0021245
0.000253909
0.00263281
0.00172488
0.00268771
0.00151381
0.00275034
0.00156099
0.00274661
0.00319517
0.00268771
0.00199095
0.00266406
0.00101059
0.00105384
0.00275902
0.00246965
0.00178506
0.00319517
0.00248064
0.00275422
0.00155625
0.00186835
0.00197678
0.00248203
0.00253774
0.00281891
0.00234226
0.000793278
0.00276696
0.00282758
0.00265285
0.00279093
0.00250523
0.000584613
0.000622948
0.00275869
0.00294748
0.00243015
0.00237315
0.00292787
0.00290228
0.00258864
0.00231746
0.00289145
0.0027234
0.00246508
0.00294952
0.00241181
0.00228824
0.00142171
0.00232101
0.00201983
0.00319517
0.00232176
0.00307573
0.0029381
0.00261167
0.00120701
0.00211702
0.00310972
0.00251852
0.00240517
0.00169273
0.0026957
0.00311627
0.0018136
0.00288831
0.00126692
0.00244198
0.00157721
0.00239002
0.0030009
0.000790028
0.00180566
0.00144904
0.00144904
0.00187141
0.00155709
0.00187141
0.00174439
0.0018488
0.00155709
0.00142819
0.0018488
0.00132477
0.00157883
0.00151339
0.00130099
0.00149168
0.00132477
0.0018948
0.00168395
0.00196992
0.00168395
0.00151339
0.00149168
0.00172433
0.00134672
0.00149168
0.00176454
0.00130099
0.00147021
0.00170422
0.00160037
0.00168395
0.00134672
0.00155709
0.00187141
0.00194407
0.00132477
0.00132477
0.00157883
0.00151339
0.00134672
0.00140769
0.00142819
0.0018488
0.00130099
0.00194407
0.00130099
0.00187141
0.00155709
0.00157883
0.00191902
0.00153524
0.00147021
0.00142819
0.00191902
0.00166347
0.0018948
0.00164271
0.00182691
0.00163645
0.00178492
0.00174439
0.00160037
0.00157883
0.00164271
0.00168395
0.00182691
0.00130099
0.00132477
0.00191902
0.00176454
0.00144904
0.00172433
0.00151339
0.00134672
0.00157883
0.00147021
0.00142819
0.00202383
0.0018948
0.00162167
0.00194407
0.00174439
0.00140769
0.00140769
0.00199653
0.00130099
0.00157883
0.00196992
0.00164271
0.00174439
0.00144904
0.00160037
0.00149168
0.00202383
0.00132477
0.00134672
0.00174439
0.00182691
0.0018488
0.00166347
0.00194407
0.00149168
0.00170422
0.00164271
0.00136735
0.00155709
0.00136735
0.00180566
0.00142819
0.00144904
0.00172433
0.00136735
0.00155709
0.00172433
0.00187141
0.00138749
0.00178492
0.00205174
0.00180566
0.00155709
0.00134672
0.00130099
0.00176454
0.00182691
0.0018948
0.00155709
0.00134672
0.00187141
0.00132477
0.00149168
0.00147021
0.00180566
0.00199653
0.00155709
0.00140769
0.00178492
0.00205174
0.00170422
0.00174439
0.00140769
0.00160037
0.00151339
0.0018488
0.00194407
0.00160037
0.00130099
0.0018488
0.00160037
0.00170422
0.00196992
0.00205174
0.00172433
0.00130099
0.00160037
0.00138749
0.00153524
0.00138749
0.00178492
0.00191902
0.00166347
0.00205174
0.00147021
0.0018948
0.00205174
0.00149168
0.00172433
0.00176454
0.00172433
0.00160037
0.00153524
0.0018488
0.00160037
0.00174439
0.00157883
0.00144904
0.00205174
0.00170422
0.00178492
0.00191902
0.00132477
0.00162167
0.00138749
0.00202383
0.00130099
0.00149168
0.00142819
0.00140769
0.00170422
0.00208019
0.00172433
0.00170422
0.00178492
0.0018948
0.000463873
0.00172433
0.000407955
0.00151339
2.48633e-05
0.000681403
0.00138749
0.00149168
2.61286e-05
0.00134672
0.000708873
0.00114732
0.00121015
0.000695095
0.000211352
2.46601e-05
0.000346368
0.00108152
0.00108319
0.000394185
0.00110776
0.00075735
0.00121516
0.00129409
0.000245513
0.000987956
0.00129954
0.00104661
0.000989556
0.00121764
0.00128987
0.00132465
0.000600023
0.00132415
0.00129481
0.00119751
0.00130552
0.0012973
0.000900728
0.00131425
0.00115572
0.00126663
0.00130293
0.0012823
0.00111123
0.00127675
2.47589e-05
0.00134672
0.00110756
0.0012275
0.00134659
0.000557191
0.00103097
0.00108807
0.00134015
0.00121851
0.0010435
0.000609783
0.00129311
0.0013136
0.00111657
0.00132554
0.000810267
0.00122859
0.00135803
0.00142819
0.00107151
0.00178492
0.000965974
0.00121224
0.00131818
2.45927e-05
0.000633808
0.00136722
0.00208019
0.00119149
0.00114102
0.000645459
0.00127855
0.000770871
0.00125902
0.00113139
0.00101114
0.00106064
0.000959883
0.00140636
0.00105272
0.00178492
0.0014027
0.000967568
0.00132572
0.00137483
0.00144904
0.00140755
0.00135731
0.00140042
0.00136545
0.00138428
0.00136348
0.00133413
0.0012236
0.00135941
0.0018488
0.00131278
0.000862518
0.000427557
0.00132726
0.00140769
0.00140455
0.000479667
0.000756755
0.00132252
0.00138849
0.00137615
0.00142819
0.00140401
0.000179692
0.000398628
0.00202383
0.000925629
0.00142068
0.00144904
0.000371516
0.00144213
0.00126535
0.00142152
0.00142993
0.00151339
0.00140994
0.000824875
0.00119185
0.00109625
0.00102073
9.36815e-05
0.0014489
0.00141374
0.000850444
0.00208019
0.00104635
0.000727886
0.00132187
0.00178492
0.00147021
0.00128431
0.00146022
0.00133937
0.00081598
0.00146674
0.00140974
0.000836814
0.00130756
0.00170422
0.0014639
0.00133937
0.00139168
0.00118951
0.00107921
0.0018948
0.00135271
0.000802595
0.000669542
0.00148809
0.00142398
0.00139877
0.000887005
0.00149163
0.00138959
0.00131152
0.00052707
0.00148734
0.00133458
0.000928338
0.00162167
0.00132319
0.00043282
0.00118203
0.00149368
0.00134327
0.00109508
0.00107921
0.000215442
0.00110439
0.00131908
0.00116805
0.00144533
0.00130853
0.00149889
0.00109898
0.0012188
0.00149858
0.00130853
0.00143913
0.000987041
0.00160037
0.000890942
0.00133466
0.00151302
0.00155238
0.00187141
0.00140544
0.00128127
0.00107433
0.0015102
0.00155649
0.0015554
0.001536
0.00139173
0.00154563
0.00126114
0.00129517
0.00100438
0.00134697
0.00205174
0.00033516
0.00208019
0.0015754
0.00122582
0.00155703
0.00156444
0.00126866
0.0015754
0.00157315
0.00104157
0.00136077
2.4591e-05
0.00107046
0.00157134
0.00191902
0.00137868
0.0015795
0.00159903
0.00151116
0.000409467
0.00142475
0.00121586
0.00158024
0.00153612
0.00104027
0.00138017
0.00161149
0.00106543
0.000146367
0.00149397
0.00142267
0.00127071
0.00123725
0.000348264
0.00162686
0.00115206
0.00162046
0.00130948
0.00164079
0.00110287
0.0015408
0.000865656
0.00129839
0.001365
0.00152632
0.00112043
0.00159782
0.0015584
0.00164265
0.00150262
0.00126602
0.00116628
0.00164798
0.00104288
0.00103611
0.00143088
0.00178492
0.00122297
0.00102213
0.00156438
0.00156422
0.00150468
0.0018948
0.00126602
0.00161108
0.00127476
0.00166476
0.000887632
2.45921e-05
0.00166712
0.00156013
0.00101819
0.00165985
0.00169071
0.0014384
0.00158458
0.0017227
0.0014384
0.000572678
0.00172215
0.00141116
0.000263144
0.00173812
0.00154262
0.00168364
0.00112508
0.0013209
0.00164165
0.00155325
0.00171839
0.00176454
0.000866846
0.00128458
0.00111577
0.00173707
0.00116394
0.00112959
2.4591e-05
0.00173707
0.00202383
0.00162586
0.00123115
0.00156799
0.00176454
0.00176081
0.00104098
0.00151623
0.00178253
0.000495589
2.4591e-05
0.00191902
0.00108718
0.00164118
0.00176696
0.00174799
0.00160227
0.00167569
0.00141871
0.00134683
0.00100367
0.00138233
0.00182691
0.0015611
0.00177004
0.00170117
0.000725456
2.4591e-05
0.00146745
0.0018008
0.00138438
0.00177633
0.00180585
0.00179737
0.00123392
0.00177333
0.00196992
0.00180386
0.00177025
0.00179962
0.00155984
0.0016652
0.00100453
0.000906143
0.00144926
2.4591e-05
0.00179653
0.00184888
0.00118637
0.000977632
0.0014215
0.00163632
0.00178552
0.00104801
0.000870921
0.00139504
0.00186113
0.00156183
0.00150153
0.00186377
0.00188265
0.00188558
0.00184212
0.00161223
0.00117901
0.00189421
0.00100645
0.00180069
0.00183535
0.00184696
0.00183931
0.00123969
0.00081746
0.00194245
0.00189103
0.0019418
0.00189744
0.00178613
0.0017107
0.0019369
0.00174105
0.000967666
0.00130266
0.00190061
0.00140745
0.000785585
0.000428013
0.00193252
7.3479e-05
0.00172067
0.00139265
0.00157445
0.0019941
0.000652423
0.0017799
0.00163337
0.00196465
0.00157445
0.001141
0.00189034
0.00172751
0.000989315
0.00195612
0.0019756
0.00202348
0.000957242
0.00197887
0.000643831
0.0019414
0.00189398
0.00165802
0.00171765
0.00139457
0.00153025
0.00165034
0.00179357
0.00207982
0.00191875
0.00179202
0.00184189
0.0013149
0.00192461
)


// ************************************************************************* //
