/*--------------------------------*- C++ -*----------------------------------*\
  =========                 |
  \\      /  F ield         | OpenFOAM: The Open Source CFD Toolbox
   \\    /   O peration     | Website:  https://openfoam.org
    \\  /    A nd           | Version:  7
     \\/     M anipulation  |
\*---------------------------------------------------------------------------*/
FoamFile
{
    version     2.0;
    format      ascii;
    class       scalarField;
    location    "0.1325/lagrangian/reactingCloud1";
    object      age;
}
// * * * * * * * * * * * * * * * * * * * * * * * * * * * * * * * * * * * * * //


1190
(
0.006605
0.006821
0.006413
0.006557
0.006869
0.006293
0.006269
0.006989
0.006365
0.006197
0.007181
0.006509
0.006221
0.006701
0.007493
0.006173
0.006053
0.006245
0.006485
0.006389
0.005933
0.006029
0.006437
0.006149
0.005837
0.006125
0.005789
0.005765
0.005861
0.005957
0.005741
0.00578863
0.006101
0.006461
0.006077
0.005669
0.005909
0.005573
0.00590863
0.005717
0.005501
0.005693
0.005453
0.005597
0.005429
0.005333
0.005621
0.006317
0.005381
0.005981
0.00550063
0.005357
0.005213
0.005285
0.007037
0.005309
0.005237
0.005069
0.005261
0.005045
0.005165
0.004949
0.010109
0.004997
0.005405
0.004973
0.005021
0.004901
0.001757
0.001661
0.001565
0.001541
0.001517
0.001493
0.001469
0.001445
0.001421
0.001397
0.001373
0.001349
0.001325
0.001301
0.001277
0.001253
0.001229
0.001205
0.001181
0.001157
0.001133
0.001109
0.001085
0.001061
0.001037
0.001013
0.000989
0.000965
0.000941
0.000917
0.000893
0.000869
0.000845
0.000821
0.000797
0.000773
0.000772625
0.000749
0.000725
0.000701
0.000677
0.000653
0.000629
0.000605
0.000581
0.000557
0.000533
0.000509
0.000485
0.000461
0.000437
0.000413
0.000389
0.000365
0.000341
0.000317
0.000293
0.000269
0.000245
0.000221
0.000220625
0.000197
0.000173
0.000149
0.000125
0.000101
7.7e-05
5.3e-05
2.9e-05
5e-06
0.006005
0.003149
0.002909
0.002885
0.002933
0.002861
0.002813
0.002765
0.002789
0.002741
0.002693
0.002717
0.002645
0.002669
0.002621
0.002573
0.002597
0.002525
0.002549
0.002501
0.002453
0.002477
0.002429
0.002405
0.002381
0.002357
0.002309
0.002333
0.002285
0.002261
0.002213
0.002237
0.002189
0.002165
0.002141
0.002093
0.002117
0.002069
0.003605
0.002045
0.002021
0.001973
0.001997
0.001949
0.001925
0.001877
0.001901
0.001829
0.001853
0.001805
0.001781
0.001733
0.001709
0.001685
0.00170863
0.001637
0.001589
0.001613
0.005477
0.004637
0.004517
0.004301
0.005549
0.004805
0.005189
0.006341
0.003941
0.004109
0.003917
0.004061
0.004253
0.003893
0.003845
0.004085
0.008717
0.003821
0.003749
0.004277
0.003629
0.003989
0.003869
0.004157
0.003677
0.003773
0.003653
0.003557
0.003797
0.003701
0.003533
0.004133
0.003485
0.003461
0.003413
0.003509
0.003965
0.00346063
0.003341
0.003581
0.003365
0.003389
0.003293
0.006677
0.003269
0.003125
0.003245
0.003077
0.003029
0.004325
0.003725
0.003053
0.003197
0.003005
0.003101
0.003221
0.003173
0.003317
0.003437
0.002957
0.002837
0.002981
0.005525
0.005141
0.005885
0.004925
0.007085
0.005813
0.004685
0.004781
0.004829
0.004757
0.005117
0.004565
0.004541
0.004733
0.004877
0.005093
0.004469
0.004709
0.004421
0.004661
0.004589
0.004853
0.004445
0.004493
0.004373
0.004613
0.004205
0.004349
0.004397
0.00708463
0.004181
0.004229
0.005645
0.004037
0.004013
0.014933
0.014837
0.015125
0.015005
0.013853
0.013229
0.013565
0.018461
0.012653
0.013205
0.013037
0.012701
0.012773
0.012221
0.013349
0.012869
0.012101
0.013517
0.012077
0.012749
0.012293
0.012149
0.0122926
0.012485
0.012053
0.011981
0.011885
0.012005
0.011909
0.012029
0.012677
0.012269
0.012245
0.011861
0.012605
0.012989
0.011765
0.011597
0.016421
0.011549
0.011813
0.011573
0.011933
0.011837
0.011789
0.012893
0.011621
0.011453
0.011693
0.011405
0.011477
0.014405
0.011309
0.011381
0.012125
0.0112606
0.012197
0.011285
0.011501
0.011717
0.011957
0.012461
0.011165
0.012365
0.011741
0.011429
0.010997
0.011237
0.013157
0.011261
0.014669
0.011045
0.010973
0.010949
0.011213
0.011669
0.010925
0.0108286
0.010853
0.011117
0.010901
0.010733
0.011333
0.010541
0.0107566
0.010877
0.013901
0.010589
0.010469
0.010613
0.011525
0.010709
0.010637
0.010685
0.010829
0.011021
0.010517
0.010397
0.016445
0.011357
0.010157
0.010133
0.011141
0.010661
0.010205
0.010349
0.010253
0.010781
0.010181
0.010757
0.010373
0.017549
0.011093
0.010805
0.010085
0.009989
0.010013
0.010325
0.010037
0.009821
0.009773
0.009725
0.009701
0.009917
0.009677
0.010229
0.009941
0.009245
0.009629
0.009893
0.010445
0.011189
0.009581
0.010565
0.012845
0.010061
0.009461
0.010421
0.009749
0.010493
0.009485
0.009845
0.009605
0.009533
0.009509
0.009797
0.009365
0.009293
0.009317
0.009341
0.009653
0.00946062
0.011645
0.009389
0.010277
0.009269
0.009965
0.009125
0.009221
0.009101
0.011069
0.009005
0.009053
0.009413
0.009029
0.009149
0.008861
0.009557
0.009173
0.009869
0.008813
0.008789
0.009197
0.008669
0.008957
0.008693
0.009437
0.008621
0.008981
0.008573
0.008549
0.008597
0.008765
0.008501
0.008933
0.008885
0.008525
0.008453
0.008429
0.008477
0.008405
0.008741
0.008309
0.008285
0.008261
0.008381
0.008357
0.008213
0.008837
0.008909
0.008237
0.008189
0.008333
0.008117
0.008141
0.008093
0.008069
0.008045
0.008645
0.008021
0.007973
0.007877
0.007925
0.007901
0.007853
0.007805
0.013373
0.007829
0.007997
0.007949
0.00770862
0.008165
0.007661
0.007637
0.007781
0.007733
0.007565
0.007613
0.007757
0.007469
0.010301
0.007709
0.007685
0.009077
0.007517
0.007541
0.007349
0.007325
0.007229
0.007253
0.007277
0.007445
0.007397
0.007589
0.007421
0.007301
0.007205
0.007157
0.00722863
0.006893
0.007109
0.006917
0.007133
0.006797
0.00682063
0.007013
0.006845
0.006941
0.006773
0.006749
0.006725
0.007061
0.007373
0.006629
0.006581
0.006533
0.006965
0.006653
0.021893
0.019013
0.020285
0.016661
0.015917
0.023453
0.020333
0.020117
0.024293
0.019397
0.019829
0.023069
0.019853
0.019541
0.021605
0.020357
0.022397
0.018893
0.018797
0.018773
0.018845
0.019277
0.018749
0.019589
0.020693
0.019205
0.020549
0.018653
0.018557
0.018485
0.018293
0.018989
0.019613
0.018413
0.019901
0.026645
0.020525
0.018341
0.018101
0.018269
0.018317
0.021725
0.018365
0.017957
0.018437
0.018077
0.018005
0.017885
0.018389
0.021293
0.020093
0.018029
0.018173
0.018509
0.017933
0.017765
0.017741
0.018869
0.018053
0.019709
0.018125
0.017717
0.021149
0.017621
0.018149
0.018245
0.017669
0.018629
0.018821
0.017789
0.019733
0.023093
0.021029
0.018197
0.017477
0.0176686
0.017909
0.017573
0.017405
0.017693
0.017381
0.017357
0.017837
0.017525
0.018941
0.017429
0.019637
0.017213
0.018917
0.022637
0.019037
0.017069
0.017045
0.017189
0.017141
0.017117
0.017501
0.016925
0.019133
0.020717
0.016949
0.016853
0.018581
0.017021
0.018221
0.020453
0.016829
0.016757
0.016877
0.019229
0.016733
0.016613
0.016541
0.016565
0.016781
0.016901
0.016589
0.016517
0.016469
0.018725
0.017309
0.016349
0.018677
0.016277
0.016637
0.016973
0.016301
0.016373
0.017861
0.016253
0.016493
0.018605
0.017453
0.016205
0.016805
0.019085
0.019493
0.016109
0.0161566
0.017237
0.016013
0.019157
0.017285
0.017597
0.015869
0.015797
0.016229
0.015965
0.017813
0.017333
0.015629
0.015677
0.015845
0.015701
0.015461
0.017165
0.015773
0.015653
0.017645
0.015989
0.015389
0.016157
0.016085
0.016037
0.018701
0.015581
0.016397
0.019517
0.015245
0.015413
0.016061
0.015077
0.015533
0.018533
0.014957
0.015053
0.015269
0.016685
0.015149
0.015029
0.015557
0.016133
0.014909
0.014885
0.014861
0.014717
0.014765
0.014645
0.015221
0.014813
0.015101
0.015941
0.014693
0.015725
0.016997
0.014525
0.015893
0.014789
0.014549
0.016181
0.015173
0.014501
0.014453
0.014597
0.017093
0.017981
0.015341
0.014981
0.014333
0.014237
0.014309
0.014429
0.017261
0.014117
0.014141
0.015293
0.014477
0.014357
0.014573
0.016709
0.015317
0.014165
0.015437
0.014093
0.014189
0.013973
0.014069
0.013997
0.014213
0.013877
0.013925
0.0137806
0.014261
0.013781
0.013661
0.013613
0.013757
0.013637
0.014045
0.013589
0.013829
0.013421
0.014741
0.013709
0.013469
0.013685
0.013325
0.013733
0.013253
0.013805
0.013541
0.013397
0.013949
0.013277
0.013133
0.013109
0.013493
0.013085
0.015605
0.012965
0.015509
0.012917
0.014021
0.012941
0.013013
0.013061
0.016325
0.013445
0.015485
0.012629
0.015197
0.015821
0.012557
0.015749
0.012509
0.012725
0.0124126
0.014381
0.012413
0.012437
0.012341
0.012797
0.012389
0.015365
0.012581
0.014285
0.013181
0.012317
0.014621
0.012533
0.012821
0.013301
0.012173
0.029333
0.029837
0.028493
0.029117
0.028469
0.029813
0.027197
0.028901
0.026981
0.026597
0.027269
0.027605
0.026837
0.027245
0.027029
0.027533
0.027077
0.027485
0.026573
0.026333
0.026405
0.028325
0.030413
0.026669
0.027413
0.026621
0.026213
0.026477
0.026045
0.026237
0.026141
0.026069
0.025877
0.025853
0.027365
0.026165
0.026885
0.027677
0.025781
0.026093
0.025757
0.025541
0.025613
0.026765
0.026789
0.027845
0.027557
0.025445
0.027461
0.025589
0.026549
0.026117
0.028997
0.025349
0.025661
0.027437
0.027149
0.027389
0.025205
0.028829
0.032261
0.025133
0.025805
0.025493
0.025685
0.026261
0.029885
0.027941
0.025229
0.025301
0.025469
0.025085
0.025829
0.027173
0.025709
0.025013
0.026189
0.026357
0.025997
0.024701
0.025949
0.024677
0.024965
0.024797
0.025733
0.024989
0.026717
0.024941
0.024773
0.024557
0.025157
0.025253
0.024509
0.027869
0.025325
0.025517
0.026429
0.025037
0.025637
0.025277
0.025565
0.025061
0.024317
0.026309
0.026813
0.024485
0.024149
0.026453
0.027725
0.026525
0.025181
0.024533
0.024413
0.024821
0.024581
0.024173
0.024653
0.024845
0.030965
0.025901
0.024917
0.024725
0.024437
0.024053
0.024101
0.024365
0.025973
0.023693
0.023405
0.026741
0.025421
0.024461
0.023765
0.023381
0.023741
0.023909
0.024605
0.024077
0.025109
0.023429
0.023141
0.025925
0.023333
0.025397
0.023117
0.023573
0.023621
0.024005
0.023717
0.023237
0.022877
0.023981
0.023501
0.023597
0.023213
0.023477
0.023957
0.023189
0.023669
0.0242926
0.027005
0.022925
0.031325
0.0255886
0.022565
0.022709
0.024341
0.024629
0.022805
0.022205
0.023045
0.023309
0.022349
0.022613
0.024221
0.022757
0.023933
0.023837
0.021989
0.0230206
0.022301
0.022781
0.022181
0.023021
0.023549
0.022997
0.022013
0.024749
0.021917
0.024197
0.023525
0.022421
0.024029
0.023165
0.022277
0.023789
0.021821
0.021557
0.024245
0.022133
0.021533
0.023357
0.021461
0.021677
0.021797
0.022445
0.022829
0.021965
0.022541
0.024125
0.022157
0.021365
0.024389
0.022733
0.023261
0.023813
0.021869
0.031013
0.021629
0.021341
0.022661
0.022493
0.021221
0.021653
0.021077
0.028109
0.021389
0.022085
0.021053
0.022973
0.021749
0.021773
0.020933
0.022949
0.022253
0.022469
0.021317
0.021845
0.022325
0.021485
0.021509
0.021125
0.021005
0.020957
0.021269
0.020861
0.020813
0.021941
0.021245
0.020477
0.020429
0.020621
0.020741
0.020381
0.021197
0.021173
0.020885
0.022061
0.022853
0.022037
0.020981
0.020141
0.021701
0.020213
0.020021
0.023285
0.020309
0.021413
0.020261
0.020669
0.021437
0.022109
0.020573
0.019925
0.020597
0.020765
0.021101
0.020909
0.019805
0.022517
0.026285
0.020405
0.020645
0.020789
0.020165
0.022373
0.020045
0.022229
0.020837
0.019781
0.020069
0.019997
0.020237
0.0203806
0.019661
0.022901
0.019445
0.019949
0.024893
0.019349
0.020189
0.019757
0.019973
0.019373
0.019109
0.019181
0.019685
0.022589
0.019421
0.019061
0.019325
0.019877
0.019253
0.019301
0.019469
0.018965
0.019565
0.021581
0.024869
0.031205
0.029789
0.028349
0.027053
0.026021
0.0269806
0.028013
0.023885
0.023645
0.022685
0.025373
0.023861
0.024269
0.020501
0.028205
0.026501
0.026933
)


// ************************************************************************* //
