/*--------------------------------*- C++ -*----------------------------------*\
  =========                 |
  \\      /  F ield         | OpenFOAM: The Open Source CFD Toolbox
   \\    /   O peration     | Website:  https://openfoam.org
    \\  /    A nd           | Version:  7
     \\/     M anipulation  |
\*---------------------------------------------------------------------------*/
FoamFile
{
    version     2.0;
    format      ascii;
    class       labelField;
    location    "0.1325/lagrangian/reactingCloud1";
    object      cellId;
}
// * * * * * * * * * * * * * * * * * * * * * * * * * * * * * * * * * * * * * //


1190
(
90
15
20
19
167
16
51
233
85
82
113
190
152
192
300
151
148
260
223
296
213
252
257
364
324
364
359
359
399
435
395
433
434
508
467
466
465
498
539
536
532
574
568
644
675
672
677
713
709
782
780
778
774
776
815
813
864
888
893
888
950
939
951
1000
978
1000
1029
1053
641
1041
1025
1016
991
985
975
964
932
924
907
520
885
862
842
825
807
804
789
762
747
732
709
688
687
661
643
638
600
602
320
568
541
537
501
482
492
485
465
450
426
408
300
365
363
346
336
310
309
281
263
247
227
230
206
187
164
140
142
132
134
123
80
40
40
68
48
21
24
0
775
976
1038
1018
916
896
1021
1022
837
1001
1006
959
963
940
990
923
817
903
859
883
891
736
821
822
779
802
783
739
785
698
749
720
723
681
681
663
639
667
515
598
600
603
578
584
586
545
517
526
521
508
503
464
464
449
440
408
386
402
440
1023
984
1024
700
948
320
200
992
863
910
741
721
806
787
681
180
705
687
541
696
562
602
180
627
543
587
592
461
463
508
100
447
448
430
405
342
406
437
362
389
305
244
140
224
253
204
236
195
120
141
170
143
152
125
102
103
62
21
24
29
3
0
439
439
490
574
516
537
543
570
625
654
703
730
761
790
761
783
844
808
869
869
979
976
977
1002
1031
1021
382
299
278
283
241
237
250
187
1
21
37
19
15
49
111
152
159
109
240
193
189
148
192
191
146
140
145
400
187
148
190
189
142
189
140
186
190
187
357
183
231
231
270
316
272
225
225
266
315
312
311
354
310
353
350
351
353
309
352
561
346
350
479
347
435
391
437
436
434
391
389
433
431
433
424
428
474
473
686
471
472
470
513
464
464
509
505
552
552
551
679
590
592
634
635
584
587
632
676
634
627
672
671
850
627
670
756
887
705
706
756
708
712
712
710
754
752
923
752
925
794
795
752
749
749
791
792
829
827
869
869
871
868
917
874
864
868
913
916
1012
908
913
914
948
947
955
954
956
950
954
8
9
10
42
20
3
7
21
0
41
22
22
21
20
94
32
35
36
176
56
91
127
88
270
88
272
122
270
123
158
232
152
195
157
194
189
227
190
188
232
264
220
219
264
226
222
220
255
260
369
293
293
327
331
331
324
400
401
364
325
398
362
397
397
396
396
506
431
431
427
465
463
463
496
613
499
534
535
530
535
531
530
534
569
562
599
632
598
666
663
662
629
661
662
656
687
685
745
776
811
806
840
807
807
806
835
868
830
835
834
865
891
892
920
921
953
951
952
953
982
983
1006
1008
1034
1030
1057
587
256
612
980
1014
11
23
20
23
24
87
125
21
50
48
15
15
81
21
15
15
17
15
85
209
131
52
46
107
73
73
132
110
73
171
293
104
135
134
165
164
241
131
131
132
161
132
133
160
326
262
254
161
251
224
193
163
254
160
208
279
189
316
189
252
278
222
251
221
287
202
291
288
189
217
276
245
218
246
277
249
245
218
245
319
245
225
276
349
284
223
307
273
275
303
334
362
302
411
223
332
333
379
301
363
403
357
329
329
218
390
359
357
388
419
388
358
386
419
460
475
385
395
386
446
475
416
416
397
413
507
429
424
478
505
491
455
441
441
454
443
451
564
478
497
499
500
497
513
532
528
559
526
587
526
505
525
526
508
558
555
615
553
585
581
584
553
567
585
614
581
582
609
635
642
609
671
564
637
638
701
674
669
699
697
698
698
694
729
693
693
623
696
660
649
696
625
724
721
646
756
756
724
784
710
706
786
784
753
785
782
784
708
781
781
786
781
780
812
708
778
779
780
780
810
805
838
839
805
838
833
837
837
833
864
862
866
864
897
923
890
890
814
923
889
924
921
917
949
917
917
947
946
949
949
949
980
976
870
977
872
1003
1007
1004
1008
1021
912
1020
915
1015
926
930
1025
931
1037
1034
1036
955
1037
1032
1047
1042
1047
960
1049
983
1051
1048
984
1061
1059
1052
1057
69
38
130
39
60
54
26
134
3
2
76
49
5
127
155
0
77
176
52
24
52
205
234
25
27
74
72
75
72
75
73
123
129
99
235
120
168
279
120
171
178
168
168
286
192
274
192
169
195
218
219
192
348
218
194
220
195
320
216
321
323
240
240
241
264
269
242
345
271
267
290
265
290
343
375
266
374
318
295
288
503
290
288
314
316
339
312
290
312
312
290
316
341
392
339
393
448
362
428
363
527
403
336
421
416
389
363
441
408
492
408
384
385
408
437
408
408
435
413
435
408
465
432
541
458
462
456
458
462
481
486
510
481
480
482
506
535
589
562
505
506
528
485
583
504
532
531
559
559
532
538
557
557
528
528
554
579
576
665
662
601
603
669
633
600
600
659
659
627
625
624
665
625
627
680
630
678
624
648
625
650
703
655
676
697
672
676
672
674
702
757
699
749
722
695
760
696
695
775
725
695
749
697
697
722
718
724
699
718
754
718
718
755
778
744
775
718
381
743
722
741
772
741
769
764
796
793
821
765
821
814
817
810
839
841
811
810
810
840
838
810
834
834
836
859
833
834
891
861
836
834
860
857
856
861
856
885
884
859
860
907
878
884
879
878
921
878
905
878
900
913
933
904
902
905
906
902
926
900
929
573
925
929
955
922
923
923
957
951
946
946
944
951
947
970
987
968
971
958
966
989
992
988
989
988
989
988
1021
1012
1010
1013
1015
1012
1035
1041
1035
1038
1041
585
207
328
593
643
694
737
820
787
907
748
894
943
643
1006
582
402
974
)


// ************************************************************************* //
