/*--------------------------------*- C++ -*----------------------------------*\
  =========                 |
  \\      /  F ield         | OpenFOAM: The Open Source CFD Toolbox
   \\    /   O peration     | Website:  https://openfoam.org
    \\  /    A nd           | Version:  7
     \\/     M anipulation  |
\*---------------------------------------------------------------------------*/
FoamFile
{
    version     2.0;
    format      ascii;
    class       vectorField;
    location    "0.1325/lagrangian/reactingCloud1";
    object      coordinates;
}
// * * * * * * * * * * * * * * * * * * * * * * * * * * * * * * * * * * * * * //


1190
(
(1.76565 0.0997252 -8.43539e-08)
(1.81897 0.0297136 1.88746e-07)
(1.80123 0.061173 -4.8831e-07)
(1.81554 0.0560859 5.53472e-07)
(1.71609 0.146564 -2.62619e-08)
(1.80648 0.0322595 1.30293e-13)
(1.76981 0.0571642 -4.0527e-07)
(1.65913 0.12288 4.63982e-07)
(1.74358 0.0716009 4.1399e-08)
(1.74857 0.0472728 -1.22356e-12)
(1.73475 0.0388367 -2.81385e-07)
(1.68192 0.090898 3.26411e-08)
(1.69842 0.0693472 -4.3243e-07)
(1.67639 0.0980487 -1.6643e-07)
(1.61595 0.112707 2.18985e-07)
(1.69674 0.0623023 -1.75196e-07)
(1.69527 0.0397182 -5.97358e-13)
(1.62059 0.0907307 -8.14442e-07)
(1.65427 0.0776638 2.77063e-08)
(1.61021 0.095248 1.14485e-07)
(1.66103 0.00913994 -2.86101e-14)
(1.64205 0.0351778 7.10575e-07)
(1.63 0.0646718 2.67546e-07)
(1.55543 0.0812215 6.16621e-07)
(1.58679 0.0491283 -2.39666e-12)
(1.56583 0.0797252 -3.55809e-07)
(1.56954 0.0454895 -8.36515e-13)
(1.557 0.0472798 -6.79438e-14)
(1.54146 0.0793623 -1.33563e-07)
(1.52262 0.089171 -1.26236e-08)
(1.53127 0.0552897 -4.20696e-08)
(1.52974 0.0740441 5.89293e-08)
(1.51192 0.0793443 3.03073e-07)
(1.4703 0.100026 4.10665e-08)
(1.49402 0.0658747 -2.04477e-07)
(1.50097 0.0593119 5.7929e-07)
(1.4995 0.0518814 2.03854e-07)
(1.48578 0.0383829 1.3908e-13)
(1.46635 0.0808226 7.59596e-09)
(1.46254 0.061782 -4.14205e-07)
(1.45773 0.0319474 -2.55104e-13)
(1.43481 0.0773744 -6.50178e-08)
(1.43203 0.038073 6.23702e-14)
(1.39613 0.0767698 1.39433e-08)
(1.38791 0.061161 -1.67697e-08)
(1.38056 0.0380604 -1.15166e-12)
(1.3763 0.0731141 -7.60037e-08)
(1.36425 0.0836706 -5.05498e-07)
(1.36956 0.0569709 2.68482e-08)
(1.33475 0.0887754 -6.01547e-08)
(1.32916 0.0790539 1.03939e-09)
(1.32401 0.0672869 2.25868e-07)
(1.32543 0.0383072 -2.78695e-12)
(1.32233 0.0512139 3.85607e-07)
(1.30824 0.0861866 -1.41144e-07)
(1.30636 0.0721647 -5.44102e-08)
(1.27108 0.0539974 1.83713e-07)
(1.26757 0.0330047 -3.41168e-14)
(1.26238 0.0631104 2.62727e-07)
(1.26115 0.0280457 -7.48949e-12)
(1.23564 0.0834187 -1.10139e-07)
(1.22746 0.0145766 -2.48432e-13)
(1.2257 0.0873214 5.67271e-09)
(1.20516 0.0553777 -2.42507e-12)
(1.21139 0.086736 -6.16253e-08)
(1.19595 0.0547314 -5.49531e-12)
(1.17764 0.0725602 -2.97264e-07)
(1.17605 0.047809 -8.31209e-13)
(0.342122 0.124835 -1.10443e-06)
(0.429377 0.142267 6.69252e-07)
(0.425168 0.115327 1.06333e-10)
(0.419696 0.0248112 -4.58361e-14)
(0.417106 0.0677622 3.0667e-12)
(0.416824 0.110191 -1.63918e-11)
(0.410443 0.033769 4.03758e-13)
(0.410792 0.113579 -6.61045e-11)
(0.404036 0.0576877 5.16364e-13)
(0.403947 0.114801 3.00968e-11)
(0.399773 0.0919481 1.90891e-12)
(0.317494 0.125772 1.64543e-07)
(0.394021 0.101498 3.45091e-13)
(0.391634 0.125163 -2.69566e-12)
(0.388864 0.122954 -2.26823e-10)
(0.38408 0.103176 -5.00316e-11)
(0.378972 0.0835233 -2.21086e-11)
(0.376559 0.103952 -1.66394e-11)
(0.371267 0.0725202 -4.39184e-11)
(0.370729 0.118923 -5.64382e-11)
(0.364662 0.084629 -2.70754e-12)
(0.35839 0.0503037 -7.36966e-12)
(0.355826 0.0726482 -5.33337e-11)
(0.353162 0.0756779 -4.54714e-11)
(0.349745 0.0825033 -2.7053e-11)
(0.347264 0.119302 -2.7706e-10)
(0.343236 0.111233 -2.0082e-10)
(0.33594 0.0118718 -7.70002e-12)
(0.334541 0.124645 -4.43625e-08)
(0.331657 0.11402 -1.71206e-10)
(0.266292 0.127508 2.73124e-07)
(0.321949 0.0722842 -6.614e-12)
(0.319495 0.12026 1.49808e-11)
(0.313364 0.0169313 1.40237e-13)
(0.311085 0.119984 1.12418e-11)
(0.306949 0.114535 4.12866e-12)
(0.305289 0.0491106 1.28916e-12)
(0.30304 0.0952738 1.60323e-11)
(0.299133 0.0915665 -1.17085e-11)
(0.294529 0.0581491 -5.05245e-11)
(0.29116 0.0852309 -2.95368e-11)
(0.287026 0.0748365 1.00838e-11)
(0.25906 0.126446 1.44922e-08)
(0.278269 0.0925374 3.1786e-11)
(0.275402 0.10886 -2.29372e-11)
(0.270906 0.0895648 -3.87542e-11)
(0.267015 0.0193739 -1.56626e-12)
(0.262684 0.0636061 1.74093e-12)
(0.258905 0.0650423 -5.59703e-12)
(0.25505 0.117335 -3.56071e-12)
(0.250844 0.107647 -6.66554e-12)
(0.246582 0.0822038 -1.5096e-12)
(0.242764 0.0812215 1.69197e-11)
(0.239055 0.0592675 -3.9194e-12)
(0.235292 0.0894862 -1.2236e-11)
(0.231045 0.0817649 2.45788e-12)
(0.226513 0.100327 1.97441e-11)
(0.222137 0.123266 -2.30661e-12)
(0.21866 0.113218 6.7871e-12)
(0.215199 0.0492051 1.95993e-12)
(0.214472 0.0376255 -1.1819e-12)
(0.211343 0.105228 1.93233e-11)
(0.205339 0.12441 -4.47577e-12)
(0.189785 0.128928 -1.05976e-13)
(0.190171 0.128206 -6.38357e-14)
(0.195705 0.075599 2.52939e-12)
(0.191251 0.0773432 -1.18171e-12)
(0.187241 0.117616 -3.9791e-14)
(0.183616 0.102997 5.71721e-15)
(0.178925 0.124251 -4.89107e-14)
(0.512407 0.161273 -3.83173e-07)
(0.554899 0.143428 -1.609e-07)
(0.565615 0.123105 3.57997e-11)
(0.563396 0.121945 7.33663e-11)
(0.539913 0.141245 2.43831e-09)
(0.536695 0.145019 -5.9117e-08)
(0.56347 0.104234 -1.03231e-11)
(0.559977 0.097913 -3.78105e-12)
(0.5263 0.140711 1.49309e-07)
(0.557384 0.0995964 1.64921e-10)
(0.558308 0.0650865 -3.70473e-12)
(0.547576 0.119138 -1.89038e-11)
(0.548365 0.0917591 7.45816e-11)
(0.546206 0.110051 1.71756e-11)
(0.552694 0.0317969 2.08412e-11)
(0.540492 0.0873291 9.19873e-11)
(0.520848 0.141852 1.565e-07)
(0.534482 0.0923371 1.79587e-12)
(0.527264 0.126725 5.40642e-11)
(0.532224 0.0888494 6.20866e-11)
(0.532318 0.0263336 -2.57799e-13)
(0.504228 0.150176 2.10634e-08)
(0.520812 0.108197 9.17729e-12)
(0.520124 0.0964344 1.18032e-10)
(0.51266 0.121553 9.64341e-11)
(0.514018 0.102527 7.96401e-12)
(0.509596 0.0955615 6.49967e-12)
(0.505352 0.127345 4.22927e-11)
(0.509431 0.0759371 8.64701e-12)
(0.495291 0.13582 2.03197e-11)
(0.502866 0.0410933 4.5649e-11)
(0.498694 0.116479 6.19928e-11)
(0.497009 0.095231 1.97439e-11)
(0.491875 0.114302 8.04928e-11)
(0.489015 0.113017 2.18236e-11)
(0.486148 0.0949152 1.37933e-12)
(0.48276 0.130843 2.15609e-10)
(0.485419 0.0608229 6.394e-12)
(0.457918 0.158072 -2.55917e-07)
(0.473774 0.13733 2.63816e-11)
(0.475524 0.121973 3.16601e-12)
(0.472347 0.0948983 5.43694e-12)
(0.470106 0.133261 1.97551e-10)
(0.469957 0.0874877 3.31462e-12)
(0.467841 0.0727355 5.51996e-13)
(0.461776 0.080444 4.66742e-11)
(0.458456 0.141582 1.94953e-07)
(0.456237 0.0698991 -1.81874e-12)
(0.458519 0.110446 2.63998e-12)
(0.453477 0.0567919 4.5864e-11)
(0.451079 0.0912405 -1.35491e-11)
(0.44473 0.0841144 -5.4014e-12)
(0.442424 0.0854889 -2.76979e-11)
(0.438766 0.0419986 1.88354e-13)
(0.441847 0.112542 4.91851e-11)
(0.432851 0.0483426 2.39953e-12)
(0.42642 0.0640936 -6.47671e-12)
(0.430264 0.094878 -2.4595e-11)
(0.663186 0.124066 -2.90392e-07)
(0.815303 0.0857606 4.39672e-08)
(0.801434 0.0809007 3.92697e-08)
(0.817569 0.0842496 3.90292e-08)
(0.725455 0.102216 -4.12439e-07)
(0.79042 0.0617096 1.22861e-07)
(0.637843 0.131767 4.2057e-07)
(0.61121 0.139893 -1.11945e-07)
(0.801271 0.0394962 -4.10857e-11)
(0.76791 0.0832706 -5.85239e-08)
(0.781478 0.0502942 -9.27146e-11)
(0.736524 0.0926393 1.49963e-07)
(0.72867 0.0978501 -3.69845e-07)
(0.749627 0.069576 4.82545e-11)
(0.744262 0.0643901 2.30674e-11)
(0.71899 0.0979749 -1.42025e-07)
(0.608307 0.140536 -2.24121e-07)
(0.72733 0.0740476 4.26261e-11)
(0.722359 0.0641833 7.54578e-12)
(0.686703 0.110066 -2.31367e-10)
(0.720839 0.0189208 1.14391e-12)
(0.691949 0.10359 -3.98657e-08)
(0.701822 0.0973702 4.95562e-07)
(0.60869 0.139086 6.04943e-10)
(0.70536 0.0668925 7.06087e-11)
(0.688953 0.0955747 1.05627e-07)
(0.696685 0.0725547 9.27486e-11)
(0.694782 0.044274 6.51023e-12)
(0.668947 0.110209 -5.13357e-08)
(0.671422 0.101638 -4.83766e-11)
(0.6788 0.0675135 1.36294e-11)
(0.592276 0.145659 -6.22367e-10)
(0.664826 0.075345 1.05609e-10)
(0.664451 0.0708457 3.05329e-13)
(0.661781 0.0583423 8.2428e-12)
(0.655595 0.0942909 1.8311e-10)
(0.645101 0.116281 -5.98196e-08)
(0.6567 0.0823572 9.79376e-11)
(0.6598 0.0185944 3.6658e-11)
(0.646965 0.109799 -6.50631e-09)
(0.650003 0.0685246 -2.01636e-13)
(0.63575 0.0983643 -1.44846e-12)
(0.619362 0.104727 8.38488e-12)
(0.599014 0.139544 6.40094e-08)
(0.615548 0.106219 7.61342e-12)
(0.619127 0.0477715 5.17608e-11)
(0.613222 0.105309 1.06834e-10)
(0.615428 0.0255251 2.32998e-11)
(0.608519 0.0293066 -6.16731e-13)
(0.594789 0.140264 -2.18484e-08)
(0.600071 0.131232 -8.15459e-07)
(0.604139 0.0666599 -1.12694e-12)
(0.599206 0.117481 -2.65727e-11)
(0.600554 0.0562795 8.17082e-14)
(0.595248 0.107307 1.21248e-10)
(0.593689 0.125072 1.25313e-08)
(0.590965 0.123018 9.77648e-11)
(0.585203 0.131427 -2.4895e-07)
(0.576184 0.14192 -1.21138e-08)
(0.574286 0.116516 -1.37356e-11)
(0.573458 0.0793887 -1.47692e-12)
(0.571576 0.124068 -6.27181e-11)
(0.5712 0.146402 2.88334e-07)
(1.15963 0.090625 -3.75833e-07)
(1.15354 0.0898223 2.89012e-08)
(1.13229 0.0699104 1.11942e-07)
(1.08867 0.0883937 5.79097e-10)
(1.10976 0.0666087 -4.799e-08)
(1.10658 0.0262026 4.98501e-13)
(1.10489 0.0602861 4.94347e-08)
(1.09257 0.0604448 -3.97593e-07)
(1.06299 0.0663205 -5.50702e-07)
(1.05369 0.0838665 -5.06592e-08)
(1.02988 0.0488371 1.42292e-12)
(1.01867 0.0498969 1.37327e-13)
(1.01011 0.0749091 3.27319e-07)
(1.00452 0.0892819 -7.69391e-08)
(1.00563 0.0758736 6.12871e-07)
(1.00289 0.0391193 5.23988e-12)
(0.983243 0.0859452 3.47327e-07)
(0.992861 0.0271992 1.23906e-13)
(0.971316 0.0753769 3.09872e-07)
(0.969599 0.0724055 3.26341e-08)
(0.929873 0.084891 -5.03373e-08)
(0.936597 0.0680893 -1.89448e-07)
(0.930704 0.0752819 -5.56796e-08)
(0.924035 0.0627914 -7.98968e-08)
(0.917222 0.0719065 -7.22877e-07)
(0.913998 0.012167 -6.79207e-12)
(0.90122 0.0701438 -5.11264e-07)
(0.868586 0.0834496 -5.395e-08)
(0.864361 0.0888285 -3.17009e-07)
(0.860215 0.0577172 -3.01568e-11)
(0.849662 0.0711961 -6.54148e-08)
(0.844747 0.093736 -6.91699e-08)
(0.84753 0.0199393 3.57675e-12)
(0.825719 0.03812 6.44351e-12)
(4.69786 0.110007 -3.39757e-07)
(4.63696 0.142797 -1.95316e-08)
(4.54689 0.14597 -3.35895e-07)
(4.65144 0.130069 9.96161e-07)
(4.63844 0.0932304 -5.2069e-08)
(4.50829 0.128246 1.87293e-07)
(4.36374 0.110961 -1.01488e-06)
(4.33888 0.100893 3.17822e-07)
(4.2925 0.147257 2.7178e-07)
(4.37193 0.0956926 -2.95045e-07)
(4.22331 0.131065 2.35059e-07)
(4.26569 0.0944262 -4.14395e-07)
(4.27694 0.0591071 -1.59945e-07)
(4.2988 0.0628557 1.26723e-07)
(4.23399 0.0808957 -9.62701e-08)
(4.23154 0.0704135 2.52261e-07)
(4.33809 0.0473072 4.98124e-08)
(4.34485 4.12018e-11 -5.13626e-14)
(4.32524 0.0426783 1.19956e-07)
(3.95761 0.127904 -3.64389e-07)
(4.2741 0.0380612 7.2011e-07)
(4.30228 0.0625895 6.97946e-07)
(4.26205 0.0635197 -2.96459e-08)
(4.26124 0.0563086 -1.21617e-07)
(4.3275 0.015592 -1.84189e-07)
(4.27272 0.0579452 9.15954e-08)
(4.29571 0.00531421 -3.66388e-08)
(4.27115 0.0293554 -8.01817e-09)
(4.24246 0.0648194 -2.59977e-08)
(4.24214 0.040517 -1.10398e-06)
(4.04459 0.10798 2.97601e-07)
(4.23234 0.00705737 9.1971e-08)
(4.17464 0.0587181 2.72632e-07)
(4.17644 0.0522926 -1.44359e-07)
(4.126 0.0442686 -8.47491e-08)
(4.08905 0.10033 -1.96928e-07)
(4.13198 0.0649738 3.92983e-07)
(4.16783 0.00668729 -6.0892e-09)
(4.1651 0.00726795 -5.77937e-08)
(4.14961 0.0172629 3.36406e-07)
(4.05581 0.0865208 4.57887e-07)
(4.10338 0.0596924 -5.15141e-07)
(4.08343 0.0511498 -4.88914e-07)
(4.00597 0.0791214 -9.11661e-09)
(4.05953 0.0484 2.21572e-09)
(4.0076 0.0747695 -1.58251e-07)
(4.0414 0.0478388 -2.99953e-08)
(4.04195 0.0559837 1.42771e-06)
(4.00815 0.0716065 3.83722e-07)
(4.04705 0.0393246 -1.00384e-07)
(4.01223 0.0600894 -3.15307e-08)
(3.72444 0.131746 -3.08818e-08)
(4.03309 0.0171987 7.31888e-08)
(3.99331 0.043195 -2.77602e-07)
(3.83633 0.117792 -3.06704e-08)
(4.01456 0.0211266 -3.51514e-07)
(3.92578 0.0913527 5.30198e-07)
(3.9541 0.0580947 3.79698e-08)
(3.88115 0.103753 4.92523e-08)
(3.88921 0.0947774 1.57277e-08)
(3.90615 0.0786467 2.78158e-07)
(3.9279 0.0578022 -2.0112e-07)
(3.95231 0.0372133 -5.74815e-08)
(3.89415 0.0731499 1.04427e-07)
(3.87583 0.0490418 -1.7926e-07)
(3.8745 0.0671815 -9.06014e-09)
(3.90392 0.00394556 7.82921e-09)
(3.92525 0.0290133 -4.15172e-07)
(3.82119 0.0840425 -1.6738e-07)
(3.83712 0.0670796 1.11732e-07)
(3.5608 0.151486 -3.79841e-07)
(3.84503 0.0507573 2.18193e-07)
(3.83601 0.0624211 2.85695e-07)
(3.84674 0.0458798 6.53604e-08)
(3.80848 0.0714919 -3.00075e-08)
(3.84324 0.00245685 -5.59856e-07)
(3.8316 1.92771e-05 1.80025e-08)
(3.81055 0.0333976 -1.32571e-07)
(3.76818 0.00944071 5.05798e-07)
(3.74255 0.0634378 1.46406e-07)
(3.71662 0.0619446 -1.68028e-08)
(3.71085 0.0532834 1.16259e-07)
(3.57749 0.116791 1.24835e-06)
(3.68678 0.0398366 -6.03569e-08)
(3.65931 0.0618752 -8.1721e-08)
(3.63791 0.0792239 4.08673e-07)
(3.62073 0.0831782 -1.7559e-07)
(3.67824 0.00146585 -5.32337e-08)
(3.65233 0.0197343 -4.71063e-07)
(3.60933 0.0643012 5.40561e-08)
(3.56924 0.0906456 -1.90064e-08)
(3.6043 0.0770479 -2.66825e-07)
(3.62354 0.0215675 -3.08931e-07)
(3.58819 0.0604619 5.11845e-07)
(3.58949 0.0551967 -6.08654e-08)
(3.35152 0.171643 -7.23903e-07)
(3.60358 0.0223483 3.08534e-07)
(3.57752 0.0458671 4.73193e-08)
(3.46582 0.0970307 7.7537e-07)
(3.31298 0.152157 9.49475e-08)
(3.52955 0.00706158 -1.23704e-12)
(3.51728 0.0138286 9.59596e-14)
(3.4632 0.0945505 7.88251e-08)
(3.51537 0.029693 -6.03959e-07)
(3.49878 0.0603986 -1.11553e-07)
(3.49529 0.0632763 -2.44317e-07)
(3.50214 0.0413151 2.82023e-07)
(3.46281 0.0727506 8.57546e-07)
(3.46628 0.0606229 -1.63903e-07)
(3.2708 0.13417 1.11942e-07)
(3.45154 0.0572019 -4.81982e-07)
(3.25098 0.141064 6.15672e-08)
(3.42254 0.0758061 -2.27615e-09)
(3.41115 0.0854008 9.76964e-08)
(3.43164 0.0622045 -6.74373e-08)
(3.43805 0.0350041 -9.60079e-09)
(3.43198 0.0363356 -2.47955e-07)
(3.39463 0.0534192 -5.91295e-07)
(3.39465 0.0572529 -2.38734e-07)
(3.37407 0.0373671 1.76443e-07)
(3.35742 0.0185482 -3.76304e-07)
(3.31232 0.0367773 7.00327e-08)
(3.30921 0.0345363 -2.69678e-08)
(3.3044 0.051709 1.29652e-07)
(3.29868 0.0295651 1.78868e-07)
(3.22726 0.0991284 1.87488e-07)
(3.28463 0.0725597 2.46284e-07)
(3.28922 4.30691e-11 -1.69398e-13)
(3.28652 0.0263406 -2.83786e-08)
(3.27309 0.068753 -5.3886e-08)
(3.26 0.0927594 4.88934e-07)
(3.10342 0.129621 4.64956e-07)
(3.25967 0.0271699 8.85904e-08)
(3.25022 0.0681681 3.32979e-07)
(3.23734 0.0754918 3.54638e-07)
(3.22196 0.0235871 1.16651e-08)
(3.21972 0.0183112 -8.28921e-13)
(3.20976 0.085767 2.48089e-08)
(3.20756 0.0707024 -4.32912e-07)
(3.20485 0.0927317 5.8329e-08)
(3.20321 0.0444132 -4.81577e-08)
(3.18328 0.0759122 -3.9896e-08)
(3.13955 0.0596471 -2.37419e-07)
(3.1711 0.06309 -6.38187e-08)
(3.13082 0.071304 -3.38571e-07)
(3.0334 0.0840108 1.99462e-07)
(3.12237 0.0517587 1.89097e-07)
(3.14337 0.0182197 7.35433e-13)
(3.14359 0.0452889 -5.3736e-08)
(3.12151 0.0564068 -2.6463e-07)
(3.12945 0.00244116 -2.40412e-08)
(3.05684 0.0760703 -9.17845e-08)
(3.08203 0.0680053 3.38667e-07)
(3.08947 0.0667488 2.05516e-07)
(3.08328 0.0554072 6.69817e-07)
(3.09935 0.048049 -2.24525e-08)
(2.97949 0.0840993 -6.3294e-08)
(3.07119 0.0107575 2.19261e-13)
(3.03514 0.0280805 4.14928e-07)
(3.03536 0.0313421 -6.86219e-08)
(2.88151 0.158654 9.07523e-08)
(2.98974 0.0440518 7.97511e-08)
(2.98214 0.058821 3.80309e-07)
(2.90906 0.0752797 2.67028e-08)
(2.94704 0.0295942 2.728e-07)
(2.76136 0.117683 1.54967e-07)
(2.94389 0.034766 -3.40621e-07)
(2.71923 0.12439 1.9741e-07)
(2.92311 0.0346012 3.65802e-07)
(2.73333 0.118158 -1.01237e-06)
(2.90639 0.0404459 -5.98014e-08)
(2.88957 0.049184 -1.61579e-08)
(2.76241 0.0930678 -3.90014e-07)
(2.87044 0.0102479 -2.82888e-13)
(2.84492 0.06762 1.83224e-07)
(2.86341 0.0375224 -5.35215e-08)
(2.80519 0.0594901 -2.06617e-07)
(2.83967 0.0280044 -4.59779e-13)
(2.78189 0.0526851 -2.23093e-07)
(2.81506 0.032013 1.55524e-07)
(2.81472 0.0176069 -2.22393e-14)
(2.76549 0.0928863 6.17038e-08)
(2.72464 0.081642 5.45339e-08)
(2.797 0.0104893 -1.58789e-13)
(2.79637 3.0888e-11 -3.92557e-14)
(2.72226 0.0752265 -4.93385e-08)
(2.78009 0.0431858 -6.98546e-08)
(2.77317 0.0181175 9.62727e-14)
(2.7635 0.00808099 2.02823e-13)
(2.75004 0.0127384 9.69575e-08)
(2.72179 0.044311 1.19103e-07)
(2.63371 0.0997729 1.42503e-08)
(2.68451 0.037929 -8.97205e-08)
(2.67892 0.0379659 -1.61169e-07)
(2.67359 0.0358215 -1.82086e-08)
(2.66276 0.069226 -2.39563e-08)
(2.63961 0.0714898 -5.94592e-08)
(2.6656 0.0190537 -7.86037e-14)
(2.58476 0.0803366 -7.43667e-08)
(2.56705 0.0815899 -1.5028e-07)
(2.61049 0.064332 -1.05798e-07)
(2.64724 0.0218645 -3.94623e-07)
(2.59363 0.0647808 4.17472e-08)
(2.59893 0.0417829 1.65383e-07)
(2.59158 0.049648 3.56506e-07)
(2.57212 0.0529041 -1.22948e-08)
(2.57326 0.0464407 -9.84676e-08)
(2.56417 0.0423907 1.78762e-07)
(2.45022 0.100802 2.75427e-08)
(2.53181 0.0555698 -1.7066e-07)
(2.53223 0.0521346 -6.2142e-08)
(2.51652 0.0222257 -5.14324e-13)
(2.51255 0.0529807 -1.62266e-07)
(2.50405 0.0376958 2.48564e-08)
(2.49139 0.0344401 -1.46675e-07)
(2.47445 0.0328232 -4.90511e-13)
(2.34894 0.126232 -1.28601e-07)
(2.45207 0.0539157 -2.65913e-08)
(2.43604 0.0568005 5.47728e-08)
(2.42807 0.0659308 2.69661e-07)
(2.43668 0.0276869 -5.25261e-13)
(2.42194 0.066775 2.11934e-07)
(2.40647 0.0370396 -2.62029e-12)
(2.40273 0.0309358 -8.3818e-13)
(2.3997 0.0633741 4.75898e-08)
(2.38276 0.0708787 -1.33402e-07)
(2.37966 0.0164695 2.42507e-13)
(2.34966 0.0373171 -7.2934e-08)
(2.31788 0.0659981 1.31649e-08)
(2.33144 0.0280797 -4.52927e-13)
(2.26805 0.102326 1.70818e-07)
(2.2706 0.0786644 -1.09955e-07)
(2.26415 0.0773763 8.19341e-08)
(2.29637 0.0402981 -1.65155e-07)
(2.27036 0.0681692 -8.00303e-07)
(2.26415 0.0705585 -4.01834e-09)
(2.27491 0.0311547 -5.18529e-13)
(2.25106 0.0419324 4.25737e-07)
(2.22366 0.0299874 -3.11946e-13)
(2.1566 0.0441757 1.00892e-07)
(2.14173 0.0609996 -1.21015e-07)
(2.09217 0.10008 5.86714e-07)
(2.11027 0.0615866 1.38639e-08)
(2.0655 0.0994407 -6.18356e-07)
(2.09176 0.0740525 -8.93902e-07)
(2.09269 0.07565 5.97038e-08)
(2.08941 0.0682473 -1.70952e-07)
(2.07493 0.0665672 1.08889e-07)
(2.04902 0.0932111 -7.51375e-09)
(2.07475 0.0289203 -9.3682e-14)
(2.05984 0.063419 -2.07159e-07)
(2.05958 0.0530048 1.70627e-07)
(2.0432 0.0755846 7.75212e-09)
(2.00986 0.0497603 1.13281e-07)
(1.99906 0.0588464 -4.17907e-10)
(1.97558 0.0490622 -1.97912e-07)
(1.96842 0.053869 3.37371e-08)
(1.9579 0.0800719 -5.41834e-09)
(1.95999 0.0622199 -4.20936e-08)
(1.95809 0.0680878 2.13705e-07)
(1.93675 0.0761245 1.97457e-07)
(1.93136 0.081282 -3.03557e-07)
(1.92337 0.0829621 -7.12576e-07)
(1.90462 0.0586335 2.91413e-07)
(1.88619 0.0706239 1.95649e-07)
(1.87368 0.0713239 3.42743e-07)
(1.8684 0.0412025 5.98865e-07)
(1.83097 0.0872507 -4.83413e-07)
(6.48604 0.376786 -5.6742e-07)
(5.75724 0.424243 -3.79294e-07)
(6.33974 0.277033 -4.44046e-07)
(4.7865 0.24974 9.31289e-08)
(4.65773 0.204935 -2.82839e-07)
(7.20473 0.22791 -9.51126e-09)
(7.1947 0.0893962 6.41028e-07)
(7.15834 0.0560599 -4.96652e-07)
(7.15049 0.0852989 -2.60926e-08)
(7.15678 0.0997735 1.3903e-07)
(7.0263 0.14889 1.39254e-07)
(6.93135 0.204377 -4.18255e-07)
(7.13359 0.058792 -3.18481e-08)
(7.05703 0.0651103 1.94666e-08)
(7.11088 0.0365856 -4.52888e-07)
(7.16947 1.70121e-10 -4.98792e-13)
(7.14871 0.00197764 -2.38107e-07)
(7.00784 0.0813909 7.56772e-07)
(7.15755 0.0635635 1.83043e-07)
(7.18996 0.00764166 4.89856e-07)
(7.19296 2.24283e-11 1.08565e-13)
(7.15557 0.0229205 -2.55931e-08)
(7.14081 0.000976174 6.87004e-08)
(7.02625 0.130013 -3.07397e-07)
(6.7036 0.183834 -8.39199e-08)
(6.89719 0.00551246 8.10777e-08)
(7.06089 0.0875376 1.07006e-07)
(7.07538 0.0220927 -9.6006e-08)
(6.92669 0.0504377 -1.26293e-08)
(7.01801 0.000490817 6.30969e-07)
(6.98343 0.00542275 -1.60126e-07)
(6.89842 0.00862973 5.357e-07)
(6.96577 0.0844465 -7.84634e-08)
(7.00844 5.9562e-10 2.30438e-12)
(6.78718 0.119057 -3.21526e-07)
(6.5268 0.182374 -1.09443e-06)
(6.94104 0.0233576 -1.88895e-07)
(6.90187 0.0367502 1.74894e-08)
(6.85986 0.0313398 -2.91834e-07)
(6.80905 0.0453989 2.46497e-07)
(6.77175 0.0428202 3.22887e-10)
(6.66834 0.209574 1.14526e-07)
(6.89989 1.99566e-10 2.84078e-13)
(6.86362 0.00493461 -4.28481e-08)
(6.8399 0.0108406 -4.1746e-07)
(6.81977 0.0121513 -1.11259e-07)
(6.89445 0.011672 3.64009e-07)
(6.85374 0.0177593 -1.54887e-07)
(6.77414 4.69301e-09 -2.58709e-11)
(6.47345 0.213524 3.13058e-09)
(6.61311 0.167477 -2.96545e-07)
(6.61702 0.0909356 -9.80704e-07)
(6.8215 0.00848062 -1.20349e-07)
(6.59717 0.0642502 -1.22357e-07)
(6.67356 0.0669534 1.6852e-07)
(6.73511 0.0393203 2.08119e-07)
(6.79128 0.0285471 -2.90807e-08)
(6.57792 0.0965669 -1.33464e-06)
(6.76961 0.00461431 1.87973e-07)
(6.69279 0.175666 -1.82513e-07)
(6.51065 0.0636037 5.44955e-08)
(6.7181 0.00670228 -5.66366e-08)
(6.47299 0.150388 2.1018e-07)
(6.7573 1.80078e-10 -1.12649e-12)
(6.55507 0.075516 4.81688e-07)
(6.53713 0.0485199 2.78533e-07)
(6.62361 0.047958 4.93143e-10)
(6.61033 0.0595611 -8.11832e-08)
(6.67564 0.0365217 -7.91456e-07)
(6.47968 0.140533 -1.06244e-06)
(6.72056 0.131756 -2.74584e-07)
(6.49542 0.170039 -4.50094e-08)
(6.53352 0.148922 -2.20407e-08)
(6.70009 3.95008e-09 -7.76368e-12)
(6.67865 9.31344e-11 -6.09545e-13)
(6.53646 0.0307859 -2.841e-07)
(6.60052 3.54541e-10 1.06783e-12)
(6.63776 0.0105498 1.25531e-07)
(6.56932 0.0115155 3.16155e-07)
(6.50593 0.0398153 2.16307e-07)
(6.57123 0.03528 2.393e-08)
(6.61473 3.56072e-10 -1.37998e-12)
(6.63718 0.0113995 -1.15281e-07)
(6.61339 0.00333124 8.65634e-08)
(6.46771 0.167787 2.45406e-07)
(6.60721 0.000508888 3.77269e-07)
(6.61925 0.0792222 -2.69073e-07)
(6.49914 0.0334805 -5.17022e-08)
(6.35789 0.178085 -4.35793e-07)
(6.51215 0.114784 5.25693e-08)
(6.66396 0.0570458 -2.00521e-07)
(6.44295 0.0631869 5.67807e-07)
(6.50784 4.66896e-11 -3.86346e-13)
(6.49851 0.0170195 -8.69624e-07)
(6.45223 0.0228511 -4.06907e-09)
(6.34062 0.0445295 1.78008e-07)
(6.32122 0.0488209 -8.1341e-07)
(6.43302 0.00984049 -2.66655e-08)
(6.21893 0.224074 6.57101e-07)
(6.63302 0.0596789 3.41857e-07)
(6.34462 0.0276584 -1.79402e-07)
(6.33086 0.040671 -8.24771e-08)
(6.28412 0.189585 -1.68867e-07)
(6.40587 2.31887e-11 -2.00632e-13)
(6.2747 0.0530209 3.88111e-07)
(6.23836 0.165763 1.56348e-07)
(6.32906 0.000156688 -4.43119e-08)
(6.37304 0.00120353 -7.45546e-08)
(6.36224 0.0031392 -5.29943e-08)
(6.63511 0.0109199 3.97838e-07)
(6.21203 0.044115 -3.95626e-07)
(6.275 0.0218767 1.33266e-07)
(6.32254 0.00133229 -6.97853e-08)
(6.21619 0.0266428 9.78587e-08)
(6.1278 0.0540617 2.24065e-07)
(6.23041 0.031258 -1.107e-09)
(6.25907 0.00991604 1.13493e-07)
(6.2529 0.0147503 1.14739e-07)
(6.13053 0.0533362 1.90363e-07)
(6.1018 0.169056 -5.39617e-08)
(6.03898 0.055829 1.18333e-06)
(6.22918 0.00675525 -4.88505e-09)
(6.23813 0.101917 -3.10787e-07)
(6.21957 0.0122101 -2.37299e-07)
(6.04302 0.0484705 3.85617e-07)
(6.01467 0.0561408 2.1354e-08)
(6.14691 0.0278713 4.52297e-08)
(6.12385 0.0299098 6.04744e-08)
(6.20462 0.122949 -2.10321e-07)
(6.1616 0.00445194 -3.80745e-07)
(5.91831 0.0944575 1.15932e-07)
(6.11437 0.152849 -4.87569e-07)
(6.14792 0.105482 -1.63854e-07)
(5.99796 0.0899062 7.43996e-08)
(5.92594 0.0818194 1.07367e-07)
(5.98164 0.183615 1.08595e-07)
(6.08364 0.139145 -7.49874e-08)
(6.09963 0.00630054 3.60466e-07)
(6.06633 2.27745e-10 -1.13748e-12)
(6.07315 0.124878 3.88018e-07)
(6.05543 0.0184138 -2.97805e-08)
(6.09668 0.101623 1.3535e-07)
(5.81973 0.103161 4.82841e-07)
(6.03617 0.090719 4.76954e-07)
(5.96067 0.0072184 -5.68853e-08)
(5.91261 0.0171992 1.43427e-07)
(5.92879 0.0296094 8.57845e-08)
(5.95348 7.91258e-07 -1.00854e-09)
(5.95434 0.154074 2.7368e-08)
(5.88758 0.0700214 -2.95281e-07)
(5.88939 0.0277088 -2.18737e-07)
(5.8033 0.0557911 -2.68614e-08)
(5.87764 0.00982889 -7.78367e-08)
(5.75107 0.0598053 1.08064e-07)
(5.83769 0.0136701 -1.33382e-07)
(5.97074 0.0791601 -1.17094e-08)
(5.84172 0.000170729 -2.47601e-10)
(5.836 0.00974699 1.10372e-07)
(5.92806 0.107272 -6.91261e-07)
(5.75928 0.0462045 1.34134e-08)
(5.79951 0.018156 6.66032e-07)
(5.66315 0.0514656 2.40348e-07)
(5.8016 0.00434245 -8.97795e-08)
(5.75202 0.035835 1.88926e-07)
(5.73494 0.00314652 -2.60887e-07)
(5.74343 0.0286356 -2.39635e-07)
(5.7657 0.000242457 -3.51417e-08)
(5.82802 0.134297 2.98429e-08)
(5.69245 0.0331379 3.08615e-07)
(5.65639 0.0478786 -3.48883e-07)
(5.73122 8.13607e-05 7.06734e-08)
(5.69212 0.00940956 -6.94368e-09)
(5.66655 0.0028765 7.25435e-08)
(5.6249 0.207573 1.4616e-07)
(5.61402 0.0409278 -5.31524e-07)
(5.6281 0.00556888 -6.93606e-08)
(5.51197 0.0527106 1.09704e-08)
(5.76705 0.103621 -1.43713e-07)
(5.59518 4.25064e-10 2.86493e-12)
(5.56923 0.0123201 1.58249e-07)
(5.4351 0.0708161 1.00711e-06)
(5.5236 0.0855214 -7.6397e-09)
(5.52278 0.0357306 2.37606e-08)
(5.44757 0.0534522 1.13105e-08)
(5.46625 0.0359589 7.52013e-08)
(5.45635 0.0459025 2.37596e-07)
(5.4208 0.0464683 -1.18348e-07)
(5.46428 0.0120674 1.71144e-07)
(5.40355 0.0687855 -1.40843e-07)
(5.47598 3.67519e-11 -2.28104e-13)
(5.47381 0.00632595 -6.97472e-08)
(5.63735 0.133594 -5.19491e-08)
(5.44809 0.0247363 -7.48818e-08)
(5.61089 0.187006 -3.78881e-07)
(5.61107 0.113404 -2.17059e-07)
(5.42441 0.0251809 -2.93835e-08)
(5.64163 0.147574 -2.59523e-07)
(5.39012 0.0291508 2.7011e-07)
(5.39578 0.00511254 -2.30286e-07)
(5.54647 0.0881716 -2.45799e-08)
(5.29167 0.0650214 4.25937e-07)
(5.29398 0.0671951 -6.86087e-08)
(5.35678 0.0256099 -1.13988e-07)
(5.25919 0.0603553 3.89911e-07)
(5.47019 0.15096 -4.87194e-07)
(5.47362 0.125615 4.45729e-07)
(5.21061 0.0786002 -3.53256e-08)
(5.22933 0.0668845 -1.42673e-07)
(5.28284 0.0316732 -1.30194e-07)
(5.22731 0.0670183 -5.39356e-07)
(5.25986 0.0436332 2.24673e-07)
(5.22253 0.0603987 8.04456e-08)
(5.4408 0.141211 8.40245e-08)
(5.25322 0.032512 -1.60694e-07)
(5.248 0.0313569 -1.01085e-07)
(5.23351 0.0801266 1.03661e-07)
(5.2187 0.0340286 -9.55073e-07)
(5.24533 0.0223895 -1.39007e-07)
(5.17598 0.064538 -7.62065e-08)
(5.44361 0.1381 -1.02319e-06)
(5.2564 0.00768548 -1.03211e-07)
(5.2303 0.0167525 -1.81421e-07)
(5.22234 0.0274353 2.1404e-08)
(5.22168 0.0268746 5.40479e-08)
(5.16313 0.0410356 6.63626e-07)
(5.19108 2.32419e-10 1.25066e-12)
(5.10565 0.0446116 -8.08129e-08)
(5.09496 0.0543235 -1.29201e-06)
(5.13491 0.00474313 6.29604e-09)
(5.09212 0.0408827 9.77813e-08)
(5.12202 0.000257317 -2.63937e-08)
(5.10172 0.0312463 -2.88295e-08)
(5.08873 0.0321487 3.08712e-07)
(5.09283 2.03619e-09 1.62259e-11)
(5.05506 0.0248029 9.54192e-08)
(5.06195 0.0136663 -7.5477e-08)
(5.01902 0.0459449 6.26274e-08)
(5.03518 0.022914 2.47406e-07)
(4.94788 0.0703246 3.80663e-07)
(4.92465 0.0508258 -5.44854e-07)
(4.96765 0.0130719 7.32863e-08)
(4.96873 0.0106677 2.62719e-08)
(5.15283 0.0813654 4.93885e-07)
(4.92042 0.0545709 6.14245e-07)
(4.9373 0.00189402 -4.31068e-07)
(4.87606 0.0562411 1.28089e-07)
(4.8852 0.0346795 1.84874e-07)
(4.89335 4.25596e-10 -2.63823e-12)
(4.86284 0.0295496 1.59655e-07)
(4.87047 9.78348e-12 -6.44259e-14)
(4.88962 0.00151091 -3.64852e-07)
(4.85783 0.017179 -1.05086e-07)
(4.85339 0.0108669 -2.70334e-07)
(4.84238 0.0331122 -9.55768e-08)
(4.83341 0.0288984 7.33081e-10)
(4.8125 0.0331297 1.09436e-09)
(4.79161 0.0559367 -1.67698e-07)
(4.79592 0.0283142 -1.13495e-08)
(5.00947 0.0835553 -4.48449e-08)
(4.73581 0.0304151 -5.24881e-08)
(5.05113 0.100065 6.05553e-08)
(4.72611 0.018181 1.53729e-07)
(4.70905 0.0518251 2.96672e-07)
(4.70992 0.0261818 -3.76858e-07)
(4.68545 0.0548341 1.93924e-07)
(4.66555 0.074193 -7.41498e-09)
(4.97332 0.177795 8.61937e-08)
(4.64411 0.0698088 -6.87104e-08)
(4.95307 0.200381 -2.23925e-07)
(4.60239 0.0259217 -1.68713e-07)
(4.87771 0.0812216 -3.61367e-07)
(4.92192 0.120628 -9.5185e-08)
(4.57115 0.0252838 7.62494e-08)
(4.89242 0.126529 1.23668e-07)
(4.52394 0.035816 3.83592e-07)
(4.51241 0.0183671 -4.80724e-07)
(4.50573 0.0286397 -1.67703e-07)
(4.85758 0.0896661 -2.78145e-07)
(4.48991 0.0400775 5.67201e-08)
(4.49219 0.00225945 2.5344e-07)
(4.46825 0.0429823 -9.53695e-07)
(4.46803 6.0212e-10 -1.24998e-12)
(4.46689 0.0379449 -4.78016e-07)
(4.80738 0.128281 1.76263e-08)
(4.42847 0.054956 -1.62059e-07)
(4.73463 0.0884397 2.64248e-07)
(4.4124 0.0712676 1.09122e-08)
(4.41489 0.0453522 2.97837e-08)
(4.77436 0.095007 -7.02978e-08)
(4.38562 0.075895 1.58629e-07)
(4.37177 0.0571738 -1.66629e-07)
(4.37174 9.68946e-11 2.39134e-13)
(4.36342 0.0360138 2.16612e-08)
(9.87904 0.233177 4.36606e-07)
(9.91885 0.17865 5.38424e-07)
(9.70712 0.124283 1.05719e-06)
(9.95484 0.188871 -4.83408e-07)
(9.90384 0.161296 -9.81976e-07)
(9.89739 0.0802922 9.71673e-07)
(9.95306 0.0215067 3.97951e-07)
(9.74129 0.173347 -1.61113e-07)
(9.99316 0.0372031 -2.41158e-08)
(10.0046 0.0214203 -8.28849e-08)
(9.83794 0.0467877 2.03217e-07)
(9.89736 0.019106 3.57419e-08)
(9.986 0.0667589 -3.54083e-07)
(9.70536 0.0918696 -1.01448e-06)
(9.67648 0.149226 3.58553e-07)
(9.99423 2.76481e-09 -1.02801e-11)
(9.83356 0.058701 -2.52374e-07)
(9.63044 0.109535 -3.9789e-07)
(9.86887 0.0448049 7.14917e-08)
(9.9206 2.835e-08 -9.24415e-11)
(9.88238 0.0574698 -3.12745e-07)
(9.57813 0.164567 4.994e-07)
(9.51335 0.211446 3.3042e-07)
(9.93921 0.0150036 2.29812e-08)
(9.95242 0.0351378 4.00205e-07)
(9.83179 0.0207601 1.22273e-07)
(9.83822 1.78588e-08 5.81959e-11)
(9.82797 0.0380345 1.26029e-07)
(9.80523 3.16025e-10 -1.90615e-12)
(9.83758 0.0378284 -1.4304e-07)
(9.84604 0.0142857 2.12333e-08)
(9.74461 0.0395387 -2.31338e-08)
(9.71266 0.119466 9.46919e-07)
(9.78718 0.0385773 -2.78732e-08)
(9.50129 0.213973 -2.24524e-07)
(9.74532 2.21478e-08 3.38073e-11)
(9.6196 0.00732517 -4.2192e-08)
(9.38827 0.182655 -8.26705e-08)
(9.71423 0.00215459 9.4364e-08)
(9.60423 0.035638 6.83556e-09)
(9.609 0.132754 6.52368e-08)
(9.6372 5.80906e-09 3.57127e-12)
(9.62558 8.89698e-09 -2.61289e-12)
(9.37594 0.229722 -2.55177e-07)
(9.55105 1.84813e-08 2.20728e-11)
(9.38631 0.129604 8.95849e-07)
(9.57274 3.95262e-08 -3.4086e-10)
(9.60978 0.0177318 2.35947e-08)
(9.55355 0.0355748 -2.77696e-08)
(9.52929 0.030071 -2.79923e-07)
(9.4868 0.0392512 3.59991e-07)
(9.57274 0.000589816 -4.24695e-08)
(9.2276 0.146919 6.59508e-07)
(9.51853 0.020748 -5.31485e-07)