/*--------------------------------*- C++ -*----------------------------------*\
  =========                 |
  \\      /  F ield         | OpenFOAM: The Open Source CFD Toolbox
   \\    /   O peration     | Website:  https://openfoam.org
    \\  /    A nd           | Version:  7
     \\/     M anipulation  |
\*---------------------------------------------------------------------------*/
FoamFile
{
    version     2.0;
    format      ascii;
    class       scalarField;
    location    "0.1325/lagrangian/reactingCloud1";
    object      d;
}
// * * * * * * * * * * * * * * * * * * * * * * * * * * * * * * * * * * * * * //


1190
(
5.28112e-07
2e-07
2e-07
2e-07
4.51802e-07
2e-07
2e-07
7.02166e-07
2e-07
2e-07
2e-07
2e-07
2e-07
3.21589e-07
1.1607e-06
2e-07
2e-07
2e-07
2e-07
2e-07
2e-07
2e-07
2e-07
2e-07
2e-07
2e-07
2e-07
2e-07
2e-07
2e-07
2e-07
2e-07
2e-07
5.20129e-07
2e-07
2e-07
2e-07
2e-07
2e-07
2e-07
2e-07
2e-07
2e-07
2e-07
2e-07
2e-07
2e-07
2e-07
2e-07
2e-07
2e-07
2e-07
2e-07
2e-07
2e-07
2e-07
2e-07
2e-07
2e-07
2e-07
2e-07
2e-07
2e-07
2e-07
2e-07
2e-07
2e-07
2e-07
2e-07
2e-07
2e-07
2e-07
2e-07
2e-07
2e-07
2e-07
2e-07
2e-07
2e-07
2e-07
2e-07
2e-07
2e-07
2e-07
2e-07
2e-07
2e-07
2e-07
2e-07
2e-07
2e-07
2e-07
2e-07
2e-07
2e-07
2e-07
2e-07
2e-07
2e-07
2e-07
2e-07
2e-07
2e-07
2e-07
2e-07
2e-07
2e-07
2e-07
2e-07
2e-07
2e-07
2e-07
2e-07
2e-07
2e-07
2e-07
2e-07
2e-07
2e-07
2e-07
2e-07
2e-07
2e-07
2e-07
2e-07
2e-07
2e-07
2e-07
2e-07
2e-07
2e-07
2e-07
2e-07
2e-07
2e-07
2e-07
2e-07
2e-07
2e-07
2e-07
2e-07
2e-07
2e-07
2e-07
2e-07
2e-07
2e-07
2e-07
2e-07
2e-07
2e-07
2e-07
2e-07
2e-07
2e-07
2e-07
2e-07
2e-07
2e-07
2e-07
2e-07
2e-07
2e-07
2e-07
2e-07
2e-07
2e-07
2e-07
2e-07
2e-07
2e-07
2e-07
2e-07
2e-07
2e-07
2e-07
2e-07
2e-07
2e-07
2e-07
2e-07
2e-07
2e-07
2e-07
2e-07
2e-07
2e-07
2e-07
2e-07
2e-07
2e-07
2e-07
2e-07
2e-07
2e-07
2e-07
2e-07
2e-07
2e-07
2e-07
2e-07
2e-07
2e-07
2e-07
2e-07
2e-07
2e-07
2e-07
2e-07
2e-07
2e-07
2e-07
2e-07
2e-07
2e-07
2e-07
2e-07
2e-07
2e-07
2e-07
2e-07
2e-07
2e-07
2e-07
2e-07
2e-07
2e-07
2e-07
2e-07
2e-07
2e-07
2e-07
2e-07
2e-07
2e-07
2e-07
2e-07
2e-07
2e-07
2e-07
2e-07
2e-07
2e-07
2e-07
2e-07
2e-07
2e-07
2e-07
2e-07
2e-07
2e-07
2e-07
2e-07
2e-07
2e-07
2e-07
2e-07
2e-07
2e-07
2e-07
2e-07
2e-07
2e-07
2e-07
2e-07
2e-07
2e-07
2e-07
2e-07
2e-07
2e-07
2e-07
2e-07
2e-07
2e-07
2e-07
2e-07
2e-07
2e-07
2e-07
2e-07
2e-07
2e-07
2e-07
2e-07
2e-07
2e-07
2e-07
2e-07
2e-07
2e-07
2e-07
2e-07
1.09886e-06
1.25876e-06
1.50349e-06
3.21163e-06
1.6328e-06
1.3037e-06
1.79711e-06
2.92533e-06
1.3364e-06
2.40063e-06
1.70185e-06
1.24785e-06
2e-07
2e-07
2.98515e-06
2e-07
2e-07
2e-07
2e-07
1.10608e-06
2e-07
2e-07
2e-07
2e-07
2e-07
2e-07
2e-07
2e-07
2e-07
2e-07
1.68749e-06
2e-07
2e-07
2e-07
2e-07
1.39761e-06
2e-07
2e-07
2e-07
2e-07
3.41112e-07
2e-07
2e-07
2e-07
2e-07
2e-07
2e-07
2e-07
2e-07
2e-07
2e-07
1.18869e-06
2e-07
2e-07
1.82769e-06
2e-07
6.57362e-07
2e-07
1.18098e-06
1.40198e-06
2e-07
2e-07
2e-07
2e-07
2e-07
2e-07
2e-07
2e-07
2e-07
2e-07
1.05629e-06
2e-07
2e-07
2e-07
2e-07
2e-07
2e-07
2e-07
2e-07
2e-07
2e-07
2e-07
1.35123e-06
2e-07
2e-07
2e-07
2.74302e-06
2e-07
2e-07
2e-07
1.76152e-06
2e-07
2e-07
2e-07
2e-07
1.25952e-06
2e-07
2e-07
2.52368e-06
7.65343e-07
2e-07
2e-07
8.38411e-07
2e-07
2e-07
2e-07
2e-07
2e-07
2e-07
1.1607e-06
2e-07
1.32621e-06
2e-07
2e-07
2e-07
2e-07
2e-07
2e-07
2e-07
2e-07
2e-07
2e-07
2e-07
2e-07
2e-07
1.29485e-06
2e-07
2e-07
2e-07
2e-07
2e-07
5.52973e-07
2e-07
2e-07
2e-07
2e-07
2e-07
2e-07
2e-07
2.29043e-06
2e-07
2e-07
2e-07
2e-07
2e-07
2e-07
2e-07
2e-07
2e-07
2e-07
2e-07
2e-07
2e-07
2e-07
2e-07
2e-07
2e-07
2e-07
2e-07
2e-07
6.27209e-07
2e-07
2e-07
2e-07
2e-07
1.05883e-06
2e-07
1.35702e-06
2e-07
1.20486e-06
2e-07
2e-07
4.48156e-07
2e-07
2e-07
2e-07
2e-07
2e-07
2e-07
2e-07
2e-07
4.50163e-07
2e-07
2e-07
2e-07
2e-07
2e-07
2e-07
2e-07
2e-07
2e-07
9.1021e-07
2e-07
2e-07
2e-07
2e-07
2e-07
2e-07
2e-07
2e-07
2e-07
2e-07
2e-07
2e-07
2e-07
2e-07
2e-07
2e-07
8.33142e-07
2e-07
2e-07
2e-07
2e-07
2e-07
2e-07
2e-07
1.13009e-06
2e-07
2e-07
2e-07
2e-07
2e-07
2e-07
2e-07
2e-07
2e-07
2e-07
2e-07
2e-07
2e-07
6.40106e-07
2e-07
2e-07
2e-07
2e-07
2e-07
2e-07
2e-07
2e-07
2e-07
2e-07
8.74415e-07
2e-07
5.47481e-07
2e-07
2e-07
2e-07
2e-07
2e-07
2e-07
2e-07
2e-07
2e-07
2e-07
2e-07
2e-07
2e-07
2e-07
2e-07
2e-07
2e-07
2e-07
2e-07
2e-07
2e-07
2e-07
2e-07
2e-07
1.08715e-06
7.32356e-07
1.11247e-06
7.86341e-07
1.36803e-06
1.08051e-06
1.90161e-06
2.35633e-06
2.1962e-06
1.79045e-06
1.99402e-06
6.73369e-07
1.40551e-06
2.23218e-06
2.46108e-06
2e-07
2e-07
1.75302e-06
1.10013e-06
2e-07
2e-07
2e-07
2e-07
2.37059e-06
1.31006e-06
2e-07
3.14836e-06
2e-07
3.26304e-07
2e-07
2e-07
2e-07
2.68858e-06
2e-07
2.71024e-06
1.76039e-06
4.21745e-06
2e-07
2e-07
2e-07
2e-07
1.29321e-06
2e-07
2e-07
2e-07
2e-07
2e-07
2e-07
2e-07
1.01988e-06
2.17403e-06
1.60002e-06
2e-07
1.39145e-06
6.71712e-07
2e-07
2e-07
1.65379e-06
2e-07
2.25945e-06
1.8934e-06
2e-07
1.38518e-06
2e-07
1.24494e-06
2e-07
2e-07
1.45945e-06
4.90015e-06
1.36629e-06
2.29444e-06
8.08238e-07
2.24729e-06
2e-07
2e-07
2e-07
2e-07
2e-07
2e-07
2e-07
2e-07
2e-07
2e-07
2e-07
1.60641e-06
2e-07
3.03549e-06
2e-07
1.5373e-06
3.55063e-06
2.90867e-06
2e-07
2e-07
2e-07
2e-07
2e-07
2e-07
2e-07
2.61569e-06
3.71205e-06
2e-07
2e-07
2.01875e-06
2e-07
2e-07
1.12771e-06
2e-07
2e-07
2e-07
2.62438e-06
2e-07
2e-07
2e-07
2e-07
2e-07
2e-07
2e-07
2e-07
2e-07
1.30271e-06
2e-07
2e-07
3.1974e-06
2e-07
2e-07
2e-07
2e-07
2e-07
2.23992e-06
2e-07
1.69389e-06
1.47436e-06
2.24477e-06
1.16303e-06
1.71829e-06
1.75169e-06
1.48343e-06
2e-07
2e-07
1.94537e-06
2e-07
2.88549e-06
1.47199e-06
2.94951e-06
2e-07
2e-07
5.83844e-06
2e-07
1.89399e-06
3.76484e-06
2e-07
2e-07
2e-07
2e-07
2e-07
2.7842e-06
2e-07
2e-07
2.81426e-06
2e-07
2e-07
2e-07
2e-07
2e-07
4.88913e-06
2e-07
2e-07
1.68316e-06
2e-07
2e-07
2e-07
2e-07
2e-07
9.42159e-07
2e-07
2e-07
2e-07
2.65866e-06
2e-07
2e-07
2e-07
2.01718e-06
2e-07
2e-07
2e-07
2e-07
2e-07
2e-07
2e-07
2e-07
2e-07
1.94037e-06
2e-07
1.12088e-06
2.48836e-06
2e-07
1.47854e-06
2e-07
2e-07
2.73587e-06
2e-07
2e-07
2e-07
2e-07
1.62165e-06
2.29579e-06
3.06303e-06
2e-07
2e-07
2e-07
2e-07
2e-07
1.82166e-06
2e-07
2e-07
1.78078e-06
2e-07
2e-07
2e-07
2.63225e-06
2e-07
2e-07
4.79743e-06
2e-07
2e-07
2e-07
2e-07
2e-07
2e-07
2e-07
2e-07
2e-07
2e-07
2e-07
2e-07
2e-07
2e-07
2e-07
2e-07
2e-07
2e-07
2e-07
1.66316e-06
2e-07
2e-07
2e-07
2e-07
2e-07
2e-07
2e-07
2e-07
2e-07
2e-07
2e-07
2e-07
2e-07
2e-07
2e-07
3.51408e-06
2e-07
2.78071e-06
2e-07
2e-07
2e-07
2e-07
2e-07
1.16736e-06
2e-07
1.19451e-06
2e-07
2.70545e-06
3.57519e-06
2e-07
1.32883e-06
2e-07
2e-07
2e-07
1.80537e-06
2e-07
2e-07
2e-07
2e-07
2e-07
1.28705e-06
2e-07
2.11894e-06
2e-07
2e-07
2.72704e-06
2e-07
2e-07
2e-07
2e-07
3.255e-06
2.6143e-06
2.76009e-06
3.34585e-06
2.30703e-06
3.52487e-06
2.79557e-06
2.05528e-06
2.83617e-06
2.49615e-06
3.14942e-06
5.1319e-06
2.51607e-06
3.05939e-06
2.35116e-06
2.46604e-06
2.4001e-06
2.67065e-06
2.76557e-06
2.44514e-06
2.46348e-06
3.11698e-06
1.14624e-06
2.44324e-06
2.39958e-06
2.53018e-06
2.43495e-06
2.39737e-06
2.43249e-06
2.47848e-06
2.41294e-06
2.52855e-06
2.2653e-06
2.39055e-06
1.94662e-06
2.39334e-06
2.3928e-06
2.20353e-06
2.36307e-06
2.62062e-06
2.26049e-06
2.34018e-06
2.32618e-06
2.85396e-06
2.3369e-06
2.36573e-06
4.586e-06
2.30392e-06
2.41262e-06
2.57062e-06
2.68389e-06
3.05883e-06
2.32395e-06
2.28289e-06
2.27138e-06
4.48019e-06
4.67818e-06
3.52682e-06
2.37874e-06
2.7669e-06
2.16022e-06
2.26197e-06
2.26193e-06
2.24919e-06
2.25697e-06
2.60156e-06
3.82553e-06
3.31842e-06
2.18188e-06
2.47733e-06
2.51244e-06
2.21919e-06
2.69348e-06
3.63834e-06
2.14292e-06
2.29107e-06
2.70965e-06
3.03998e-06
2.67793e-06
2.19438e-06
1.77083e-06
2.19115e-06
2.19384e-06
2.34114e-06
3.50337e-06
2.46808e-06
4.07443e-06
2.24804e-06
2.16908e-06
2.16884e-06
2.14586e-06
2.18131e-06
2.25263e-06
3.7793e-06
2.30541e-06
2.84213e-06
3.07018e-06
2.12267e-06
1.84235e-06
2.45073e-06
1.92022e-06
1.67591e-06
2.11462e-06
3.58835e-06
3.95152e-06
2.49551e-06
2.14885e-06
3.54361e-06
4.08325e-06
2.78235e-06
2.05776e-06
2.05835e-06
2.0536e-06
2.15056e-06
2.6761e-06
2.01092e-06
3.13117e-06
2.2931e-06
3.40965e-06
4.3453e-06
1.98908e-06
3.33685e-06
1.97172e-06
2.23245e-06
1.94872e-06
1.95657e-06
1.95154e-06
2.14597e-06
1.85671e-06
4.29513e-06
3.13682e-06
3.02597e-06
1.91638e-06
1.91024e-06
1.89074e-06
2.10424e-06
3.22256e-06
2.26796e-06
3.50326e-06
2.25594e-06
1.96477e-06
2.95892e-06
1.78537e-06
4.03491e-06
1.8469e-06
1.99153e-06
2.03247e-06
2.46293e-06
2.7694e-06
2.09659e-06
1.94816e-06
3.40467e-06
2.47154e-06
1.79127e-06
1.79139e-06
1.96946e-06
2.33851e-06
1.71595e-06
1.97472e-06
2.6163e-06
2.83323e-06
2.10209e-06
2.6983e-06
2.93195e-06
1.67438e-06
2.05422e-06
2.77133e-06
3.24559e-06
2.24118e-06
1.62047e-06
6.32916e-06
2.11842e-06
1.59787e-06
2.22278e-06
2.6412e-06
1.92056e-06
3.09845e-06
1.56216e-06
1.55534e-06
3.53899e-06
1.5269e-06
2.47507e-06
1.63132e-06
2.12028e-06
3.47175e-06
1.4792e-06
1.69404e-06
1.46896e-06
1.73195e-06
7.06113e-06
2.0013e-06
1.66072e-06
3.46258e-06
1.52365e-06
1.41035e-06
1.93779e-06
1.39211e-06
1.39271e-06
2.09342e-06
1.69492e-06
1.36534e-06
2.66659e-06
1.51752e-06
1.35315e-06
1.62484e-06
1.35621e-06
2.22013e-06
2.04082e-06
4.90839e-06
1.7088e-06
1.32087e-06
1.31045e-06
1.38804e-06
1.99446e-06
3.85015e-06
2.712e-06
1.28283e-06
2.85584e-06
1.57449e-06
1.74107e-06
1.24335e-06
2.34194e-06
1.19256e-06
2.19343e-06
1.15785e-06
4.39425e-06
1.61152e-06
2.29164e-06
1.30632e-06
3.16448e-06
1.34625e-06
2.74449e-06
9.74569e-07
3.81898e-06
2.78633e-06
2.87194e-06
8.9876e-07
3.67407e-06
3.1617e-06
2.08978e-06
8.72423e-07
8.19963e-07
8.03798e-07
1.24822e-06
1.23143e-06
8.2858e-07
7.99021e-07
2.17644e-06
2.43835e-06
1.00452e-06
7.44407e-07
1.43745e-06
9.95532e-07
6.82582e-07
2.01983e-06
6.87988e-07
1.92125e-06
1.94732e-06
3.04924e-06
1.12374e-06
1.9334e-06
4.77171e-07
2.28308e-06
3.2893e-07
3.29255e-07
1.90855e-06
3.05584e-07
2.32087e-06
2.4917e-07
2e-07
1.88445e-06
2.54657e-06
1.62361e-06
6.74523e-07
1.58049e-06
1.86236e-06
2.67064e-07
2.40173e-06
2e-07
2.49757e-06
1.65201e-06
7.0701e-07
2.09919e-06
2.15792e-06
2e-07
3.61152e-06
2e-07
2.56565e-06
2.44892e-06
2e-07
2e-07
2e-07
2.10117e-06
5.55917e-07
4.9781e-07
2.8045e-06
2e-07
1.36917e-06
1.38285e-06
2e-07
2e-07
8.24625e-07
2e-07
2e-07
2e-07
2e-07
2e-07
1.98132e-06
2e-07
2e-07
2e-07
1.62129e-06
2e-07
2e-07
1.75749e-06
2e-07
1.53146e-06
2.03659e-06
8.74184e-07
9.81503e-07
2.6725e-06
2.02489e-06
1.3816e-06
1.95592e-06
2.17051e-06
9.80071e-07
1.29102e-06
1.09615e-06
1.40606e-06
2.02049e-06
1.43244e-06
1.61504e-06
1.34825e-06
3.50349e-06
1.79588e-06
6.99269e-07
)


// ************************************************************************* //
