/*--------------------------------*- C++ -*----------------------------------*\
  =========                 |
  \\      /  F ield         | OpenFOAM: The Open Source CFD Toolbox
   \\    /   O peration     | Website:  https://openfoam.org
    \\  /    A nd           | Version:  7
     \\/     M anipulation  |
\*---------------------------------------------------------------------------*/
FoamFile
{
    version     2.0;
    format      ascii;
    class       labelField;
    location    "0.1325/lagrangian/reactingCloud1";
    object      origId;
}
// * * * * * * * * * * * * * * * * * * * * * * * * * * * * * * * * * * * * * //


1190
(
1098
1088
1106
1100
1086
1111
1112
1081
1108
1115
1072
1102
1114
1094
1058
1116
1121
1113
1103
1107
1126
1122
1105
1117
1131
1118
1133
1135
1130
1125
1136
1134
1119
1104
1120
1139
1127
1143
1128
1137
1146
1138
1149
1142
1150
1154
1141
1110
1152
1124
1147
1153
1159
1156
1079
1155
1158
1165
1157
1166
1161
1170
947
1168
1151
1169
1167
1172
1304
1309
1313
1314
1315
1316
1317
1318
1319
1320
1321
1322
1323
1324
1325
1326
1327
1328
1329
1330
1331
1332
1333
1334
1335
1336
1337
1338
1339
1340
1341
1342
1343
1344
1345
1346
1347
1348
1349
1350
1351
1352
1353
1354
1355
1356
1357
1358
1359
1360
1361
1362
1363
1364
1365
1366
1367
1368
1369
1370
1371
1372
1373
1374
1375
1376
1377
1378
1379
1380
1123
1246
1256
1257
1255
1258
1260
1262
1261
1263
1265
1264
1267
1266
1268
1270
1269
1272
1271
1273
1275
1274
1276
1277
1278
1279
1281
1280
1282
1283
1285
1284
1286
1287
1288
1290
1289
1291
1226
1292
1293
1295
1294
1296
1297
1299
1298
1301
1300
1302
1303
1305
1306
1308
1307
1310
1312
1311
1148
1183
1188
1197
1144
1176
1160
1109
1212
1205
1213
1207
1199
1214
1216
1206
1006
1217
1220
1198
1225
1210
1215
1203
1223
1219
1224
1228
1218
1222
1229
1204
1231
1232
1235
1230
1211
1233
1238
1227
1237
1236
1240
1095
1241
1247
1242
1249
1251
1196
1221
1250
1244
1252
1248
1243
1245
1239
1234
1254
1259
1253
1145
1162
1129
1171
1076
1132
1181
1177
1175
1178
1163
1186
1187
1179
1173
1164
1190
1180
1192
1182
1185
1174
1191
1189
1194
1184
1201
1195
1193
1077
1202
1200
1140
1208
1209
740
744
732
737
785
812
798
591
836
813
820
834
831
856
807
827
861
800
862
832
852
859
853
843
863
866
870
865
869
864
835
854
855
871
838
822
875
882
677
884
873
883
868
872
874
826
881
888
878
890
887
762
894
891
860
897
857
895
886
877
867
844
901
849
876
889
908
898
815
896
751
906
909
910
899
879
911
916
914
903
912
921
893
929
920
913
783
927
932
926
885
922
925
923
915
907
930
935
676
892
945
946
902
924
943
937
941
918
944
919
936
630
904
917
948
952
951
938
950
959
961
963
964
955
965
942
954
984
967
956
933
900
969
928
828
949
974
934
962
931
973
958
968
971
972
960
979
982
981
980
966
975
880
978
940
983
953
989
985
990
905
994
992
977
993
988
1000
970
987
957
1002
1003
986
1008
996
1007
976
1010
995
1012
1013
1011
1004
1015
997
999
1014
1017
1018
1016
1019
1005
1023
1024
1025
1020
1021
1027
1001
998
1026
1028
1022
1031
1030
1032
1033
1034
1009
1035
1037
1041
1039
1040
1042
1044
806
1043
1036
1038
1049
1029
1051
1052
1045
1047
1055
1053
1046
1059
939
1048
1050
991
1057
1056
1064
1065
1069
1068
1067
1060
1062
1054
1061
1066
1071
1073
1070
1085
1075
1084
1074
1090
1089
1080
1087
1083
1091
1092
1093
1078
1063
1097
1099
1101
1082
1096
447
568
515
667
699
381
513
522
345
552
534
397
533
546
459
512
426
573
577
578
575
557
579
544
497
560
503
583
587
590
598
569
543
593
531
246
504
596
606
599
597
454
595
612
592
607
610
615
594
472
523
609
603
589
613
620
621
574
608
539
605
622
478
627
604
600
624
584
576
619
538
396
483
602
633
625
614
629
636
623
637
638
617
631
571
635
542
644
572
416
567
650
651
645
647
648
632
656
563
496
655
659
586
652
601
507
660
663
658
559
664
669
672
671
662
657
670
673
675
580
640
680
582
683
668
654
682
679
616
684
674
585
634
686
661
565
548
691
689
643
695
562
641
628
701
704
685
697
618
639
711
709
702
708
718
646
705
710
626
696
721
688
692
694
581
713
678
547
727
720
693
734
715
588
739
735
726
666
731
736
714
690
741
742
743
749
747
752
728
745
733
698
750
707
653
757
700
746
756
687
730
758
760
754
649
611
723
738
765
769
766
761
642
774
773
725
759
764
755
665
724
772
719
775
771
780
776
779
770
784
782
789
768
788
794
796
790
795
777
797
786
804
748
792
802
793
808
791
811
787
799
805
781
810
816
817
801
818
712
823
716
825
778
824
821
819
681
803
717
837
729
703
840
706
842
833
847
763
846
845
850
830
848
722
839
767
814
851
753
841
829
809
858
132
111
167
141
168
112
222
150
231
248
219
204
238
220
229
208
227
210
249
259
256
174
86
245
213
247
264
253
271
263
267
270
278
279
215
266
236
201
282
269
283
293
289
241
240
194
207
297
211
290
250
268
146
301
287
212
224
214
307
153
9
310
281
295
286
262
109
190
306
303
296
312
280
223
285
315
265
258
273
328
275
329
317
324
284
316
243
318
325
334
309
305
336
193
302
294
255
314
288
304
292
313
344
260
239
337
352
254
199
251
308
335
340
323
333
351
330
322
63
277
319
327
339
356
354
342
274
371
383
242
298
338
368
384
369
362
332
355
311
382
394
276
386
299
395
376
374
358
370
390
406
359
379
375
391
380
360
392
372
346
230
404
48
291
419
413
343
331
409
434
398
387
428
417
349
411
361
365
443
400
430
410
435
399
377
401
442
326
446
350
378
425
357
393
431
367
450
461
348
437
462
385
465
456
451
424
408
444
420
353
436
469
341
412
389
366
448
61
458
470
415
422
475
457
481
183
468
439
482
402
453
452
487
403
432
423
471
449
429
464
463
479
484
486
473
490
492
445
474
506
508
500
495
510
476
477
489
440
407
441
485
521
455
518
526
388
514
467
516
498
466
438
502
530
501
494
480
488
535
421
261
509
499
493
520
427
525
433
491
536
524
527
517
511
541
405
550
529
320
554
519
537
528
553
564
561
540
418
551
566
555
532
558
556
549
570
545
460
321
53
113
173
228
272
232
187
363
373
414
300
364
347
505
179
252
234
)


// ************************************************************************* //
