/*--------------------------------*- C++ -*----------------------------------*\
  =========                 |
  \\      /  F ield         | OpenFOAM: The Open Source CFD Toolbox
   \\    /   O peration     | Website:  https://openfoam.org
    \\  /    A nd           | Version:  7
     \\/     M anipulation  |
\*---------------------------------------------------------------------------*/
FoamFile
{
    version     2.0;
    format      ascii;
    class       Cloud<passiveParticle>;
    location    "0.1325/lagrangian/reactingCloud1";
    object      positions;
}
// * * * * * * * * * * * * * * * * * * * * * * * * * * * * * * * * * * * * * //

1190
(
(0.170999 0.418235 0.145082 0.265684) 46200 91719 1
(0.164793 0.0245935 0.395082 0.415531) 46101 91521 2
(0.516494 0.248738 0.133598 0.10117) 46106 91619 1
(0.420493 0.124256 0.172894 0.282357) 46105 91529 2
(0.0349639 0.487623 0.229943 0.247471) 46298 91915 1
(0.591829 0.204437 0.157136 0.0465976) 46102 91524 1
(0.147508 0.0631304 0.421805 0.367557) 46149 91705 2
(0.241892 0.212254 0.166868 0.378986) 46382 92084 2
(0.125715 0.0983828 0.432205 0.343697) 46195 91797 2
(0.510294 0.206106 0.230106 0.0534934) 46192 91791 2
(0.566423 0.223851 0.0699191 0.139807) 46235 91789 1
(0.367503 0.211538 0.315952 0.105007) 46330 91982 2
(0.547744 0.139928 0.218699 0.0936291) 46283 91973 2
(0.210539 0.395231 0.273615 0.120615) 46332 91984 1
(0.246882 0.0352488 0.376622 0.341247) 46467 92256 2
(0.412712 0.160782 0.284286 0.142219) 46282 91971 2
(0.29517 0.33095 0.326027 0.0478531) 46279 91965 2
(0.0836264 0.055456 0.45582 0.405097) 46418 92243 2
(0.370374 0.315228 0.0353897 0.279009) 46372 92066 1
(0.546039 0.134426 0.22686 0.0926739) 46463 92248 2
(0.0265326 0.240708 0.246475 0.486285) 46362 92044 2
(0.0925018 0.053424 0.40393 0.450145) 46410 92139 2
(0.0729586 0.463951 0.40537 0.05772) 46415 92150 1
(0.332183 0.336147 0.321246 0.0104239) 46549 92505 2
(0.0601522 0.400679 0.469229 0.0699394) 46500 92322 2
(0.505407 0.112324 0.135397 0.246873) 46549 92418 2
(0.394787 0.325608 0.273342 0.00626241) 46544 92407 1
(0.473851 0.0276755 0.261079 0.237394) 46544 92495 2
(0.472228 0.23697 0.0273529 0.263449) 46593 92506 2
(0.349781 0.17132 0.324874 0.154025) 46638 92598 2
(0.116617 0.0662523 0.437362 0.379769) 46589 92585 2
(0.0242983 0.509385 0.00123223 0.465085) 46636 92591 2
(0.303023 0.353747 0.213583 0.129647) 46637 92681 1
(0.0174728 0.491409 0.136086 0.355032) 46729 92778 1
(0.594496 0.20707 0.125878 0.0725554) 46679 92765 1
(0.739693 0.135117 0.0851348 0.0400547) 46678 92675 1
(0.865122 0.00786972 0.0593426 0.067666) 46677 92674 2
(0.197401 0.378625 0.0530749 0.370899) 46719 92757 2
(0.0975092 0.369701 0.095982 0.436808) 46769 92857 2
(0.3114 0.0831596 0.343804 0.261637) 46766 92854 2
(0.922717 0.0178605 0.0386112 0.0208118) 46762 92846 2
(0.204647 0.398071 0.263764 0.133517) 46813 92946 1
(0.449093 0.251548 0.255213 0.0441459) 46807 93021 2
(0.1419 0.429396 0.281355 0.147349) 46901 93122 1
(0.169816 0.0632304 0.355548 0.411405) 46942 93203 2
(0.868725 0.0482074 0.0655638 0.017504) 46939 93200 2
(0.573518 0.152573 0.206298 0.0676101) 46944 93295 2
(0.403281 0.170924 0.127989 0.297807) 46990 93300 2
(0.157669 0.435279 0.215037 0.192015) 46986 93291 1
(0.0440598 0.481146 0.102092 0.372702) 47079 93477 1
(0.688819 0.127896 0.032721 0.150563) 47077 93473 2
(0.414323 0.292836 0.140631 0.15221) 47075 93472 1
(0.679401 0.160447 0.0585044 0.101647) 47071 93464 1
(0.525183 0.197897 0.224883 0.0520359) 47073 93553 2
(0.549273 0.225637 0.0595239 0.165566) 47122 93566 1
(0.659617 0.147038 0.163491 0.0298539) 47120 93647 2
(0.00643019 0.496842 0.296123 0.200605) 47205 93732 1
(0.0225394 0.0853713 0.411012 0.481078) 47246 93811 2
(0.56424 0.0540645 0.163633 0.218062) 47251 93822 2
(0.16572 0.330087 0.0875339 0.416659) 47246 93812 2
(0.0618888 0.482509 0.366261 0.0893415) 47342 94003 1
(0.816508 0.091782 0.0265789 0.0651309) 47331 93982 1
(0.165223 0.417621 0.237401 0.179755) 47343 94006 1
(0.0855217 0.472173 0.224958 0.217347) 47426 94171 1
(0.00870061 0.49605 0.368926 0.126323) 47387 94094 1
(0.369292 0.315521 0.145536 0.169651) 47426 94172 1
(0.127926 0.160169 0.428507 0.283397) 47472 94351 2
(0.0950767 0.465918 0.177614 0.261392) 47513 94345 1
(0.099295 0.183375 0.267064 0.450266) 3041 5906 2
(0.617411 0.190846 0.156915 0.0348279) 3441 6688 1
(0.0258541 0.48565 0.27073 0.217766) 3425 6655 1
(0.477734 0.00744931 0.262374 0.252442) 3416 6676 2
(0.0595021 0.470138 0.021724 0.448636) 3391 6589 1
(0.640052 0.178108 0.125855 0.0559848) 3385 6615 1
(0.963118 0.0184179 0.00464843 0.0138158) 3375 6558 1
(0.379255 0.114786 0.19176 0.314198) 3364 6535 2
(0.255537 0.372197 0.00736369 0.364902) 3332 6474 1
(0.560352 0.218907 0.194504 0.0262378) 3324 6458 1
(0.616747 0.191461 0.036023 0.155769) 3307 6425 1
(0.153015 0.343364 0.432605 0.071016) 2920 5709 2
(0.388441 0.0371758 0.305946 0.268437) 3285 6384 2
(0.774939 0.112131 0.0928557 0.0200748) 3262 6337 1
(0.242494 0.278738 0.386951 0.0918169) 3242 6336 2
(0.239032 0.375204 0.22738 0.158383) 3225 6303 1
(0.0406508 0.479055 0.318714 0.16158) 3207 6232 1
(0.0798923 0.0870902 0.460391 0.372627) 3204 6226 2
(0.225555 0.372807 0.317143 0.0844953) 3189 6194 1
(0.627458 0.0723241 0.188398 0.11182) 3162 6180 2
(0.934203 0.0328723 0.0250678 0.0078565) 3147 6115 1
(0.656114 0.135948 0.0262848 0.181654) 3132 6083 2
(0.330961 0.333853 0.228215 0.106971) 3109 6039 1
(0.0226996 0.318632 0.503133 0.155535) 3088 6036 2
(0.363907 0.221748 0.0870584 0.327286) 3087 5995 2
(0.0227117 0.388714 0.489618 0.0989557) 3061 5947 2
(0.281764 0.35844 0.297801 0.0619952) 3043 5910 1
(0.433536 0.282778 0.221272 0.0624143) 3038 5901 1
(0.0976027 0.450545 0.0819213 0.369931) 3000 5828 1
(0.0357313 0.443269 0.0258284 0.495172) 3002 5829 2
(0.490624 0.254809 0.197908 0.0566587) 2720 96688 2
(0.257563 0.0323664 0.371262 0.338809) 2968 5766 2
(0.754141 0.120963 0.0747468 0.0501499) 2941 5710 1
(0.769863 0.110879 0.094122 0.0251355) 2937 5742 1
(0.794426 0.101664 0.0612458 0.0426641) 2901 5671 1
(0.474225 0.262065 0.234101 0.0296094) 2882 5634 1
(0.538227 0.222634 0.107093 0.132046) 2892 5654 1
(0.075375 0.455542 0.203118 0.265965) 2885 5601 1
(0.370099 0.0560423 0.314955 0.258904) 2865 5565 2
(0.019519 0.422714 0.490242 0.0675246) 2850 5536 2
(0.407271 0.296365 0.118663 0.177702) 2826 5489 1
(0.37873 0.30156 0.101901 0.217809) 2808 5490 1
(0.0455675 0.467582 0.385118 0.101733) 2700 5241 1
(0.0866349 0.294473 0.467199 0.151693) 2765 5406 2
(0.267997 0.186711 0.179291 0.366002) 2763 5364 2
(0.247682 0.360818 0.0153412 0.376159) 2746 5331 2
(0.00364335 0.498178 0.433386 0.0647926) 2736 5314 1
(0.152703 0.420174 0.357633 0.0694898) 2710 5299 1
(0.153629 0.0920106 0.423185 0.331175) 2709 5261 2
(0.358007 0.0858157 0.320996 0.235181) 2681 5206 2
(0.647639 0.148015 0.0281657 0.17618) 2663 5169 2
(0.532917 0.233541 0.0264751 0.207066) 2647 5138 1
(0.0600716 0.45514 0.0993668 0.385421) 2627 5137 1
(0.360138 0.123349 0.319931 0.196582) 2630 5107 2
(0.27237 0.363815 0.343447 0.020368) 2606 5058 1
(0.545319 0.22496 0.167831 0.0618897) 2587 5059 1
(0.31988 0.330791 0.0527151 0.296614) 2564 5014 1
(0.025808 0.0864818 0.489372 0.398338) 2540 4968 2
(0.715866 0.139211 0.102805 0.0421178) 2542 4932 1
(0.401861 0.287854 0.130843 0.179442) 2532 4952 1
(0.35086 0.32457 0.146344 0.178226) 2534 4918 1
(0.0398143 0.284589 0.18661 0.488986) 2523 4895 2
(0.183444 0.18424 0.413127 0.21919) 2480 4851 2
(0.0467854 0.476607 0.105419 0.371188) 2440 96702 2
(0.272288 0.363856 0.0612063 0.30265) 2440 96702 2
(0.416583 0.288333 0.0810009 0.214082) 2468 4788 1
(0.0324509 0.39408 0.0896941 0.483775) 2448 4750 2
(0.444229 0.277886 0.185232 0.0926534) 2421 4699 1
(0.082883 0.0100648 0.448494 0.458558) 2424 4703 2
(0.463842 0.26856 0.249327 0.0182712) 2400 97386 1
(0.0318044 0.482909 0.454273 0.0310135) 3840 96632 2
(0.645687 0.176731 0.159005 0.0185766) 4041 7894 1
(0.452069 0.0852073 0.273752 0.188971) 4103 7979 2
(0.0662062 0.467333 0.292096 0.174365) 4083 7940 1
(0.123471 0.0653397 0.438108 0.373081) 3981 7741 2
(0.686566 0.128548 0.0246216 0.160264) 3961 7699 2
(0.20298 0.391811 0.217636 0.187572) 4086 7982 1
(0.205494 0.39459 0.0692516 0.330665) 4087 7945 1
(0.237646 0.376535 0.220868 0.164951) 3902 7623 1
(0.019379 0.469342 0.489151 0.0221277) 4066 7907 2
(0.262492 0.349145 0.0354028 0.35296) 4071 7953 1
(0.109034 0.323093 0.11162 0.456253) 4024 7822 2
(0.279251 0.232994 0.127949 0.359806) 4028 7831 2
(0.366435 0.316893 0.27146 0.0452122) 4005 7788 1
(0.26472 0.368067 0.193911 0.173301) 4055 7886 1
(0.371322 0.315063 0.0142664 0.299348) 3988 7755 1
(0.502593 0.249055 0.175978 0.0723737) 3882 7546 1
(0.109886 0.436779 0.198683 0.254652) 3968 7713 1
(0.043859 0.151356 0.327072 0.477712) 3924 7628 2
(0.542422 0.229263 0.0300464 0.198268) 3948 7677 1
(0.325377 0.176113 0.366664 0.131846) 3956 7729 2
(0.880917 0.00318066 0.059638 0.0562641) 3801 7426 2
(0.579667 0.204257 0.050603 0.165473) 3886 7592 1
(0.135964 0.432809 0.0949282 0.336299) 3887 7558 1
(0.154689 0.423179 0.197267 0.224865) 3844 7474 1
(0.208339 0.389863 0.15515 0.246648) 3867 7516 1
(0.142991 0.423921 0.110012 0.323077) 3848 7479 1
(0.157911 0.413101 0.174786 0.254202) 3804 7432 1
(0.228102 0.278217 0.0922752 0.401406) 3850 7483 2
(0.891647 0.0376979 0.0165326 0.054122) 3763 7314 2
(0.0979832 0.451599 0.176625 0.273793) 3814 7416 1
(0.477211 0.132426 0.261153 0.12921) 3785 7359 2
(0.102577 0.435392 0.319682 0.14235) 3788 7362 1
(0.184805 0.407763 0.156425 0.251006) 3746 7281 1
(0.149227 0.418466 0.193779 0.238528) 3746 7280 1
(0.914666 0.0415749 0.0262077 0.0175512) 3728 7245 1
(0.258727 0.370719 0.345936 0.024618) 3704 7199 1
(0.750701 0.030628 0.12463 0.0940412) 3732 7256 2
(0.758563 0.12066 0.0470229 0.0737545) 3580 6959 1
(0.665424 0.0403379 0.126929 0.167309) 3663 7119 2
(0.325731 0.335806 0.298601 0.0398618) 3665 7161 1
(0.335554 0.319206 0.312404 0.0328361) 3668 7128 1
(0.39054 0.304467 0.0162222 0.28877) 3643 7082 1
(0.748734 0.125628 0.00497195 0.120666) 3649 7092 1
(0.313215 0.00412239 0.339266 0.343396) 3651 7096 2
(0.361556 0.319001 0.131206 0.188236) 3610 7016 1
(0.556615 0.0671416 0.223748 0.152496) 3582 6999 2
(0.784825 0.105434 0.0387671 0.070974) 3591 6978 1
(0.351081 0.31376 0.035582 0.299577) 3586 7007 1
(0.0253783 0.486768 0.219226 0.268627) 3573 6944 1
(0.194794 0.164673 0.230444 0.410088) 3568 6933 2
(0.819808 0.0624441 0.0932182 0.0245296) 3529 6896 2
(0.0628568 0.45589 0.278998 0.202255) 3529 6857 1
(0.545628 0.004547 0.227203 0.222622) 3514 6831 2
(0.18962 0.404843 0.313145 0.0923924) 3505 6813 1
(0.299039 0.350407 0.334528 0.0160266) 3473 6751 1
(0.446946 0.0572662 0.215682 0.280106) 3451 6705 2
(0.0980119 0.114176 0.332061 0.455751) 3467 6736 2
(3.76777e-05 0.499669 0.0325832 0.46771) 4560 96596 2
(0.512361 0.20435 0.244166 0.039122) 5143 10021 2
(0.351554 0.235621 0.0809017 0.331923) 5104 9940 2
(0.135534 0.432043 0.106099 0.326325) 5144 10021 1
(0.893546 0.0534813 0.0506388 0.00233347) 4820 9377 1
(0.130347 0.24321 0.191247 0.435196) 5068 9869 2
(0.00501236 0.496459 0.243879 0.254649) 4440 96602 2
(2.48908e-05 0.499871 0.0152827 0.484821) 4320 96608 2
(0.00485057 0.116657 0.381069 0.497423) 5112 9957 2
(0.30989 0.270348 0.345411 0.0743512) 4983 9701 2
(0.192602 0.403688 0.129799 0.273911) 5030 9793 1
(0.326705 0.0468432 0.338043 0.288409) 4861 9494 2
(0.414537 0.0116907 0.281337 0.292435) 4841 9416 2
(0.384173 0.301274 0.184284 0.130268) 4926 9584 1
(0.473495 0.25879 0.115197 0.152517) 4907 9546 1
(0.405265 0.0985435 0.196171 0.300021) 4801 9337 2
(0.0689609 0.464091 0.29407 0.172879) 4300 96609 2
(0.0976273 0.120315 0.455483 0.326574) 4825 9423 2
(0.143996 0.0357587 0.429492 0.390753) 4807 9388 2
(0.337666 0.105849 0.225946 0.330539) 4661 9065 2
(0.7122 0.130792 0.0521419 0.104866) 4816 9406 1
(0.0559312 0.399951 0.0745194 0.469598) 4682 9106 2
(0.684486 0.158037 0.0661491 0.0913281) 4722 9186 1
(0.449396 0.274387 0.201185 0.0750325) 4300 96609 2
(0.0739572 0.323507 0.460958 0.141578) 4747 9235 2
(0.413021 0.246469 0.301257 0.039253) 4663 9107 2
(0.497234 0.252926 0.248063 0.00177695) 4707 9155 1
(0.284571 0.350668 0.112746 0.252015) 4712 9164 1
(0.0546185 0.330911 0.470829 0.143642) 4581 8911 2
(0.138014 0.425128 0.237465 0.199392) 4583 8951 1
(0.654984 0.172702 0.138837 0.033477) 4628 9003 1
(1.85497e-06 0.495923 0.00190442 0.50217) 4220 96613 1
(0.420389 0.291204 0.035014 0.253394) 4567 8884 1
(0.932849 0.00184385 0.0316479 0.0336594) 4568 8883 2
(0.186617 0.297095 0.423197 0.0930918) 4550 8887 2
(0.125683 0.352117 0.0869047 0.435295) 4525 8800 2
(0.0699424 0.464824 0.456788 0.00844595) 4462 8715 1
(0.171518 0.415387 0.19888 0.214216) 4526 8804 1
(0.0367492 0.483805 0.401323 0.0781225) 4557 8863 1
(0.0672425 0.377761 0.464435 0.0905616) 4482 8718 2
(0.474996 0.260471 0.0446905 0.219843) 4509 8768 1
(0.219121 0.389905 0.374943 0.0160306) 4425 8643 1
(0.154376 0.185116 0.231526 0.428983) 4364 8485 2
(0.273346 0.299835 0.0555745 0.371244) 4260 8283 2
(0.363867 0.167122 0.145374 0.323637) 4344 8446 2
(0.0524762 0.236406 0.238473 0.472645) 4373 8504 2
(0.282789 0.359612 0.141098 0.216501) 4324 8410 1
(0.629952 0.185881 0.181996 0.00217086) 4356 8471 1
(0.231005 0.0646784 0.392583 0.311735) 4315 8429 2
(0.259587 0.234109 0.129945 0.376358) 4240 8244 2
(0.648893 0.10331 0.174733 0.0730638) 4261 8287 2
(0.61625 0.101899 0.197536 0.0843151) 4290 8380 2
(0.578965 0.0943988 0.113169 0.213468) 4263 8288 2
(0.200347 0.399279 0.391612 0.00876232) 4272 8345 1
(0.302876 0.250724 0.0989386 0.347461) 4245 8254 2
(0.111861 0.182816 0.449452 0.255871) 4222 8247 2
(0.27871 0.16784 0.193534 0.359917) 4223 8211 2
(0.218844 0.388048 0.298172 0.0949355) 4182 8169 1
(0.12899 0.436105 0.233158 0.201747) 4141 8051 1
(0.775393 0.109334 0.095022 0.0202507) 4144 8056 1
(0.768124 0.113812 0.0467793 0.0712849) 4149 8066 1
(0.577052 0.179399 0.21708 0.0264685) 4123 8054 2
(0.824844 0.0876598 0.00952876 0.077967) 4120 8012 1
(0.317843 0.0606513 0.34079 0.280716) 47563 94448 2
(0.594908 0.202564 0.161372 0.0411554) 47563 94448 1
(0.469923 0.275612 0.212266 0.0421992) 47648 94615 1
(0.710517 0.0704838 0.14268 0.0763197) 47783 94973 2
(0.0151942 0.492472 0.462805 0.0295294) 47691 94704 1
(0.214577 0.106428 0.392585 0.28641) 47729 94780 2
(0.175223 0.259764 0.152825 0.412188) 47735 94790 2
(0.25176 0.20316 0.171533 0.373548) 47779 94878 2
(0.0327749 0.484269 0.208238 0.274718) 47868 95056 1
(0.371128 0.314655 0.0734013 0.240815) 47914 95150 1
(0.641673 0.14715 0.169409 0.0417685) 47997 95401 2
(0.589585 0.00564596 0.204833 0.199936) 48041 95489 2
(0.802865 0.0983782 0.0932496 0.00550731) 48089 95498 1
(0.064567 0.0372249 0.431634 0.466574) 48135 95589 2
(0.145584 0.360204 0.413259 0.080953) 48089 95585 2
(0.247122 0.0656083 0.310891 0.376379) 48128 95576 2
(0.216912 0.398601 0.233588 0.1509) 48223 95765 1
(0.318046 0.34229 0.0119027 0.327761) 48170 95659 1
(0.632309 0.141797 0.0474979 0.178396) 48265 95849 2
(0.147595 0.419013 0.00745268 0.425939) 48265 95850 2
(0.444386 0.278894 0.243092 0.0336274) 48443 96293 1
(0.0426692 0.501581 0.447334 0.00841565) 48440 96199 1
(0.631217 0.0890181 0.180779 0.0989865) 48441 96289 2
(0.619359 0.134774 0.190163 0.0557036) 48483 96288 2
(0.160037 0.153382 0.267273 0.419308) 48529 96392 2
(0.0657253 0.46742 0.35454 0.112315) 48519 96362 1
(0.280881 0.35989 0.0471406 0.312088) 5387 10507 1
(0.716441 0.141572 0.00744046 0.134547) 5304 10343 1
(0.157123 0.393025 0.432029 0.017824) 5283 10338 2
(0.128733 0.236783 0.435809 0.198676) 5288 10311 2
(0.446031 0.0754326 0.280096 0.19844) 5246 10264 2
(0.138785 0.425549 0.217524 0.218142) 5242 10216 1
(0.817129 0.0700994 0.0118634 0.100908) 5255 10242 2
(0.163341 0.411631 0.0929416 0.332087) 5192 10116 1
(0.0213894 0.49091 0.0171436 0.470557) 43336 85994 1
(0.42355 0.246706 0.287526 0.0422186) 43385 86092 2
(0.280475 0.209108 0.356218 0.154199) 43430 86267 2
(0.468619 0.103284 0.164676 0.263421) 43383 86085 2
(0.364531 0.253199 0.0653709 0.316899) 43379 86078 2
(0.726206 0.103273 0.136685 0.0338356) 43471 86264 2
(0.476028 0.235041 0.2532 0.0357315) 43557 86521 2
(0.322305 0.34714 0.193071 0.137484) 43600 86519 1
(0.180052 0.209195 0.40718 0.203573) 43607 86621 2
(0.553069 0.223923 0.130434 0.0925737) 43555 86432 1
(0.0739979 0.352319 0.118559 0.455124) 43692 86703 2
(0.612665 0.0401489 0.193301 0.153885) 43643 86608 2
(0.306246 0.00985934 0.346691 0.337203) 43639 86600 2
(0.382958 0.311967 0.258524 0.0465502) 43596 86599 1
(0.274265 0.368804 0.256549 0.100382) 43642 86691 1
(0.194648 0.403285 0.389855 0.0122112) 43641 86689 1
(0.348118 0.339859 0.0147806 0.297242) 43594 86507 2
(8.47405e-09 0.935586 0.0644144 9.44574e-10) 43588 140994 1
(0.0649481 0.348802 0.466424 0.119825) 43593 86508 2
(0.776874 0.0969511 0.11114 0.0150352) 43868 87058 2
(0.418723 0.31615 0.223083 0.0420438) 43637 86593 1
(0.412752 0.293106 0.0413488 0.252793) 43596 86512 1
(0.668999 0.0714862 0.0942876 0.165227) 43640 86600 2
(0.838568 0.038874 0.0448672 0.0776906) 43639 86597 2
(0.690828 0.163418 0.0298573 0.115896) 43590 86499 1
(0.463828 0.0486216 0.223018 0.264533) 43639 86597 2
(0.283302 0.0533089 0.331358 0.332032) 43588 86584 1
(0.515088 0.253192 0.074334 0.157386) 43636 86591 1
(0.549918 0.23369 0.209473 0.00691888) 43640 86687 2
(0.50476 0.249173 0.228815 0.0172517) 43637 86596 1
(0.0121933 0.416526 0.0920223 0.479259) 43821 86961 2
(0.220502 0.393728 0.376579 0.00919085) 43633 86673 1
(0.23849 0.380641 0.33798 0.0428885) 43683 86688 1
(0.322398 0.339072 0.0304394 0.308091) 43683 86686 1
(0.527512 0.236692 0.0918107 0.143985) 43726 86772 1
(0.521219 0.161829 0.0842488 0.232703) 43776 86871 2
(0.816461 0.0915949 0.0455437 0.0464) 43728 86778 1
(0.100535 0.463728 0.409197 0.0265398) 43677 86761 1
(0.011028 0.582611 0.239599 0.166762) 43677 86761 1
(0.504623 0.072398 0.186919 0.23606) 43722 86763 2
(0.0547715 0.472792 0.15475 0.317686) 43775 86870 1
(0.0397362 0.482565 0.025144 0.452555) 43772 86863 1
(0.196253 0.256571 0.146757 0.400419) 43771 86862 2
(0.50649 0.247037 0.0859042 0.160569) 43818 86956 1
(0.414765 0.292745 0.255737 0.0367534) 43770 86862 1
(0.45489 0.27312 0.132673 0.139317) 43817 86956 1
(0.120491 0.196801 0.259704 0.423004) 43814 86947 2
(0.101657 0.275701 0.192812 0.42983) 43815 86949 2
(0.75156 0.127012 0.075215 0.0462137) 43817 87041 1
(0.0706196 0.241407 0.441196 0.246778) 43769 86945 2
(0.308252 0.3469 0.291227 0.0536212) 43816 86952 1
(0.303241 0.349146 0.063569 0.284045) 44045 87412 1
(0.402785 0.0943125 0.220503 0.282399) 43810 86939 2
(0.24969 0.385675 0.265685 0.0989502) 43814 87035 1
(0.455964 0.272554 0.187746 0.0837353) 43955 87230 1
(0.581518 0.210983 0.193662 0.0138369) 43811 86942 1
(0.0600143 0.255405 0.226158 0.458423) 43907 87133 2
(0.0402612 0.481313 0.043447 0.434979) 43859 87040 1
(0.395099 0.30462 0.243143 0.0571379) 43909 87225 1
(0.304535 0.348275 0.184775 0.162415) 43908 87136 1
(0.589088 0.0756785 0.129807 0.205426) 43906 87132 2
(0.0133012 0.0262967 0.491169 0.469233) 43859 87125 2
(0.846859 0.0758572 0.069145 0.00813873) 43857 87121 2
(0.611868 0.194357 0.0774927 0.116283) 43905 87132 1
(0.00357585 0.498785 0.104046 0.393593) 43903 87126 1
(0.110835 0.44468 0.0272098 0.417275) 43905 87130 1
(0.81802 0.0673697 0.0572303 0.05738) 43896 87112 1
(0.0784635 0.50246 0.015239 0.403837) 43900 87119 2
(0.0267036 0.487185 0.348149 0.137962) 43950 87222 1
(0.150809 0.425659 0.354446 0.0690868) 43949 87218 1
(0.901334 0.0494882 0.0437134 0.00546439) 44182 87686 1
(0.429252 0.21756 0.0683102 0.284878) 43947 87214 2
(0.819521 0.0440309 0.0875295 0.0489186) 43948 87303 2
(0.738028 0.0336554 0.130946 0.0973705) 43946 87214 2
(0.143762 0.336657 0.111587 0.407994) 43993 87305 2
(0.604486 0.234068 0.150607 0.0108395) 43940 141346 1
(0.00434897 0.000346345 0.664432 0.330873) 43940 189906 2
(0.0706061 0.473891 0.0745461 0.380957) 43989 87297 1
(0.430319 0.23307 0.227668 0.108943) 43985 87377 2
(0.481224 0.0181009 0.242377 0.258298) 44036 87391 2
(0.591025 0.111791 0.196944 0.10024) 44036 87479 2
(0.384917 0.20191 0.292375 0.120798) 44035 87477 2
(0.46896 0.235804 0.0354519 0.259785) 44175 87669 2
(0.025902 0.227264 0.260666 0.486168) 44078 87476 2
(0.524964 0.104497 0.230399 0.14014) 44080 87567 2
(0.251534 0.250464 0.136813 0.36119) 44126 87571 2
(0.190308 0.345013 0.0609841 0.403695) 44127 87574 2
(0.375822 0.417067 0.20606 0.00105028) 44072 141478 1
(0.272737 0.381239 0.256255 0.0897693) 44075 87557 1
(0.0843472 0.45877 0.147863 0.30902) 44124 87570 1
(0.0591837 0.35726 0.114188 0.469368) 44172 87664 2
(0.517852 0.250081 0.0845944 0.147473) 44126 87659 1
(0.778945 0.104602 0.0204636 0.0959889) 44119 87557 2
(0.071804 0.428535 0.0640486 0.435613) 44168 87655 2
(0.0236262 0.0594578 0.433303 0.483613) 44167 87653 2
(0.218904 0.391683 0.374485 0.0149277) 44362 88044 1
(0.491091 0.112356 0.240338 0.156215) 44119 87645 2
(0.356279 0.0557204 0.32173 0.266271) 44166 87654 2
(0.114981 0.264356 0.442234 0.178429) 44260 87842 2
(0.539571 0.230319 0.00703086 0.223079) 44403 88125 1
(0.247109 0.420728 0.0848627 0.2473) 44205 87729 1
(0.642862 0.0326525 0.146022 0.178464) 44206 87732 2
(0.731129 0.00649307 0.134464 0.127914) 44260 87842 2
(0.484272 0.147532 0.256247 0.111949) 44208 87738 2
(0.598596 0.104148 0.193549 0.103706) 44212 87831 2
(0.123302 0.439116 0.264896 0.172685) 44212 87746 1
(0.608375 0.195596 0.0580335 0.137995) 44210 87740 1
(0.109711 0.324085 0.121363 0.444841) 44258 87836 2
(0.627252 0.0371186 0.151916 0.183713) 44256 87831 2
(0.204725 0.112592 0.286574 0.396109) 44443 88205 2
(0.530708 0.235612 0.141336 0.0923443) 44256 87832 1
(0.739641 0.128792 0.0016724 0.129894) 44445 88210 2
(0.290036 0.373046 0.30107 0.0358481) 44302 87923 1
(0.728419 0.054916 0.0834094 0.133256) 44303 87925 2
(0.059316 0.100281 0.463481 0.376922) 44256 87919 2
(0.302001 0.318769 0.318005 0.0612249) 44253 87913 2
(0.0721212 0.247642 0.439502 0.240734) 44253 87913 2
(0.2619 0.370281 0.180225 0.187594) 44299 87920 1
(0.632785 0.183866 0.00228137 0.181067) 44300 87920 1
(0.154433 0.0319565 0.393669 0.419941) 44341 88001 2
(0.305745 0.24872 0.100453 0.345082) 44339 87998 2
(0.301133 0.132126 0.349095 0.217646) 44385 88092 2
(0.688782 0.115436 0.0514419 0.14434) 44385 88089 2
(0.539696 0.169188 0.229752 0.0613645) 44387 88096 2
(0.264026 0.368737 0.0507954 0.316442) 44384 88090 1
(0.0561856 0.425976 0.456488 0.0613503) 44437 88281 2
(0.342988 0.330303 0.29361 0.0330987) 44390 88187 1
(6.35767e-09 0.262194 0.737806 3.48805e-09) 44380 141786 1
(0.417175 0.318577 0.0760104 0.188238) 44384 88175 1
(0.113102 0.170332 0.28349 0.433076) 44433 88185 2
(0.636851 0.0156015 0.166331 0.181217) 44436 88191 2
(0.307858 0.346685 0.340881 0.00457633) 44575 88470 1
(0.650352 0.146062 0.0449197 0.158667) 44428 88175 2
(0.556233 0.222229 0.0134483 0.20809) 44433 88188 1
(0.458106 0.175316 0.261752 0.104827) 44434 88275 2
(0.0591805 0.0492632 0.421283 0.470273) 44472 88264 2
(0.248727 0.383743 0.0454807 0.32205) 44471 88261 1
(0.28601 0.182865 0.356511 0.174615) 44479 88280 2
(0.129776 0.305461 0.130898 0.433865) 44478 88276 2
(0.533661 0.158618 0.232783 0.0749383) 44480 88282 2
(0.168078 0.374366 0.414688 0.0428684) 44474 88270 2
(0.276072 0.15914 0.353339 0.211448) 44478 88363 2
(0.35653 0.322153 0.256837 0.0644798) 44520 88362 1
(0.219731 0.39669 0.0938025 0.289776) 44521 88361 1
(0.12793 0.445314 0.278398 0.148358) 44522 88451 1
(0.0505271 0.124173 0.468916 0.356383) 44611 88629 2
(0.222098 0.000651411 0.388144 0.389107) 44563 88445 2
(0.363463 0.318719 0.139383 0.178435) 44515 88350 1
(0.14383 0.428976 0.253939 0.173256) 44519 88358 1
(0.258107 0.396666 0.321136 0.0240916) 44564 88447 1
(0.0717833 0.52972 0.198997 0.199501) 44512 88432 1
(0.291236 0.335094 0.353389 0.0202805) 44610 88542 2
(0.100078 0.0804089 0.445336 0.374177) 44565 88537 2
(0.408855 0.0854395 0.29053 0.215176) 44565 88537 2
(0.151814 0.446203 0.113977 0.288006) 44564 88535 1
(0.819211 0.0930256 0.0590529 0.0287107) 44563 88533 1
(0.152489 0.0530745 0.423573 0.370863) 44699 88720 2
(0.123903 0.116052 0.437697 0.322347) 44601 88524 2
(0.123746 0.13308 0.42407 0.319105) 44604 88615 2
(0.13279 0.459453 0.195479 0.212279) 44605 88617 1
(0.555013 0.223111 0.0297963 0.19208) 44801 88921 1
(0.0663765 0.466893 0.0586028 0.408128) 44651 88622 1
(0.143768 0.062234 0.36979 0.424208) 44696 88711 2
(0.161256 0.420034 0.166206 0.252503) 44742 88806 1
(0.168257 0.415602 0.0825403 0.333601) 44693 88706 1
(0.00967736 0.503708 0.416381 0.0702336) 44925 89169 1
(0.196321 0.0797338 0.393516 0.330429) 44693 88793 2
(0.0222293 0.48983 0.416485 0.0714564) 44927 89261 1
(0.381326 0.167354 0.309388 0.141932) 44737 88796 2
(0.679876 0.0695114 0.158195 0.092418) 44925 89257 2
(0.547993 0.114099 0.21606 0.121848) 44738 88883 2
(0.194854 0.143355 0.270283 0.391508) 44783 88885 2
(0.0386872 0.495513 0.100582 0.365219) 44877 89161 1
(0.220012 0.391069 0.0235127 0.365407) 44777 88876 1
(0.118724 0.0365949 0.403987 0.440694) 44830 88980 2
(0.503442 0.248576 0.0664133 0.181569) 44782 88884 1
(0.00720581 0.504213 0.380136 0.108446) 44829 89065 1
(0.175437 0.127217 0.411878 0.285468) 44824 88970 2
(0.570582 0.215497 0.181834 0.032087) 44872 89064 1
(0.453847 0.263627 0.24757 0.0349563) 44825 89057 2
(0.424913 0.287564 0.00672989 0.280793) 44823 88966 1
(0.180156 0.420442 0.135434 0.263969) 44877 89161 1
(0.154497 0.422864 0.36267 0.0599693) 44919 89160 1
(0.0790033 0.145322 0.460081 0.315593) 44865 89052 2
(7.55348e-09 0.800735 0.199265 8.60706e-10) 44864 142270 1
(0.163239 0.42053 0.37693 0.0393011) 44919 89245 1
(0.161836 0.420223 0.345245 0.0726953) 44871 89062 1
(0.532826 0.242487 0.174263 0.0504237) 44867 89141 1
(0.0889165 0.432587 0.3456 0.132897) 44865 89137 2
(0.539791 0.254229 0.0940872 0.111892) 44910 89139 1
(0.1416 0.44746 0.209759 0.201181) 44915 89237 1
(0.0673372 0.414874 0.0647969 0.452992) 45054 89427 2
(0.374886 0.339114 0.0345498 0.25145) 44958 89323 1
(0.109831 0.487095 0.00561048 0.397464) 44958 89323 1
(0.144964 0.436865 0.0887067 0.329465) 45002 89323 1
(0.667385 0.172899 0.106391 0.0533258) 45006 89331 1
(0.217744 0.142197 0.383253 0.256805) 45006 89419 2
(0.531076 0.201962 0.0588098 0.208152) 44999 89317 2
(0.145009 0.162705 0.427053 0.265233) 45095 89512 2
(0.224672 0.388282 0.212263 0.174783) 45096 89512 1
(0.212266 0.394724 0.101027 0.291983) 45049 89420 1
(0.0966221 0.45349 0.244443 0.205444) 45000 89320 1
(0.0292288 0.0166908 0.469693 0.484387) 45093 89505 2
(0.0806749 0.459653 0.0749256 0.384747) 45047 89414 1
(0.131163 0.434807 0.0099743 0.424056) 45092 89503 1
(0.900363 0.0534607 0.00126065 0.0449152) 45092 89591 1
(0.669664 0.165685 0.0209277 0.143723) 45091 89504 1
(0.289281 0.355424 0.108314 0.246981) 45091 89502 1
(0.0445396 0.478402 0.319946 0.157112) 45231 89782 1
(0.241685 0.38018 0.0593043 0.318831) 45136 89594 1
(0.867936 0.0661493 0.0159644 0.04995) 45136 89592 1
(0.107512 0.463948 0.305343 0.123198) 45132 89671 1
(0.0945701 0.383328 0.0962421 0.42586) 45180 89679 2
(0.531651 0.193093 0.057858 0.217398) 45178 89675 2
(0.197002 0.402654 0.310819 0.089525) 45178 89676 1
(0.0511147 0.0980394 0.386014 0.464832) 45221 89761 2
(0.409088 0.162004 0.295086 0.133822) 45368 90058 2
(0.519686 0.240524 0.109431 0.130359) 45224 89770 1
(0.0564875 0.478876 0.100713 0.363924) 45269 89857 1
(0.479665 0.262573 0.0424418 0.21532) 45270 89859 1
(0.0220776 0.502524 0.111176 0.364223) 45265 89849 1
(0.784252 0.010476 0.0972331 0.108039) 45270 89860 2
(0.374606 0.28579 0.287758 0.0518454) 45266 89939 2
(0.17675 0.272516 0.38489 0.165844) 45265 89937 2
(0.0107948 0.494567 0.491782 0.00285698) 45269 89860 1
(0.0799936 0.408531 0.458938 0.0525371) 45314 89950 2
(0.402481 0.299488 0.266408 0.0316229) 45307 89934 1
(0.694289 0.0467608 0.110283 0.148668) 45354 90027 2
(0.443853 0.289878 0.188479 0.0777892) 45402 90123 1
(0.307201 0.357731 0.24231 0.0927574) 45353 90113 1
(0.736313 0.13177 0.121661 0.0102563) 45451 90224 1
(0.212912 0.39438 0.34456 0.0481489) 45448 90216 1
(0.113086 0.44386 0.231559 0.211495) 45447 90216 1
(0.164344 0.418325 0.0963813 0.32095) 45399 90118 1
(0.522263 0.239938 0.054977 0.182822) 45446 90214 1
(0.112237 0.444366 0.211827 0.23157) 45447 90214 1
(0.477273 0.188574 0.260853 0.0733014) 45441 90204 2
(0.209879 0.416461 0.236934 0.136727) 45487 90293 1
(0.209157 0.2737 0.368519 0.148624) 45485 90377 2
(0.246054 0.144907 0.365709 0.24333) 45575 90557 2
(0.0711538 0.291105 0.46366 0.174081) 45621 90564 2
(0.303832 0.251393 0.341341 0.103434) 45671 90749 2
(0.147397 0.214307 0.212454 0.425842) 45666 90652 2
(0.62929 0.147886 0.180843 0.0419809) 45715 90837 2
(0.278492 0.138628 0.353184 0.229696) 45667 90741 2
(0.133828 0.433249 0.331625 0.101298) 45667 90656 1
(0.0783826 0.46101 0.433076 0.0275317) 45666 90654 1
(0.489311 0.14363 0.255136 0.111924) 45710 90742 2
(0.415389 0.25934 0.0414947 0.283777) 45758 90835 2
(0.788465 0.054098 0.0569949 0.100442) 45705 90729 2
(0.273424 0.37801 0.11975 0.228816) 45710 90827 1
(0.0219529 0.489107 0.117772 0.371168) 45709 90738 1
(0.0232491 0.382587 0.487621 0.106542) 45755 90832 2
(0.766949 0.0883354 0.116454 0.0282616) 45796 90914 2
(0.331014 0.334516 0.323946 0.0105239) 45797 90916 1
(0.797137 0.0456969 0.0979719 0.0591943) 45840 91087 2
(0.321809 0.342792 0.284082 0.0513171) 45841 91089 1
(0.384513 0.0857611 0.225751 0.303975) 45888 91095 2
(0.243409 0.391045 0.199311 0.166236) 45886 91091 1
(0.191193 0.0901264 0.314273 0.404407) 45887 91094 2
(0.18372 0.413414 0.290292 0.112575) 45888 91183 1
(0.141274 0.0218833 0.429111 0.407732) 45932 91186 2
(0.367961 0.184038 0.132814 0.315187) 45933 91186 2
(0.0294419 0.07313 0.416523 0.480905) 45973 91265 2
(0.675626 0.142518 0.155182 0.0266739) 45975 91357 2
(0.206279 0.263246 0.146568 0.383907) 46019 91357 2
(0.585124 0.135642 0.0817704 0.197464) 46015 91349 2
(0.0684 0.466662 0.142448 0.32249) 46065 91452 1
(0.320903 0.0431569 0.338851 0.297089) 42218 83843 2
(0.00427243 0.470532 0.0312544 0.493941) 38334 75986 2
(0.267869 0.366192 0.364536 0.00140409) 42299 84005 1