/*--------------------------------*- C++ -*----------------------------------*\
  =========                 |
  \\      /  F ield         | OpenFOAM: The Open Source CFD Toolbox
   \\    /   O peration     | Website:  https://openfoam.org
    \\  /    A nd           | Version:  7
     \\/     M anipulation  |
\*---------------------------------------------------------------------------*/
FoamFile
{
    version     2.0;
    format      ascii;
    class       scalarField;
    location    "0.1325/lagrangian/reactingCloud1";
    object      tTurb;
}
// * * * * * * * * * * * * * * * * * * * * * * * * * * * * * * * * * * * * * //


1190
(
0.00134101
0.0027105
0.001301
0.002586
0.00276318
0.006293
0.00232333
0.0026185
0.0024775
0.006197
0.005259
0.00137985
0.0008822
0.0012292
0.00266382
0.00211735
0.006053
0.000928549
0.00044655
0.00018605
0.005933
0.00176355
0.00025805
0.00117505
0.005837
0.00103935
0.005789
0.005765
0.0004315
0.00098835
0.000621
0.00184227
0.00108255
0.00100655
0.00345419
0.000549
0.0025697
0.005573
0.000181686
0.00197404
0.005501
0.00180905
0.005453
0.00186555
0.00116355
0.005333
0.0018545
0.000460069
0.00111555
0.00051335
0.00174185
0.0014005
0.005213
0.00101955
0.00012835
0.00139868
0.00381674
0.005069
0.00137678
0.005045
0.00125151
0.004949
0.00034355
0.004997
0.00019805
0.004973
0.00114526
0.004901
0.0004705
0.00024415
0.001565
0.001541
0.001517
0.001493
0.001469
0.001445
0.001421
0.001397
0.001373
2.405e-05
0.001325
0.001301
0.001277
0.001253
0.001229
0.001205
0.001181
0.001157
0.001133
0.001109
0.001085
0.001061
0.001037
0.001013
0.000989
0.000965
0.00036505
0.000917
0.00027885
0.000869
0.000845
0.000821
0.000797
0.000773
0.000772625
0.000749
0.000725
0.000701
0.000677
0.000653
3.97e-05
0.000605
0.000581
0.000557
0.000533
0.000509
0.000485
0.000461
0.000437
0.000413
0.000389
0.000365
0.000341
0.000317
0.000293
0.000269
0.000245
0.000221
0.000220625
0.000197
0.000173
0.000149
0.000125
0.000101
7.7e-05
5.3e-05
2.9e-05
5e-06
0.000481347
0.0006672
0.002909
0.002885
0.0011622
0.00095555
0.002813
0.002765
0.00137174
0.002741
0.002693
0.002717
0.002645
0.002669
0.002621
0.002573
0.0005972
0.002525
0.002549
0.002501
0.002453
0.00104668
0.002429
0.002405
0.002381
0.002357
0.002309
0.002333
0.002285
0.002261
0.002213
0.002237
0.002189
0.002165
0.002141
0.002093
0.002117
0.002069
0.0008322
0.002045
0.002021
0.001973
0.001997
0.001949
0.001925
0.001877
0.000487016
0.001829
0.001853
0.001805
0.001781
0.001733
0.001709
0.001685
0.00170863
0.001637
0.001589
0.001613
0.00046685
0.000182
0.000184019
3.26769e-05
1.18463e-05
0.00364755
7.74271e-06
0.00011385
0.003941
0.0003502
0.003917
0.000831329
0.0010422
0.003893
0.003845
0.0001477
0.000124346
0.003821
0.003749
0.00068205
0.003629
0.000732797
0.0006175
0.000353502
0.003677
1.85e-05
0.003653
0.003557
0.0017972
0.003701
0.003533
6.53463e-05
0.003485
0.003461
0.003413
0.003509
0.00152485
0.00346063
0.003341
9.10992e-05
0.003365
0.003389
0.003293
9.055e-05
0.003269
0.003125
0.003245
0.003077
0.003029
0.0003075
0.00069655
0.003053
0.003197
0.003005
0.003101
0.000745223
0.003173
0.0018985
0.0009495
0.002957
0.002837
0.002981
0.0009207
0.0004425
0.000718205
0.00104105
0.000986023
0.000974
0.004685
0.00051555
0.000925
0.000881526
0.000871116
0.004565
0.004541
0.000996611
0.000756
0.0010492
0.004469
0.000956578
0.004421
0.0009022
0.000694
0.000590818
0.00056552
0.00076155
0.00031735
0.000499
0.004205
0.0004345
0.000632664
0.000507843
0.004181
0.000354
0.000375
0.004037
0.004013
0.0042715
0.00381255
0.0024805
0.00167505
0.003498
0.00339835
0.00287655
0.0042495
0.00511855
0.00012685
0.00162035
0.00397185
0.0022892
0.0031595
0.0039057
0.0031132
0.0036452
0.000998204
0.000929313
0.0020492
0.00127185
0.0024957
0.002863
0.0034577
0.006933
0.00098835
0.00121705
0.000104
0.00180035
0.00418855
2.32e-05
0.007675
0.0011485
0.0031597
0.00154785
0.0039097
0.0021862
0.00092905
0.00173402
0.00135405
0.00119605
0.00058035
0.00294385
0.00011655
0.00158178
0.0022212
0.000818
0.0012582
0.0020405
0.004237
0.00299035
0.0019702
0.00226085
0.0002267
0.00382205
0.00161235
0.00190535
0.00283017
0.00368955
0.00293305
0.00025105
0.00134605
0.003359
0.002168
0.00242255
0.0023602
5.385e-05
0.005556
0.00300505
0.00137105
0.00209185
0.00093635
0.0031565
0.00313223
0.0013152
0.00155362
0.00154971
0.00432305
0.00500635
0.00300105
0.0036565
9.22e-05
0.00244555
0.00208884
0.00350785
0.00181855
0.00326724
0.000457602
0.003301
0.00260255
0.00212105
0.00216035
0.00686632
0.00066855
0.00171235
0.00346005
0.00656312
0.00455035
0.0032622
0.0022682
0.010157
0.010133
0.00102055
0.006498
0.003037
0.00046185
0.0022652
0.00153735
0.0006022
0.00014705
0.00034655
0.0002477
0.0002845
0.00251085
0.000167722
0.00218062
0.00219685
0.00367971
0.00155835
0.004701
0.0001247
0.002557
0.0018915
0.00209476
0.001227
0.00247035
0.00268255
0.0004465
0.000574
0.0032127
0.00058635
0.00333975
0.00373435
0.00302955
0.00154005
0.0080612
0.009461
0.00095655
0.001891
0.00139455
0.002317
0.0009897
0.00289104
0.00103619
0.00222985
0.00276135
0.00285935
0.009293
0.00149905
0.00349435
0.000994
0.00275485
0.00243155
0.00029105
0.00336155
0.00276335
0.00251235
0.009125
0.00495555
0.001285
0.00266505
0.001837
0.00056635
0.00180985
0.0051235
0.00342655
0.0004085
0.00437405
0.00638407
0.00392901
0.001645
0.00228335
0.00120485
0.008669
0.00163435
0.000876837
0.00151285
0.008621
0.00311035
0.000120744
0.008549
4.685e-05
0.000816
0.008501
0.00095851
0.00103505
0.00201935
0.008453
0.008429
0.003357
0.00189935
0.00173355
0.001141
0.001117
0.000448209
0.000512805
0.0009252
0.008213
0.00206055
0.0012042
0.003117
0.006767
0.00223035
0.00161135
0.003021
0.00224635
0.00156335
0.000877
0.0018482
0.00375555
0.00146735
0.007877
0.00141935
0.000733
0.000688166
0.007805
0.00464634
0.00198235
0.00273385
0.0012427
0.00770862
0.002209
0.007661
0.007637
0.0005542
0.001488
0.007565
0.002493
0.00154035
0.007469
0.00144785
0.00206518
0.002029
0.00376584
0.000278787
0.0008407
0.007349
0.000157
0.007229
0.0032015
0.00339504
0.0001955
0.002665
0.0004437
0.00069005
0.00113085
0.000984264
0.000950098
6.705e-05
0.006893
0.00337112
0.00107035
0.0010015
0.00029135
0.0025552
0.00288231
0.002899
0.00129154
0.00282429
5.47587e-05
0.000575
0.0005297
0.0001427
0.00131685
0.00252535
0.00226755
0.0050692
0.0009427
0.0092327
0.0111283
0.0081612
0.00655455
0.00377055
0.0074407
0.0011127
0.00216685
0.0049362
0.00519355
0.0017292
0.0008682
0.0065092
0.00297255
0.00401
0.000189711
0.0018652
0.00128455
0.00550735
0.004228
0.00659756
0.0051712
0.000420165
0.00467035
0.0040457
0.00199134
0.00630305
0.00272355
0.00185605
0.000294765
0.00304205
0.00169305
0.0044967
0.00564673
0.0023747
0.00280555
0.0040802
0.00221055
0.00499305
0.0048697
0.00495855
0.0048605
0.00388371
0.00208305
0.00640985
0.00356685
0.002042
0.003419
0.000780704
0.0030295
0.0073837
0.00621555
0.00445412
0.00547535
0.00246735
0.00227805
0.00281405
0.0032615
0.00390785
0.00658655
0.002682
0.0045715
0.0045847
0.0003857
0.0029357
0.00372255
0.00456085
0.00470005
0.00423135
0.00268155
0.00288105
0.00474435
0.00499
0.0063555
0.0005907
0.00311835
0.00018
0.00432522
0.00425555
0.00161705
0.0042425
0.004879
0.00066385
0.003284
0.00190085
0.00187216
0.00550785
0.00447705
0.0006825
0.0064765
0.00583435
0.00248055
0.00248867
8.955e-05
0.00541755
0.00195405
0.0001892
0.0028252
0.00710555
0.0053382
0.00084055
0.0031453
0.00768085
0.0048525
0.00346005
0.00383055
0.0019197
0.00271952
0.000636
0.00581705
0.00294135
0.003472
0.00587305
0.00439435
0.0020582
0.0054827
0.00384326
0.00300935
0.002543
0.00456355
9.185e-05
0.00568025
0.00269405
0.00148955
0.0023352
0.00495385
0.00518572
0.0050653
0.00232555
0.00221865
0.00371155
0.00333935
0.00516155
0.00280985
0.00467885
0.00209285
0.00327135
0.00560029
0.0004075
0.00099005
0.0048587
0.0020007
0.00349385
0.00361535
0.0028337
0.0036292
0.00452613
0.0031467
0.00335935
0.00274155
0.0008875
0.00273735
0.0042801
0.001917
0.0058127
7.27e-05
0.00607109
0.0034015
0.0015752
0.00405905
0.0009122
0.00453485
0.000430136
0.00475535
0.000776224
0.00319605
0.00255321
0.0034662
0.00209855
0.00097185
0.0046912
0.00440878
0.00605159
0.00151305
0.0042947
0.000882712
0.00301585
0.0026072
0.00142744
0.0012637
0.00256735
0.00042455
0.0005832
0.00477635
0.003552
0.00304065
0.0036107
0.00559634
0.0008802
0.000846997
0.00524572
0.00020005
0.003636
0.00384705
0.00515205
0.00547135
0.00314255
0.00376605
0.0016111
0.00153655
0.00046755
0.0033467
0.00129404
0.00091985
0.00462285
7.42e-05
0.0017357
0.002057
0.00158135
0.00130585
0.00259485
0.00064935
0.0049585
0.0009735
0.0010005
0.00479185
0.00275105
0.0007087
0.0027392
0.0047615
0.00561619
0.0030107
0.0010762
2.685e-05
0.0001547
0.000734
0.0005635
0.0009692
0.00105856
0.0021692
0.0006585
0.00020785
0.00129705
0.000804212
0.00521903
0.00456154
0.0030947
0.005185
0.00401855
0.0024347
0.00297185
0.0037727
0.0046605
0.0038832
0.0028282
0.00164185
0.00018005
0.00177145
0.004803
0.004985
0.000182
0.0038182
0.00289524
0.0021227
0.0034847
0.00405833
0.00344835
0.00527706
0.00061805
0.0045152
0.00214355
0.00509905
6.785e-05
0.0032927
0.00202035
0.00320835
0.00490655
0.0002995
0.00216085
0.005461
0.00452735
0.00131555
0.004749
0.0053985
0.00033835
0.0036787
0.00396576
0.00053635
0.00024235
0.00679319
0.00017035
0.0031227
0.00108885
0.00345705
0.00406822
0.001248
0.00216635
0.0011627
0.00359405
0.00404635
0.0041245
0.000309496
0.0023382
0.0102915
0.00747364
0.00894905
0.0063437
0.0075827
0.0030712
0.00957655
0.00459155
0.00467985
0.0110287
0.00944535
0.0106522
0.0103368
0.00756635
0.0092685
0.0095382
0.0078527
0.0064905
0.00230016
0.000362579
0.010478
0.0107517
0.0114506
0.0029191
0.0103311
0.004624
0.0111805
0.00844499
0.00427309
0.0111912
0.00783485
0.0079157
0.0087755
0.0017122
0.009566
0.0061847
0.0085712
0.0046412
0.00942189
0.00972105
0.00215714
0.0109782
0.00439905
0.0090462
0.0015267
0.0077962
0.0020445
0.00371714
0.00192235
0.00578455
0.0042242
0.00493561
0.00336885
0.00922105
0.00443635
0.00444368
0.00416571
0.0027627
0.0034735
0.003263
0.0072157
0.00187235
0.00227072
0.0108888
0.00298628
0.00617855
0.0053802
0.0060157
0.00684214
0.00980135
0.00913355
0.00060705
0.00908055
0.00387035
0.0008602
0.00822355
0.00999185
0.0078127
0.00659705
0.0097682
8.855e-05
0.00169873
0.00965055
0.00363185
0.0045357
0.00977635
0.000177779
0.00387835
0.00670699
0.0052057
0.00409585
0.0088275
0.00982822
0.0005467
0.00968285
0.0071147
0.00822005
0.00715821
0.00756955
0.004471
0.010504
0.0074332
0.00577308
0.00509055
0.002002
0.003845
0.0100477
0.00852685
0.000136704
0.00106255
0.00445821
0.009066
0.00955056
0.00104513
0.00689905
0.000550493
0.00694635
0.0086667
0.00554555
0.00698985
0.00401055
0.00571635
0.00711955
0.00732335
0.00517321
0.0049565
0.000463031
0.0079887
0.00460046
0.00237505
0.00141055
0.00859155
0.00921
0.00272964
0.0057012
0.00716905
0.00451385
0.0094582
0.00804155
0.0034822
0.00273505
0.00379805
0.00398505
0.0083937
0.00621412
0.0051977
0.00771935
0.007608
0.00566855
0.00246255
0.00663785
0.00303035
0.0066302
0.00876955
0.00912969
0.0086777
0.00872135
0.00581064
0.00893785
0.0063842
0.00482334
0.00765885
0.0054532
0.00456805
0.00127335
0.0001185
0.00758505
0.00253055
0.00691485
0.0050865
0.00165285
0.00686805
0.00553585
0.00363505
0.00265705
0.00654755
0.0023382
0.0013495
0.00661885
0.00040635
0.0025762
0.00741285
0.0037277
0.00804605
0.00275485
0.0006955
0.00387485
0.00202099
0.008219
0.00606159
0.0090897
0.0075627
0.0052107
0.0027692
0.0071545
0.00160735
0.00032985
0.007581
0.00847105
0.0045132
0.00529385
0.00203235
0.00788685
0.00537757
0.0035897
0.00722366
0.0052997
0.0050242
0.00398302
0.00579085
0.00398269
0.008319
0.00853105
0.00794055
0.00108635
0.000674293
0.0083235
0.00764605
0.00069335
0.00617735
0.00538607
0.0058597
0.0014295
0.00127355
0.001679
0.00259355
0.00272455
0.00483885
0.0004547
0.00544985
0.00527869
0.00742055
0.00453664
0.0011967
0.00638905
0.0034382
0.00333471
0.00256857
0.0016897
0.0052407
0.0026255
0.004844
0.00460835
0.00718332
0.0035727
0.0037295
0.00303635
0.0076932
0.0053857
0.0042285
0.0031937
0.0058795
0.00313585
0.00582619
7.62e-05
0.003445
0.0056525
0.00292435
0.00612655
0.00453205
0.0072738
0.0064233
0.00047205
0.00176623
0.0063815
0.00188805
0.00400771
0.00347855
0.000109038
0.00238871
0.0014087
0.00760885
0.00414955
0.00331335
0.00243785
0.00418605
0.00463885
0.00466885
0.0068482
0.0045282
0.00376435
0.00115905
0.0022457
0.0070992
0.004927
0.0010267
0.00394659
0.0075847
0.00374655
0.00621335
0.00498269
0.00713171
0.0071207
0.00534835
0.0048488
0.00033785
0.0036175
0.00536755
0.00805185
0.0002662
0.00129992
0.00093635
0.0011197
0.00622855
0.000987297
0.0056707
0.00121043
0.00590685
0.0037877
0.00567301
0.00486505
0.00624805
0.00606135
0.0044642
0.00518205
0.0029702
0.00367485
0.00521505
0.0134925
0.0139286
0.0060322
0.0122572
0.0104938
0.0104618
0.010313
0.009732
0.0039837
0.0099192
0.00679485
0.00213355
0.0108522
0.0095275
0.0077602
0.00565885
0.0112519
0.0182317
)


// ************************************************************************* //
