/*--------------------------------*- C++ -*----------------------------------*\
  =========                 |
  \\      /  F ield         | OpenFOAM: The Open Source CFD Toolbox
   \\    /   O peration     | Website:  https://openfoam.org
    \\  /    A nd           | Version:  7
     \\/     M anipulation  |
\*---------------------------------------------------------------------------*/
FoamFile
{
    version     2.0;
    format      ascii;
    class       vectorField;
    location    "0.1325/lagrangian/reactingCloud1";
    object      U;
}
// * * * * * * * * * * * * * * * * * * * * * * * * * * * * * * * * * * * * * //


1190
(
(361.967 8.98529 -1.68708)
(433.227 -22.2336 3.77491)
(423.312 1.90677 -9.76619)
(442.3 -11.1241 11.0694)
(364.304 22.218 -0.525238)
(440.997 -0.0253484 2.62116e-06)
(451.981 -3.8686 -8.1054)
(361.71 14.0042 9.27964)
(433.082 -1.55867 0.827982)
(440.391 -0.0591665 -2.43779e-05)
(442.677 -13.946 -5.62771)
(392.707 1.29372 0.652822)
(437.678 -17.0737 -8.64859)
(385.864 13.0178 -3.32859)
(356.332 6.57274 4.3797)
(436.876 -1.10024 -3.50391)
(440.476 -0.0437954 -1.19181e-05)
(368.693 5.91547 -16.2888)
(427.373 -2.55633 0.554126)
(378.529 -1.209 2.28971)
(440.672 -0.0084015 -5.70086e-07)
(437.726 -14.6492 14.2115)
(440.347 2.48766 5.35091)
(401.832 -2.3736 12.3324)
(439.775 -0.0377318 -4.78148e-05)
(432.464 -4.2167 -7.11617)
(439.855 -0.0214791 -1.67906e-05)
(439.748 -0.0148669 -1.32213e-06)
(419.828 -7.30889 -2.67126)
(397.814 -0.473717 -0.252471)
(437.8 -0.280147 -0.841391)
(434.132 4.20108 1.17859)
(428.033 -8.43095 6.06146)
(356.211 10.9002 0.821329)
(426.982 -5.07737 -4.08954)
(440.692 5.15248 11.5858)
(439.563 -12.6197 4.07708)
(439.674 0.0484439 2.79043e-06)
(421.164 1.08429 0.151918)
(446.17 -8.48957 -8.2841)
(439.645 0.0684077 -4.84578e-06)
(417.99 2.8982 -1.30036)
(439.404 0.124605 1.24076e-06)
(430.368 0.199831 0.278865)
(437.491 2.51215 -0.335395)
(439.079 0.234871 -2.25021e-05)
(433.74 -4.08503 -1.52007)
(405.563 2.4611 -10.11)
(440.871 -1.5163 0.536964)
(398.509 -0.831463 -1.2031)
(427.527 0.146737 0.0207864)
(429.829 1.01443 4.51736)
(438.587 0.405021 -5.6439e-05)
(436.727 -7.86133 7.71215)
(414.532 7.8664 -2.82287)
(433.469 3.26918 -1.0882)
(444.072 -11.6498 3.67426)
(437.896 0.551149 -6.92409e-07)
(433.778 -7.29185 5.25454)
(437.849 0.489758 -0.000149181)
(415.006 13.2797 -2.20278)
(437.27 0.310667 -5.25762e-06)
(407.956 -2.30292 0.113452)
(435.74 1.29866 -4.88287e-05)
(406.994 2.19632 -1.23251)
(435.516 1.343 -0.000111067)
(435.161 2.96718 -5.94528)
(435.068 1.28515 -1.67729e-05)
(166.845 6.1709 -22.0886)
(83.8794 30.2452 13.3849)
(120.309 19.544 0.00211428)
(133.042 3.17516 -1.5604e-06)
(131.681 9.92375 5.73576e-05)
(126.003 20.0673 -0.000338029)
(135.577 4.65177 6.54712e-06)
(128.642 21.9804 -0.0013035)
(137.001 8.76529 8.79342e-06)
(132.589 23.3623 0.000596868)
(137.279 16.6169 3.65431e-05)
(136.315 3.88031 3.29093)
(139.857 19.768 7.26923e-06)
(138.316 27.6229 -5.29889e-05)
(140.779 27.2972 -0.00456318)
(145.446 20.1709 -0.00101183)
(147.259 14.2727 -0.000437773)
(149.718 19.769 -0.000339964)
(149.789 11.2835 -0.00087389)
(153.767 23.5081 -0.00115742)
(153.392 13.3529 -4.65201e-05)
(152.515 6.55688 -0.000145516)
(155.128 9.8762 -0.00105851)
(156.311 10.0967 -0.000914448)
(158.233 10.818 -0.000536701)
(166.13 19.0987 -0.0055679)
(166.038 15.1969 -0.00399183)
(156.272 1.18833 -0.000152819)
(174.285 13.371 -0.887215)
(168.799 11.9597 -0.00434011)
(118.689 -2.11279 5.46247)
(162.278 5.68804 -0.000140518)
(169.737 9.50009 0.000292849)
(160.022 1.1794 3.03486e-06)
(169.477 6.12376 0.000235094)
(169.277 4.68314 8.82229e-05)
(162.183 2.86488 2.61196e-05)
(166.411 4.37667 0.000317955)
(166.025 3.9019 -0.00024184)
(163.547 2.64946 -0.00101455)
(165.567 3.05647 -0.000585124)
(164.922 2.62131 0.000203228)
(107.799 0.459432 0.289842)
(166.131 2.15409 0.000639468)
(167.008 1.40192 -0.000462989)
(165.928 1.78995 -0.000778727)
(163.876 0.565291 -3.05709e-05)
(164.987 1.38359 3.5669e-05)
(165.097 1.28877 -0.000114011)
(166.31 0.247608 -7.26236e-05)
(166.274 0.564767 -0.000134807)
(165.633 1.00983 -2.86104e-05)
(165.613 0.929362 0.00033978)
(165.256 0.840415 -7.94291e-05)
(165.745 0.718028 -0.000243625)
(165.618 0.742181 5.04642e-05)
(165.817 0.404638 0.000396949)
(156.346 -0.154625 -4.69432e-05)
(165.781 0.0520869 0.0001338)
(165.415 0.563116 3.95341e-05)
(165.373 0.462456 -2.33969e-05)
(165.719 0.21898 0.000384428)
(147.098 -0.152949 -9.01763e-05)
(73.0616 -0.103603 -2.13261e-06)
(94.7943 -0.133714 -1.29369e-06)
(165.581 0.556856 4.97033e-05)
(165.586 0.5422 -2.37238e-05)
(165.597 -0.0191688 -7.85688e-07)
(165.607 0.224941 4.38529e-09)
(164.111 -0.190503 -9.22871e-07)
(22.2645 -4.32186 -7.66346)
(93.3766 -13.316 -3.21804)
(112.791 -17.7137 0.000727746)
(112.775 -17.0638 0.00145633)
(96.3832 -14.8772 0.0487732)
(90.866 -11.7818 -1.18233)
(117.971 -15.2481 -0.000208017)
(118.512 -13.7982 -7.41772e-05)
(88.2075 -13.3873 2.98619)
(117.498 -13.496 0.00330831)
(123.949 -9.24239 -7.44001e-05)
(110.396 -13.5405 -0.000376549)
(116.989 -10.9669 0.00150078)
(112.584 -12.5017 0.000333908)
(126.093 -4.21643 0.000413271)
(116.172 -9.14413 0.0018315)
(94.5471 -8.96043 3.12999)
(114.082 -8.60187 3.56733e-05)
(104.145 -10.278 0.0010906)
(114.386 -7.88013 0.00123316)
(122.251 -2.38082 -5.20101e-06)
(86.9322 -5.16654 0.421261)
(108.533 -7.30986 0.000184957)
(111.124 -6.32006 0.00235113)
(103.747 -6.57597 0.00191776)
(109.087 -5.51722 0.000157935)
(110.397 -4.15649 0.000128438)
(100.733 -5.26761 0.000849706)
(114.339 -3.13109 0.000172104)
(96.0523 -3.19926 0.000420164)
(119.078 -1.05408 0.000908175)
(104.543 -2.76886 0.00125139)
(110.4 -1.42508 0.000393223)
(105.355 -0.74444 0.00159751)
(105.83 0.0766414 0.000433626)
(110.965 1.02149 2.63293e-05)
(98.9894 1.44931 0.0042979)
(117.399 0.812974 0.000134402)
(57.1383 7.50846 -5.11834)
(95.4824 4.23615 0.00054357)
(103.509 3.95842 6.53953e-05)
(112.259 4.17434 0.000108281)
(98.4788 5.69531 0.00393529)
(114.346 4.34136 5.53099e-05)
(117.488 3.90422 1.70375e-05)
(117.153 5.50151 0.000923678)
(95.9627 5.4061 3.89905)
(120.079 5.5298 -3.51803e-05)
(110.229 8.82507 5.30358e-05)
(122.39 4.66843 0.000911144)
(117.261 8.7204 -0.000268648)
(120.479 9.07137 -0.000110642)
(120.841 9.69102 -0.000551238)
(127.136 4.44006 6.65629e-06)
(114.263 14.1674 0.000970038)
(128.24 5.65777 4.43274e-05)
(128.821 8.48861 -0.000126011)
(123.13 13.5985 -0.000485209)
(59.7602 -17.9566 -3.06604)
(352.979 -4.99059 0.879326)
(339.979 -11.2773 0.785401)
(343.905 -12.3914 0.78061)
(248.454 -68.0299 -8.24899)
(325.853 -26.5867 2.45721)
(59.4079 -20.0213 8.41144)
(41.1547 -7.66649 -1.45854)
(336.833 -5.95413 -0.00084258)
(317.68 -23.6383 -1.17058)
(321.375 -12.4914 -0.00181518)
(275.299 -50.5558 2.9994)
(257.833 -61.7825 -7.397)
(291.714 -30.8776 0.000954131)
(283.14 -30.1014 0.000453253)
(233.396 -64.3446 -2.84056)
(44.5473 -15.4664 -4.48242)
(257.497 -39.9507 0.000873917)
(249.644 -33.3137 0.000165109)
(182.092 -51.2063 -0.00459372)
(247.135 -8.82751 2.34339e-05)
(194.676 -53.5713 -0.797294)
(219.888 -52.3122 9.91141)
(69.2018 -25.2015 0.0121029)
(225.706 -33.7838 0.00142255)
(197.807 -48.9389 2.11257)
(213.864 -35.5999 0.00186165)
(215.558 -20.6081 0.000127682)
(170.363 -43.8761 -1.0267)
(177.278 -42.7666 -0.000977159)
(195.233 -29.5622 0.000257359)
(34.1591 -8.65766 -0.00673821)
(180.312 -30.4463 0.00209567)
(180.994 -28.4207 4.19823e-06)
(181.038 -22.8762 0.00016603)
(167.383 -35.3147 0.00368238)
(147.4 -41.659 -1.19642)
(171.729 -31.1674 0.00194131)
(183.512 -7.19358 0.000729516)
(154.266 -37.552 -0.130107)
(169.572 -24.7082 -3.88251e-06)
(151.913 -31.3947 -3.36162e-05)
(139.979 -28.8224 0.000166256)
(85.1444 -17.5539 1.28036)
(137.443 -28.1218 0.000150843)
(151.997 -13.4875 0.00104315)
(136.549 -27.3049 0.00212091)
(151.976 -7.01217 0.000466516)
(147.893 -7.56092 -1.26999e-05)
(84.3287 -21.2876 -0.436814)
(119.039 -36.1015 -16.3093)
(141.068 -16.2484 -2.29295e-05)
(125.142 -26.5164 -0.00052348)
(140.93 -13.3094 4.0194e-07)
(127.485 -23.1926 0.00244024)
(118.892 -25.6822 0.250626)
(118.868 -24.5858 0.0019727)
(108.118 -25.143 -4.97905)
(94.4976 -18.6608 -0.242288)
(117.406 -18.962 -0.00027093)
(126.194 -13.6525 -2.86877e-05)
(113.523 -19.18 -0.00126389)
(94.7189 -19.0624 5.7667)
(383.357 2.54517 -7.51665)
(393.996 29.3915 0.578022)
(436.996 -0.790077 2.23885)
(396.398 2.24333 0.0115849)
(432.73 -17.5113 -0.9598)
(431.258 0.789116 9.81416e-06)
(430.41 6.18588 0.988692)
(419.147 -4.83087 -7.95186)
(424.952 -2.04263 -11.014)
(408.478 -0.122491 -1.01318)
(422.028 0.942652 2.81099e-05)
(420.18 0.797844 2.21756e-06)
(408.082 -0.000497776 6.54638)
(389.554 8.48809 -1.53878)
(408.602 -7.47744 12.2574)
(417.364 0.339485 0.000101843)
(379.475 10.7514 6.94654)
(415.324 0.0644883 2.66734e-06)
(405.94 -3.90273 6.19743)
(402.972 -2.23665 0.65268)
(379.238 -7.86714 -1.00675)
(411.731 -5.94258 -3.78897)
(400.063 -2.61405 -1.11359)
(398.034 -0.715824 -1.59794)
(406.473 -29.0628 -14.4576)
(394.969 0.00619883 -0.000136751)
(391.536 2.50672 -10.2253)
(375.525 -1.07656 -1.079)
(351.307 -19.3574 -6.34021)
(373.594 -3.47885 -0.000610301)
(372.462 -5.24962 -1.30829)
(321.386 -9.78541 -1.38339)
(366.691 -0.5095 6.89713e-05)
(354.394 -3.0611 0.000125333)
(344.022 -12.9024 -6.79514)
(333.449 1.13764 -0.390631)
(327.983 -1.82917 -6.7179)
(362.544 23.9346 19.9232)
(372.36 1.90231 -1.04138)
(355.204 15.965 3.74586)
(334.122 7.68913 -20.2975)
(371.244 0.851126 6.35643)
(349.035 15.0756 5.4356)
(382.607 5.74581 -5.90092)
(358.373 13.5254 4.70117)
(379.353 4.32559 -8.28789)
(408.904 -8.8917 -3.1989)
(405.491 1.5132 2.53446)
(393.043 -4.08511 -1.9254)
(391.289 -4.09321 5.04523)
(420.872 3.67932 0.996249)
(440.737 0.0013456 -0.0449307)
(426.679 -3.19659 2.39912)
(356.251 -8.07412 -7.28778)
(423.281 -20.3135 14.4022)
(413.257 5.5971 13.9589)
(410.918 -1.13595 -0.592919)
(417.655 -5.05961 -2.43234)
(442.278 -5.91464 -3.68378)
(416.563 -0.00513116 1.83191)
(443.002 -0.672701 -0.732776)
(437.99 -0.37809 -0.160363)
(424.588 8.31251 -0.519953)
(435.028 -4.52932 -22.0797)
(360.238 14.8112 5.95415)
(439.929 -10.1136 1.83942)
(416.209 -5.22116 5.45265)
(421.101 -4.89542 -2.88719)
(427.493 -19.5792 -1.69498)
(386.875 6.70894 -3.93856)
(414.332 3.23009 7.85967)
(442.608 -0.310559 -0.121784)
(444.608 4.06346 -1.15588)
(445.055 1.61932 6.72812)
(389.014 7.57755 9.15775)
(429.488 2.1113 -10.3028)
(430.784 -6.86433 -9.77828)
(388.979 0.354047 -0.182332)
(427.075 -0.261272 0.0443146)
(409.057 -4.46441 -3.16503)
(427.32 -0.15226 -0.599906)
(429.528 -2.97799 28.5543)
(415.549 -3.53512 7.67445)
(433.546 -0.257956 -2.00768)
(417.749 -0.0540275 -0.630615)
(348.682 0.565705 -0.617635)
(441.932 -3.50803 1.46378)
(429.134 -0.232267 -5.55204)
(370.311 5.05686 -0.613408)
(442.728 0.142504 -7.03029)
(393.597 5.02997 10.604)
(406.137 8.4047 0.759396)
(369.33 12.265 0.985046)
(384.982 2.11095 0.314553)
(400.354 3.79032 5.56316)
(419.424 -5.74606 -4.0224)
(435.615 1.02359 -1.14963)
(405.835 4.62688 2.08853)
(413.323 -9.44677 -3.5852)
(410.547 -0.308038 -0.181203)
(443.498 -0.545004 0.156584)
(457.32 -9.23401 -8.30344)
(394.742 0.108026 -3.34761)
(414.86 -4.29822 2.23464)
(333.664 5.56132 -7.59681)
(426.644 -2.113 4.36385)
(414.18 7.456 5.7139)
(430.666 2.85888 1.30721)
(408.806 -0.986724 -0.600149)
(441.816 1.23161 -11.1971)
(440.832 -0.0208324 0.707049)
(443.19 -2.88453 -2.65142)
(435.926 -7.98907 10.116)
(418.634 -0.437069 2.92812)
(417.881 -0.00318545 -0.336057)
(431.974 2.40547 2.32518)
(371.802 13.0399 24.967)
(439.484 2.90272 -1.20714)
(419.386 -0.0378628 -1.63442)
(399.97 5.86362 8.17347)
(397.864 -3.02013 -3.51181)
(437.916 3.04373 -1.06467)
(444.653 -6.3868 -9.42126)
(415.06 1.43494 1.08112)
(387.589 -0.655153 -0.380128)
(423.858 3.47441 -5.3365)
(447.107 -8.62849 -6.17861)
(417.038 -8.15078 10.2369)
(422.715 -3.1069 -1.21731)
(319.02 21.1113 -14.4781)
(440.917 -6.60498 6.17068)
(432.749 -1.25003 0.946386)
(377.589 -1.80027 15.5074)
(335.199 28.2672 1.89895)
(442.984 0.0785227 -2.48761e-05)
(442.873 0.114042 1.89287e-06)
(371.255 8.96752 1.5765)
(444.381 -8.35531 -12.0792)
(421.494 5.32829 -2.23106)
(416.07 13.0437 -4.88634)
(437.17 -8.08908 5.64045)
(414.812 -4.06241 17.1509)
(424.693 0.578494 -3.27807)
(351.82 -2.44069 2.23884)
(416.32 -20.9279 -9.63965)
(343.54 -1.35288 1.23134)
(404.993 -0.617158 -0.0455232)
(386.915 3.14354 1.95393)
(421.759 -3.32372 -1.34875)
(440.255 -0.167482 -0.192015)
(434.039 -0.597547 -4.95911)
(417.956 -4.20111 -11.8259)
(426.72 -0.579402 -4.77469)
(449.526 -3.96545 3.52886)
(443.056 -1.79612 -7.52608)
(440.126 -1.54222 1.40066)
(440.164 -0.274758 -0.539357)
(429.451 -2.49111 2.59303)
(437.457 -0.976608 3.57736)
(376.834 5.61217 3.74977)
(419.45 3.37523 4.92568)
(442.277 0.000992121 -0.038524)
(442.926 -0.844619 -0.567572)
(416.735 -0.393582 -1.07772)
(406.869 2.74077 9.77868)
(351.789 -10.0695 9.29913)
(449.539 -6.83334 1.77181)
(417.624 -6.67996 6.65959)
(394.93 -2.77306 7.09276)
(436.266 -8.51206 0.233303)
(442.823 0.00555693 -1.67466e-05)
(393.228 -1.52998 0.496178)
(415.093 5.92081 -8.65824)
(386.12 -1.23361 1.16658)
(436.937 2.1142 -0.963155)
(400.741 -1.5568 -0.79792)
(424.197 -3.35963 -4.74837)
(429.167 8.15659 -1.27637)
(408.396 4.10606 -6.77142)
(388.718 0.327961 3.98925)
(430.509 0.773728 3.78194)
(442.837 -0.0156842 1.47559e-05)
(443.917 4.65976 -1.07472)
(431.684 1.43042 -5.2926)
(444.82 2.21803 -0.480824)
(408.583 1.58646 -1.83569)
(420.781 -0.272812 6.77334)
(411.694 -24.6765 4.11033)
(438.51 -8.90531 13.3963)
(438.204 0.00726745 -0.449049)
(398.01 -0.600757 -1.26588)
(442.94 -0.0108639 4.36559e-06)
(438.259 -6.7621 8.29855)
(435.737 -4.80132 -1.37244)
(337.51 0.0442242 1.81505)
(438.665 0.252136 1.59502)
(435.605 0.618075 7.60619)
(406.762 -2.69549 0.534056)
(441.537 -7.56347 5.45601)
(357.569 11.8634 3.09935)
(446.082 7.68714 -6.81241)
(353.379 8.42702 3.9482)
(440.693 -8.03576 7.31605)
(360.319 8.01664 -20.2474)
(440.231 -0.99078 -1.19603)
(439.031 0.634057 -0.323159)
(369.849 6.11552 -7.80029)
(442.881 -0.0146355 -5.66982e-06)
(422.912 2.19386 3.66448)
(442.231 1.16127 -1.07043)
(452.537 -18.7107 -3.98795)
(442.53 -0.0163587 -9.15923e-06)
(426.265 -8.43964 -4.46187)
(442.515 -9.68154 3.11049)
(442.785 -0.0141654 -4.65386e-07)
(386.333 -2.38141 1.23408)
(398.499 1.32458 1.09068)
(442.842 -0.0111473 -3.16558e-06)
(437.266 0.00132902 -0.0411171)
(412.379 0.199906 -0.986769)
(442.698 -1.6889 -1.39709)
(442.758 -0.0104426 1.90166e-06)
(442.833 -0.0076413 4.0523e-06)
(444.826 -12.5695 1.93915)
(441.275 -1.47794 2.38205)
(383.732 9.58944 0.285005)
(438.832 -2.3871 -1.79441)
(443.626 -3.34276 -3.22338)
(441.936 0.740877 -0.364173)
(432.549 19.601 -0.479127)
(419.225 2.90645 -1.18918)
(442.682 -0.000567971 -1.57597e-06)
(410.851 -2.15326 -1.48733)
(404.944 -1.63558 -3.0056)
(425.827 2.82066 -2.11596)
(453.942 -11.7837 -7.89247)
(430.563 -3.79601 0.834945)
(443.427 -2.59004 3.30766)
(440.463 -1.75111 7.13013)
(437.867 0.450647 -0.245896)
(440.469 0.344977 -1.96935)
(433.067 1.11051 3.57524)
(371.604 4.40937 0.550853)
(440.824 -1.63418 -3.4132)
(442.664 2.23578 -1.24284)
(442.521 0.0146796 -1.02389e-05)
(442.278 3.55694 -3.24533)
(436.126 -3.04627 0.497127)
(443.959 -7.60428 -2.93351)
(442.234 0.0033675 -9.86772e-06)
(361.058 6.80989 -2.57201)
(436.518 1.10882 -0.531827)
(439.384 -9.36008 1.09546)
(432.837 -1.58395 5.39321)
(442.349 0.0124117 -1.05613e-05)
(435.295 -6.36031 4.23868)
(442.012 -0.00485269 -5.23042e-05)
(442.236 0.00704732 -1.67298e-05)
(436.007 2.66662 0.951796)
(427.514 -1.63615 -2.66803)
(442.437 0.0108759 4.86235e-06)
(438.856 -7.12221 -1.45868)
(429.306 -3.85696 0.263297)
(442.226 0.000658485 -8.99741e-06)
(376.381 14.1775 3.41636)
(410.131 0.113395 -2.19909)
(414.658 0.0464268 1.63868)
(458.726 -15.2208 -3.30309)
(420.666 8.94466 -16.0061)
(426.535 0.361952 -0.0803668)
(442.088 0.00122578 -1.03362e-05)
(443.589 -8.49115 8.51474)
(442.031 0.00594296 -6.22437e-06)
(433.574 -5.78075 2.01784)
(433.312 -3.37777 -2.42031)
(379.411 17.1365 11.7343)
(429.849 -10.2851 0.277279)
(363.304 17.66 -12.3671)
(428.617 -17.1561 -17.878)
(419.528 0.481963 1.19408)
(431.3 -8.5085 -3.41905)
(429.893 -6.01636 2.17778)
(384.724 -0.644784 -0.150275)
(441.78 0.0114373 -1.89315e-06)
(438.655 -4.48721 -4.14318)
(441.56 2.52422 3.41254)
(419.617 -0.218277 0.155042)
(441.826 3.47767 2.26563)
(439.032 -0.156929 -0.00835817)
(443.217 -10.2724 -3.95825)
(432.204 -4.18172 0.674742)
(417.583 2.42949 -0.108367)
(438.453 -1.39072 -0.841873)
(437.979 2.8078 4.2741)
(424.564 -1.15649 3.94914)
(407.979 -2.29293 -6.07114)
(399.409 2.48234 -14.2515)
(454.599 -18.6916 5.82827)
(436.129 2.51611 3.91298)
(435.506 4.4185 6.85487)
(438.696 -11.6748 11.9773)
(395.111 6.20161 -9.66825)
(250.2 22.8922 -11.3484)
(267.897 30.9296 -7.58588)
(252.559 26.5762 -8.88092)
(272.902 14.1928 1.86258)
(289.553 11.4491 -5.65677)
(290.402 5.37847 -0.190225)
(354.39 9.76767 12.8206)
(364.38 -6.73809 -9.93304)
(355.337 3.90753 -0.521852)
(348.21 11.4571 2.78059)
(318.973 40.775 2.78507)
(304.955 9.92076 -8.36509)
(373.368 -0.955041 -0.636962)
(368.354 -3.27962 0.389331)
(390.621 -8.15359 -9.05775)
(388.272 0.00343145 -0.119187)
(370.776 -11.96 -4.76214)
(373.038 7.63555 15.1354)
(375.095 8.47333 3.66086)
(388.583 1.76436 9.79712)
(391.466 0.000321165 0.0183579)
(389.31 -0.318385 -0.511862)
(385.787 2.31846 1.37401)
(337.611 6.06092 -6.14794)
(305.124 -0.152357 -1.6784)
(395.462 2.71843 1.62156)
(356.93 0.179233 2.14012)
(388.183 7.40716 -1.92012)
(379.178 -0.142272 -0.252586)
(403.045 1.61104 12.6194)
(389.225 -2.1279 -3.20253)
(395.767 -14.9169 10.714)
(357.156 -1.73551 -1.56927)
(395.783 -0.30431 0.0963676)
(337.444 16.3383 -6.43053)
(283.022 -6.80102 -21.8885)
(391.617 -6.44634 -3.77789)
(391.478 2.5527 0.349788)
(399.136 -3.52398 -5.83668)
(382.751 1.06839 4.92994)
(386.707 -0.511345 0.00645754)
(299.007 17.3207 2.29052)
(397.837 0.00188108 0.0609282)
(399.688 0.344005 -0.856962)
(408.15 -8.2449 -8.34921)
(388.34 -1.47228 -2.22518)
(410.374 5.6246 7.28019)
(405.04 -0.0100039 -3.09775)
(390.171 0.00668089 -0.324401)
(291.402 7.4225 0.0626116)
(301.281 11.1946 -5.9309)
(357.163 9.02728 -19.6141)
(400.681 1.429 -2.40698)
(376.052 -1.5331 -2.44713)
(370.393 7.80193 3.37039)
(393.077 -0.390672 4.16237)
(404.181 4.62249 -0.581615)
(361.02 11.0145 -26.6927)
(404.884 -0.957692 3.75946)
(325.239 11.0489 -3.65026)
(366.239 -3.06721 1.08991)
(401.204 -5.10317 -1.13273)
(299.815 1.42693 4.20359)
(406.66 0.0067386 -0.189208)
(350.791 11.071 9.63376)
(383.742 -5.90555 5.57067)
(386.532 -0.586899 0.00986254)
(390.481 -1.60356 -1.62366)
(406.491 -3.87722 -15.8291)
(325.764 29.9977 -21.2488)
(350.258 10.0553 -5.49167)
(317.951 -0.10392 -0.900188)
(324.328 -0.582612 -0.440815)
(402.966 0.00389635 -0.153583)
(390.832 0.000647433 -0.099044)
(384.985 -6.28255 -5.68201)
(396.721 0.29123 0.683194)
(404.001 0.333421 2.51062)
(396.572 -4.78008 6.3231)
(393.893 -10.5014 4.32614)
(397.646 0.0963099 0.4786)
(402.106 0.00168882 -0.0675614)
(414.694 15.2258 -2.30563)
(405.464 0.96982 1.73127)
(313.115 8.20418 4.90813)
(409.061 0.25182 7.54539)
(359.35 -4.68015 -5.38145)
(398.184 -0.688401 -1.03404)
(313.631 -8.70029 -8.71586)
(339.722 2.238 1.05139)
(385.613 -8.53832 -4.01042)
(375.321 15.4367 11.3561)
(408.849 0.000884956 -0.0396861)
(394.37 3.28201 -17.3925)
(406.352 0.205325 -0.0813815)
(392.896 -4.03273 3.56015)
(380.147 23.3009 -16.2682)
(413.649 -0.661873 -0.53331)
(284.398 18.2939 13.142)
(396.828 -7.81139 6.83713)
(388.354 -12.8115 -3.58804)
(386.678 3.26155 -1.64954)
(309.264 13.6159 -3.37734)
(416.392 0.000287165 -0.0157806)
(396.252 0.247649 7.76222)
(317.647 4.68961 3.12695)
(415.23 -0.0467074 -0.886239)
(414.004 0.392733 -1.49109)
(417.868 4.82928 -1.05989)
(441.227 -27.5511 7.95676)
(395.638 -1.4326 -7.91252)
(411.084 -3.84392 2.66531)
(416.203 -0.784891 -1.39571)
(405.208 -2.77709 1.95717)
(382.04 0.306777 4.4813)
(405.715 -0.455712 -0.02214)
(415.229 -0.99567 2.26986)
(412.031 2.57404 2.29479)
(384.293 2.49576 3.80725)
(314.319 -0.492573 -1.07923)
(397.223 -24.2285 23.6666)
(416.509 -0.237876 -0.097701)
(329.621 8.58587 -6.21575)
(435.481 3.39452 -4.74598)
(398.55 -7.83849 7.71234)
(379.472 0.503218 0.427081)
(410.027 -0.259052 0.904594)
(406.558 -1.53957 1.20949)
(343.71 0.719988 -4.20641)
(424.408 -5.08811 -7.6149)
(360.254 5.49574 2.31863)
(338.641 -3.41843 -9.75138)
(346.905 5.35007 -3.27709)
(361.727 18.7873 1.48799)
(377.494 0.874622 2.14734)
(269.034 26.1497 2.1719)
(331.999 1.20621 -1.49975)
(424.161 -4.47327 7.20932)
(411.185 -0.0476589 -0.0433089)
(341.941 5.46611 7.76036)
(427.537 -4.61179 -0.59561)
(357.562 -1.20393 2.70699)
(368.66 8.48984 9.65682)
(349.077 -4.26687 9.53908)
(423.774 -2.1519 -1.13771)
(414.76 -5.50501 2.86853)
(413.41 6.16513 1.71569)
(424.48 0.00017446 -0.439836)
(324.31 6.98733 0.54736)
(376.048 -2.31778 -5.90563)
(437.968 -20.6797 -4.37473)
(395.515 0.205802 -0.537227)
(422.331 2.154 -1.55673)
(386.197 3.51805 2.16128)
(422.914 -0.853962 -2.66765)
(374.831 -0.695234 -0.234126)
(427.473 0.000444861 -0.00495203)
(427.062 -1.35962 2.20744)
(336.74 -1.45304 -13.8252)
(407.572 0.271301 0.268269)
(428.415 -3.15964 13.3207)
(393.877 -3.85539 4.80696)
(428.966 1.95052 -1.79559)
(416.247 -1.40952 3.77851)
(419.924 4.41155 -5.21774)
(425.221 -5.70377 -4.7927)
(430.075 0.0654878 -0.702834)
(334.45 5.25213 0.596859)
(408.177 1.01487 6.1723)
(404.276 -0.943499 -6.97766)
(430.102 -0.0798406 1.41347)
(429 0.227977 -0.138874)
(422.939 0.376466 1.45087)
(295.962 7.66016 2.92321)
(425.479 0.00969545 -10.6305)
(438.256 6.08693 -1.38721)
(399.093 -0.346367 0.219408)
(355.646 2.52002 -2.87427)
(433.001 0.000173154 0.0118269)
(431.317 -2.28542 3.16499)
(385.934 -2.35025 20.1423)
(374.278 0.779723 -0.152794)
(416.292 -1.55286 0.475212)
(404.352 0.248502 0.22621)
(416.516 -0.134163 1.50403)
(411.668 3.05611 4.75193)
(406.631 0.0574955 -2.36696)
(427.076 -2.87393 3.42289)
(397.803 4.7185 -2.81686)
(435.161 0.000276909 -0.0129763)
(434.995 0.961969 -1.39495)
(336.812 2.11893 -1.03898)
(425.389 -1.13968 -1.49764)
(322.78 31.2833 -7.57762)
(345.579 0.890095 -4.34118)
(425.913 -0.721622 -0.587671)
(350.996 21.3695 -5.19046)
(430.703 -8.23438 5.40221)
(431.732 2.9718 -4.60574)
(371.678 -0.580548 -0.491598)
(375.807 2.03367 8.51874)
(388.567 7.06477 -1.37218)
(429.685 -3.14534 -2.27976)
(387.207 -3.1299 7.79823)
(327.64 3.35507 -9.74387)
(343.919 -27.7255 8.91477)
(386.358 1.13502 -0.706512)
(395.933 2.61121 -2.85345)
(430.206 -3.64569 -2.60389)
(391.562 6.55544 -10.7871)
(416.38 -1.39992 4.49347)
(389.686 8.93028 1.60891)
(333.147 3.11609 1.68049)
(422.986 0.309064 -3.21388)
(422.896 -1.92471 -2.0217)
(378.235 -0.0806882 2.07322)
(427.833 -18.3061 -19.1015)
(425.811 -4.02663 -2.78014)
(395.682 -1.23418 -1.52413)
(336.629 8.29031 -20.4638)
(437.537 1.17992 -2.06422)
(432.935 -9.0204 -3.62843)
(424.78 -2.23646 0.42808)
(429.076 -1.96066 1.08096)
(427.51 19.4807 13.2725)
(438.514 0.000847005 0.0384921)
(415.773 3.93974 -1.61626)
(405.816 2.06015 -25.8402)
(442.051 4.4025 0.125921)
(420.329 -1.0054 1.95563)
(438.548 0.357605 -0.527873)
(438.444 23.813 -0.57659)
(435.273 -2.64352 6.17425)
(440.737 0.00226735 0.147452)
(431.731 -0.818466 1.90838)
(440.966 -2.67683 -1.50954)
(414.342 0.265346 1.25255)
(432.045 -1.64538 4.94811)
(395.944 0.553382 7.61326)
(401.086 1.6795 -10.8971)
(435.295 -3.80817 1.46573)
(439.749 -2.10512 0.525439)
(377.511 -0.344601 9.8777)
(411.424 -3.51589 12.2849)
(442.812 -16.7165 -8.62135)
(410.149 -4.63525 2.56179)
(429.285 5.33693 3.69749)
(440.841 0.00144731 -0.0702207)
(429.821 -0.657159 3.1931)
(440.588 0.000221857 -0.00996064)
(444.972 8.32692 -7.29703)
(433.163 -10.1642 -2.10173)
(436.919 3.89352 -5.40669)
(429.496 -4.74275 -1.91154)
(432.66 2.02578 0.0146616)
(429.503 2.14185 0.0218877)
(414.647 -2.22362 -3.35397)
(432.923 -1.18276 -0.22699)
(375.82 -1.7106 -0.896898)
(430.082 -0.274141 -1.04976)
(367.057 -1.25166 1.21111)
(438.826 -3.8728 3.07458)
(421.561 3.66811 5.93344)
(423.337 1.39866 -7.53716)
(416.213 -2.50343 3.87848)
(398.598 3.28964 -0.1483)
(310.608 -2.34886 1.72387)
(401.407 -2.5566 -1.37421)
(303.251 12.118 -4.4785)
(439.067 -3.17196 -3.37426)
(397.899 -3.25037 -7.22734)
(358.237 9.5928 -1.9037)
(437.557 -2.27553 1.52499)
(346.156 -1.9414 2.47336)
(448.384 2.07103 7.67185)
(447.325 -13.7993 -9.61449)
(435.162 -0.737416 -3.35407)
(381.3 -10.3763 -5.5629)
(431.645 3.0112 1.1344)
(456.459 -11.1074 5.06881)
(415.115 10.5773 -19.0739)
(437.118 0.00141985 -0.0521136)
(447.951 -13.5037 -9.56033)
(342.194 -4.85505 0.352527)
(418.975 0.780806 -3.24118)
(390.009 -6.85804 5.28495)
(400.249 1.10696 0.218245)
(425.877 -1.06033 0.595673)
(378.837 -2.13537 -1.40596)
(394.23 3.19636 3.17257)
(408.903 -2.53685 -3.33258)
(440.094 0.00158629 0.055623)
(434.244 -2.12291 0.433224)
(279.022 15.0414 8.73212)
(309.506 6.61574 10.7685)
(293.892 -0.752148 21.1439)
(303.327 17.5302 -9.66816)
(292.913 15.1037 -19.6395)
(319.116 -15.8606 19.4335)
(326.002 -2.42567 7.95902)
(304.101 -0.808246 -3.22226)
(341.416 -4.33144 -0.482315)
(334.949 1.95364 -1.6577)
(327.546 -3.60138 4.06434)
(326.658 1.76468 0.714839)
(338.929 4.51233 -7.08166)
(308.484 2.71404 -20.2897)
(301.882 11.6178 7.17106)
(346.362 0.000873284 -0.00967289)
(324.616 7.43009 -5.04749)
(318.453 -3.7373 -7.9578)
(323.86 19.5301 1.42983)
(338.871 0.000355886 -0.0113461)
(336.612 5.49599 -6.25489)
(301.957 8.28761 9.98799)
(298.333 1.80279 6.6084)
(334.386 5.13897 0.459624)
(350.999 3.40474 8.0041)
(342.639 4.4035 2.44546)
(338.999 0.00797288 0.00991137)
(337.674 4.49386 2.52057)
(341.284 1.92432e-05 -0.0013613)
(340.695 2.83887 -2.86081)
(344.78 1.42042 0.424665)
(337.953 1.63915 -0.462676)
(326.706 13.6609 18.9384)
(342.601 22.6179 -0.557464)
(300.924 17.5911 -4.49047)
(340.618 0.000241766 0.0281701)
(325.485 0.314315 -0.843841)
(294.064 1.34323 -1.65341)
(346.051 0.228174 1.88728)
(334.831 -0.581877 0.136711)
(317.144 61.7988 1.30474)
(343.287 0.000236087 0.00628638)
(349.177 -0.0352826 -0.0359447)
(309.379 15.1512 -5.10354)
(320.49 0.00488157 0.127221)
(320.67 -4.1706 17.917)
(339.47 -0.00026056 -0.0337197)
(347.48 4.63657 0.471893)
(346.414 -8.76811 -0.555393)
(341.019 -2.28394 -5.59846)
(338.706 -5.16116 7.19982)
(346.129 0.0495558 -0.849389)
(289.667 4.01261 13.1902)
(341.163 2.24534 -10.6297)
(347.101 3.28628 -4.27071)
(334.822 10.0158 -17.3637)
(364.997 8.9538 -29.5337)
(333.012 -10.0762 -14.3652)
(349.227 0.440197 3.20175)
(324.181 0.567379 -0.0778127)
(320.49 -1.60968 7.74343)
(345.826 0.013702 -0.264134)
(344.637 0.0399431 -0.281906)
(344.976 0.994002 3.07459)
(344.437 0.611466 2.70545)
(343.142 1.64451 -6.07235)
(350.994 3.6608 -5.33959)
(318.959 6.00847 -13.7143)
(338.182 12.6931 -3.54337)
(344.424 0.800066 -0.48214)
(339.088 -1.8213 5.79717)
(326.059 -9.888 21.1971)
(342.56 -3.0058 0.126483)
(323.916 -0.392977 -4.60801)
(312.757 -15.6617 4.1494)
(345.389 1.26906 0.354403)
(319.912 8.64831 -11.5846)
(337.502 1.61683 11.4654)
(341.905 6.29299 23.43)
(346.031 -1.89371 -3.31613)
(285.029 0.962196 -4.5731)
(350.443 17.9037 -3.44568)
(344.489 0.000749248 0.0273106)
(339.884 0.237006 9.77279)
(343.985 9.60749 1.58408)
(336.434 -0.0326468 -0.625388)
(345.25 4.64357 4.55404)
(352.826 1.49645 -1.5203)
(347.701 0.00177948 -0.0604697)
(344.884 0.00337061 0.0820929)
(358.626 5.73041 0.678171)
(349.499 6.16923 -1.62294)
(341.678 6.29793 -0.572287)
(318.798 4.95002 4.95711)
(344.323 0.591677 -2.96026)
(326.438 2.55077 0.329659)
(303.544 12.6648 -31.2912)
(327.948 3.6724 -17.0955)
(303.842 22.0716 5.13816)
(340.43 0.611668 0.613739)
(268.947 16.0365 15.6186)
(320.785 24.6906 -6.0202)
(350.885 0.000533826 -0.0675869)
(317.273 13.8079 5.43827)
(328.177 1.15524 -2.22102)
(343.54 1.23592 0.675906)
(349.749 2.91977 -11.8246)
(326.612 0.362503 2.38907)
(347.294 0.269004 4.24753)
(313.797 -9.31179 -31.1531)
(339.839 0.248789 -17.0562)
(346.336 0.00430932 0.0101332)
(349.511 1.1011 0.191057)
(342.059 7.95122 2.8946)
(341.669 1.02083 -1.35004)
(351.503 -0.000405374 -0.0349659)
(351.75 -8.30099 -3.59525)
(346.335 -0.499807 -0.284683)
(369.2 -7.26578 -5.21146)
(347.789 -1.16275 1.64033)
(359.499 0.0103543 0.215094)
(334.945 8.78355 -8.36083)
(352.524 -0.702939 2.5524)
(303.272 13.1139 -18.809)
(345.003 4.56971 17.4092)
(343.743 15.8531 -11.5922)
(348.787 2.75023 1.9555)
(351.539 -0.799746 -1.03212)
(341.59 14.6683 0.901634)
(373.443 -8.51526 -15.5411)
(351.718 0.119906 -12.6544)
(340.124 -0.607865 -1.33326)
(353.435 0.711318 12.3185)
(354.248 2.46558 3.12107)
(344.019 0.990882 -0.220936)
(346.47 -2.59346 -8.29567)
(340.037 -0.689022 -0.194065)
(300.851 11.6999 -6.31627)
(328.037 4.48905 -14.0927)
(361.953 -6.46205 12.9552)
(353.712 -0.115209 -0.0190639)
(363.826 -28.1774 -8.77486)
(360.978 14.5809 -2.75456)
(322.347 1.47696 0.617734)
(355.341 -0.000107608 -0.00629899)
(348.496 4.59032 -1.02844)
(349.815 1.12851 -0.500331)
(334.786 3.0176 -1.34673)
(341.946 -2.18155 0.575157)
(357.433 -4.71552 1.28514)
(340.086 17.2799 6.0388)
(347.249 -3.41169 2.86371)
(350.225 0.696638 -22.6856)
(358.304 0.000459267 0.0401994)
(358.623 0.877128 2.11432)
(351.006 -1.57046 -6.76282)
(353.269 -1.18344 14.5894)
(354.244 0.0268393 -8.32951)
(311.88 12.9343 4.2223)
(311.259 11.5599 12.9816)
(359.367 -14.8313 3.65913)
(354.537 -1.3682 -3.36292)
(284.603 15.9419 -4.18799)
(334.316 9.30301 0.872708)
(359.979 0.059804 0.102145)
(377.47 -0.134076 1.82559)
(324.551 7.03147 0.0465509)
(327.963 3.30786 1.1749)
(359.999 -2.7814 5.21031)
(358.053 1.84863 4.63718)
(368.143 -1.32742 4.50005)
(331.149 16.5804 -0.957906)
(361.908 0.291054 0.803137)
(356.99 -2.95536 -1.67642)
(324.79 -4.30421 -1.67096)
(354.917 8.71188 -1.73376)
(345.641 -20.6576 18.7243)
(368.698 -0.000996225 0.0487451)
(361.586 0.0901503 0.0539124)
(363.434 3.62443 -4.21051)
(351.531 8.53767 -7.18882)
(340.949 5.87856 8.00916)
(365.497 20.9373 7.75853)
(349.271 0.0747022 11.0846)
(347.6 -21.2595 0.581145)
(360.839 0.000218622 -0.0412391)
(353.948 7.47865 4.41031)
(366.349 -0.145884 0.136733)
(366.193 -1.11129 4.87766)
(341.303 14.5356 -5.369)
(309.11 12.8526 11.9193)