/*--------------------------------*- C++ -*----------------------------------*\
  =========                 |
  \\      /  F ield         | OpenFOAM: The Open Source CFD Toolbox
   \\    /   O peration     | Website:  https://openfoam.org
    \\  /    A nd           | Version:  7
     \\/     M anipulation  |
\*---------------------------------------------------------------------------*/
FoamFile
{
    version     2.0;
    format      ascii;
    class       vectorField;
    location    "0.1325/lagrangian/reactingCloud1";
    object      UTurb;
}
// * * * * * * * * * * * * * * * * * * * * * * * * * * * * * * * * * * * * * //


1190
(
(-6.71745 9.58121 -1.68721)
(-7.8418 -22.2117 3.77491)
(-15.3515 2.06877 -9.76611)
(2.58755 -11.0206 11.0695)
(10.4543 21.9391 -0.525321)
(0 0 0)
(12.4906 -3.75115 -8.10538)
(6.17986 13.9575 9.27965)
(0.609237 -1.22853 0.828054)
(0 0 0)
(2.03724 -13.9061 -5.6277)
(1.70414 1.90451 0.652831)
(2.5598 -16.7868 -8.6485)
(14.6487 13.6401 -3.3286)
(1.98476 6.7549 4.37971)
(-1.4682 -0.928668 -3.50381)
(0 0 0)
(-23.2217 6.49944 -16.2888)
(1.67561 -2.16358 0.554162)
(0.524425 -0.596226 2.28972)
(0 0 0)
(-2.65327 -14.6157 14.2115)
(2.6529 2.67109 5.35097)
(-17.998 -2.01045 12.3327)
(0 0 0)
(9.04823 -3.86633 -7.11614)
(0 0 0)
(0 0 0)
(-4.69683 -7.00117 -2.67118)
(-0.0610918 -0.0217489 -0.252409)
(-1.37037 -0.268399 -0.84138)
(2.67019 4.40918 1.17892)
(3.43115 -8.17764 6.06157)
(-7.04733 11.2899 0.821376)
(-10.3988 -5.04551 -4.08949)
(1.98368 5.13674 11.5858)
(0.238264 -12.6612 4.07708)
(0 0 0)
(-0.614936 1.24921 0.152221)
(8.00957 -8.56797 -8.28406)
(0 0 0)
(-11.1431 2.89819 -1.30018)
(0 0 0)
(0.14396 0.0264769 0.279089)
(-0.39661 2.1983 -0.335383)
(0 0 0)
(-0.103079 -4.40121 -1.51995)
(-11.8083 2.23038 -10.1098)
(2.67588 -1.89246 0.53701)
(-2.42801 -1.14149 -1.20297)
(-0.202535 -0.388903 0.0209205)
(-6.4231 0.37521 4.5175)
(0 0 0)
(-1.43513 -8.40733 7.71216)
(3.85842 7.29873 -2.82267)
(-0.791002 2.51456 -1.08809)
(6.74194 -12.5046 3.67443)
(0 0 0)
(-2.60378 -8.318 5.25459)
(0 0 0)
(-2.39694 12.0093 -2.20216)
(0 0 0)
(1.8272 -3.6045 0.113786)
(0 0 0)
(-1.09091 0.733554 -1.23199)
(0 0 0)
(3.83709 1.16026 -5.94518)
(0 0 0)
(0.239525 -12.251 -22.0853)
(-16.8322 5.52837 13.3841)
(0 0 0)
(0 0 0)
(0 0 0)
(0 0 0)
(0 0 0)
(0 0 0)
(0 0 0)
(0 0 0)
(0 0 0)
(2.22207 -1.94301 3.27415)
(0 0 0)
(0 0 0)
(0 0 0)
(0 0 0)
(0 0 0)
(0 0 0)
(0 0 0)
(0 0 0)
(0 0 0)
(0 0 0)
(0 0 0)
(0 0 0)
(0 0 0)
(0 0 0)
(0 0 0)
(0 0 0)
(6.27383 -1.49769 -0.880907)
(0 0 0)
(5.58851 -2.05691 5.46251)
(0 0 0)
(0 0 0)
(0 0 0)
(0 0 0)
(0 0 0)
(0 0 0)
(0 0 0)
(0 0 0)
(0 0 0)
(0 0 0)
(0 0 0)
(-0.205445 0.482253 0.289519)
(0 0 0)
(0 0 0)
(0 0 0)
(0 0 0)
(0 0 0)
(0 0 0)
(0 0 0)
(0 0 0)
(0 0 0)
(0 0 0)
(0 0 0)
(0 0 0)
(0 0 0)
(0 0 0)
(0 0 0)
(0 0 0)
(0 0 0)
(0 0 0)
(0 0 0)
(0 0 0)
(0 0 0)
(0 0 0)
(0 0 0)
(0 0 0)
(0 0 0)
(0 0 0)
(0 0 0)
(-0.838655 -1.62727 -7.66469)
(-1.60619 2.14189 -3.21776)
(0 0 0)
(0 0 0)
(-0.717059 -1.35693 0.0483932)
(-1.48637 1.43226 -1.18063)
(0 0 0)
(0 0 0)
(-7.40032 -2.31997 2.98617)
(0 0 0)
(0 0 0)
(0 0 0)
(0 0 0)
(0 0 0)
(0 0 0)
(0 0 0)
(0.532408 1.05833 3.12873)
(0 0 0)
(0 0 0)
(0 0 0)
(0 0 0)
(4.6502 2.03257 0.421271)
(0 0 0)
(0 0 0)
(0 0 0)
(0 0 0)
(0 0 0)
(0 0 0)
(0 0 0)
(0 0 0)
(0 0 0)
(0 0 0)
(0 0 0)
(0 0 0)
(0 0 0)
(0 0 0)
(0 0 0)
(0 0 0)
(2.68653 -0.954247 -5.11948)
(0 0 0)
(0 0 0)
(0 0 0)
(0 0 0)
(0 0 0)
(0 0 0)
(0 0 0)
(3.25713 -5.31211 3.89836)
(0 0 0)
(0 0 0)
(0 0 0)
(0 0 0)
(0 0 0)
(0 0 0)
(0 0 0)
(0 0 0)
(0 0 0)
(0 0 0)
(0 0 0)
(-0.0696508 -0.220991 -3.06629)
(9.24407 6.39866 0.88077)
(-1.07882 1.49565 0.785529)
(-2.75982 -1.508 0.781413)
(8.96535 -5.0401 -8.24957)
(-6.04937 -13.8625 2.4606)
(9.12591 -6.18453 8.41026)
(0.624718 3.62258 -1.45862)
(0 0 0)
(-0.58261 0.969918 -1.16303)
(0 0 0)
(-1.03073 5.19464 2.99878)
(4.3785 0.9827 -7.39781)
(0 0 0)
(0 0 0)
(-1.3843 -3.554 -2.8403)
(0.409733 -3.77132 -4.48393)
(0 0 0)
(0 0 0)
(-0.0194985 -0.00747523 -0.00632722)
(0 0 0)
(-0.540725 -2.44513 -0.803932)
(8.37103 -1.79099 9.91066)
(0.434397 -6.89694 0.0110982)
(0 0 0)
(0.447734 -2.50117 2.11341)
(0 0 0)
(0 0 0)
(0.86899 1.11469 -1.03167)
(0 0 0)
(0 0 0)
(0.0139918 -0.0080241 -0.00973087)
(0 0 0)
(0 0 0)
(0 0 0)
(0 0 0)
(-1.41158 -2.84641 -1.19645)
(0 0 0)
(0 0 0)
(-0.290292 -0.00513833 -0.134543)
(0 0 0)
(0 0 0)
(0 0 0)
(3.00044 3.75208 1.33074)
(0 0 0)
(0 0 0)
(0 0 0)
(0 0 0)
(0 0 0)
(0.375822 -0.00446294 -0.399271)
(3.90174 -6.69807 -16.3109)
(0 0 0)
(0 0 0)
(0 0 0)
(0 0 0)
(0.703286 -0.113025 0.250823)
(0 0 0)
(-2.37996 -1.65685 -4.97878)
(0.474472 0.0730477 -0.244736)
(0 0 0)
(0 0 0)
(0 0 0)
(9.68811 -3.61567 5.76598)
(-7.34185 0.685576 -7.51656)
(-0.213261 27.448 0.578063)
(6.55893 -2.81881 2.23894)
(-0.0217458 -0.0122513 0.0117242)
(2.94705 -19.4988 -0.959794)
(0 0 0)
(0.187631 4.38025 0.98864)
(-10.0162 -6.61225 -7.95192)
(-0.470588 -3.80071 -11.0142)
(0.0221304 -2.14699 -1.01345)
(0 0 0)
(0 0 0)
(-7.33655 -1.09736 6.54618)
(8.04554 7.40877 -1.53876)
(-4.65246 -8.4811 12.2573)
(0 0 0)
(-11.7272 10.2793 6.94665)
(0 0 0)
(-1.42297 -3.90007 6.19738)
(-5.28491 -2.15259 0.651433)
(-4.86296 -6.11269 -1.00686)
(11.1311 -4.53953 -3.78879)
(2.90213 -0.701578 -1.11359)
(0.582299 0.965539 -1.59834)
(12.1978 -26.5646 -14.4582)
(0 0 0)
(2.15703 5.54921 -10.2252)
(5.77874 4.93184 -1.07842)
(0.558977 -13.3519 -6.33772)
(0 0 0)
(4.10341 0.600057 -1.30854)
(2.48992 -2.47367 -1.38259)
(0 0 0)
(0 0 0)
(-17.4977 -12.5071 -6.79522)
(-2.13625 1.00383 -0.390641)
(-5.77938 -2.01823 -6.71803)
(16.7968 24.0154 19.9231)
(-5.23162 2.50091 -1.04139)
(7.83533 16.0606 3.74585)
(-28.9371 8.09911 -20.2979)
(-1.38769 1.38917 6.35633)
(14.8771 14.8314 5.43545)
(5.09591 6.31403 -5.90381)
(11.4389 13.5618 4.70086)
(-0.0575043 4.90575 -8.2879)
(-5.62475 -8.38435 -3.19891)
(-5.14616 2.10877 2.53449)
(-0.121253 -3.44301 -1.9256)
(-12.5193 -3.40912 5.04522)
(-3.67108 4.02489 0.996046)
(-1.70718 -4.04477 -2.18448)
(-1.80841 -2.84053 2.39925)
(5.53236 -7.99286 -7.28779)
(-9.26035 -19.9666 14.4019)
(2.38999 6.18888 13.9589)
(0.473864 -0.499505 -0.592934)
(0.136543 -4.6229 -2.4323)
(0.768753 -5.6522 -3.68379)
(0.840249 0.474028 1.83196)
(0.556587 -0.562437 -0.732777)
(0.315549 -0.00162463 -0.160431)
(15.2397 8.96593 -0.519894)
(3.76663 -4.21993 -22.0797)
(-7.97396 15.8907 6.31769)
(-2.55278 -9.97494 1.83942)
(0.137158 -4.67026 5.45264)
(-1.04017 -4.50455 -2.88719)
(-2.23622 -19.3338 -1.69497)
(12.2227 7.27919 -3.93869)
(3.89667 3.92339 7.85968)
(0.0201244 -0.188682 -0.121794)
(2.05882 4.19186 -1.15594)
(3.2838 1.85221 6.72811)
(0.268959 8.15996 9.15775)
(13.5981 2.71722 -10.3029)
(6.49137 -6.45251 -9.77834)
(-7.8305 0.895403 -0.182321)
(-0.0289377 0.0804925 0.0443071)
(7.66137 -3.90749 -3.16501)
(-0.291615 0.19777 -0.599714)
(9.34397 -2.42956 28.5546)
(10.7961 -2.95876 7.67439)
(-0.392432 -0.050961 -2.00767)
(1.16508 0.586468 -0.630646)
(-0.605673 0.552497 -0.617659)
(-0.131958 -3.36354 1.46376)
(-2.8106 0.0194273 -5.5519)
(10.7438 5.35534 -0.61343)
(1.11101 0.282742 -7.0302)
(9.068 5.63839 10.6039)
(-13.0838 9.02476 0.759377)
(-2.89115 12.7693 0.984948)
(3.8433 2.71649 0.314546)
(2.29845 4.32303 5.56317)
(-0.376337 -5.12899 -4.02239)
(-0.971161 1.16397 -1.14958)
(1.71652 5.13607 2.08854)
(-15.3256 -8.98605 -3.58522)
(-0.126878 0.248358 -0.181197)
(0.582582 -0.535758 0.156585)
(17.4219 -9.1565 -8.30337)
(1.94543 0.706736 -3.34763)
(3.69083 -3.76315 2.23472)
(-2.51579 5.12852 -7.59682)
(-0.978591 -1.5879 4.36383)
(-2.13385 8.06395 5.71385)
(-1.18342 3.22899 1.30721)
(2.17559 -0.478559 -0.600406)
(-1.13296 1.22599 -11.1971)
(-2.12188 -0.0256446 1.25335)
(4.04215 -2.80667 -2.65132)
(-6.94369 -8.04308 10.116)
(2.41571 0.0915073 2.9281)
(-0.246833 0.526967 -0.336198)
(5.08775 2.96305 2.32518)
(10.7156 13.3483 24.9668)
(2.30235 3.15697 -1.20715)
(0.526583 0.455359 -1.63455)
(0.612456 6.44835 8.17359)
(2.97112 -2.4115 -3.51184)
(-5.08338 3.02801 -1.06467)
(2.18238 -6.4949 -9.42118)
(-1.64403 1.88024 1.08117)
(0.88271 -0.0561298 -0.380123)
(21.7363 4.04398 -5.33643)
(4.70088 -8.73492 -6.17855)
(-3.99295 -7.6879 10.2364)
(-3.76616 -2.60962 -1.21733)
(-2.42465 20.4514 -14.478)
(-1.41968 -6.6995 6.17074)
(-1.85794 -0.821141 0.946395)
(-2.26444 -1.26873 15.5074)
(-2.66099 27.7945 1.89895)
(0 0 0)
(0 0 0)
(-11.3083 9.50148 1.5765)
(2.7981 -8.32732 -12.0792)
(-0.960664 5.73558 -2.23114)
(-3.14325 13.4504 -4.88632)
(-0.923509 -7.76669 5.64046)
(6.39159 -3.52887 17.1509)
(2.03234 0.965165 -3.27809)
(1.37682 -2.56138 2.23878)
(-10.0725 -20.537 -9.63962)
(-2.85622 -1.63367 1.23133)
(-0.0810219 -0.0305065 -0.0454265)
(-6.47862 3.75491 1.95388)
(0.639282 -2.93072 -1.3488)
(-0.359439 -0.00355001 -0.191685)
(-6.15635 -0.400073 -4.95885)
(-12.7196 -3.81332 -11.8259)
(-0.39078 -0.222688 -4.77469)
(9.2643 -3.7496 3.52889)
(0.276405 -1.85125 -7.52612)
(-0.604958 -1.34823 1.40067)
(-1.16692 -0.12188 -0.539271)
(-3.842 -2.15218 2.59307)
(-4.61136 -0.898817 3.57736)
(-0.905505 6.1331 3.74951)
(8.99632 3.94789 4.92569)
(-0.742685 -2.77981 2.15761)
(0.533179 -0.80531 -0.567448)
(1.4118 0.108444 -1.07758)
(21.9037 3.27645 9.77867)
(-2.1394 -10.0959 9.2991)
(7.16106 -6.78059 1.77188)
(1.13637 -6.18842 6.65959)
(-12.2117 -2.17248 7.09276)
(-6.3538 -8.48373 0.233299)
(0 0 0)
(-0.680581 -0.970652 0.496181)
(1.43093 6.46957 -8.65825)
(1.0416 -0.694752 1.16657)
(-1.69241 2.35737 -0.963062)
(-6.33739 -0.969168 -0.797939)
(-3.69814 -3.00844 -4.74838)
(5.65533 8.57049 -1.27629)
(-5.3385 4.65461 -6.77146)
(-8.46825 0.87143 3.98919)
(-4.549 1.03041 3.78194)
(0 0 0)
(5.27004 4.87771 -1.07466)
(0.59178 1.74145 -5.2924)
(1.82841 2.2176 -0.480824)
(0.456908 2.14822 -1.83566)
(2.14551 0.236156 6.7734)
(-8.53871 -24.1857 4.11039)
(6.16184 -8.60755 13.3966)
(0.30168 0.225204 -0.449038)
(0.631266 -0.0628247 -1.26588)
(0 0 0)
(-4.20314 -6.69612 8.29857)
(-6.46267 -4.71998 -1.37241)
(0.703689 -0.55094 1.81503)
(-1.34792 0.393317 1.59503)
(4.99361 0.975376 7.60624)
(-4.04877 -2.18116 0.534078)
(-0.893311 -7.51272 5.45602)
(-1.85986 12.0558 3.09896)
(4.0856 7.75557 -6.8124)
(-3.29185 8.46039 3.94817)
(-1.36142 -7.97554 7.31607)
(1.38554 8.19117 -20.2476)
(-1.04912 -0.904605 -1.196)
(0.578011 0.816565 -0.323068)
(-15.3754 6.6627 -7.80057)
(0 0 0)
(0.519868 2.65219 3.66449)
(0.395995 1.21868 -1.07042)
(20.4786 -18.3605 -3.9879)
(0 0 0)
(-11.4893 -8.21236 -4.46185)
(0.181779 -9.6596 3.11052)
(0 0 0)
(0.907822 -1.83062 1.23388)
(-4.41766 1.84978 1.09068)
(0 0 0)
(-5.60569 -4.14094 1.45008)
(-0.705657 0.671065 -0.986764)
(1.65699 -1.60665 -1.39705)
(0 0 0)
(0 0 0)
(2.02533 -12.5602 1.93915)
(0.431671 -1.38977 2.38222)
(8.20528 10.0799 0.284674)
(-3.09629 -2.35981 -1.79432)
(1.74244 -3.31129 -3.22324)
(-0.17159 0.759516 -0.364141)
(9.53469 20.0092 -0.47911)
(-0.610537 3.33293 -1.18915)
(0 0 0)
(4.43264 -1.64045 -1.48733)
(0.521842 -1.11168 -3.0056)
(-4.00292 3.17683 -2.11592)
(11.3148 -11.7858 -7.89245)
(1.09853 -3.4423 0.834953)
(1.83034 -2.53616 3.30767)
(0.464221 -1.6092 7.13014)
(-1.34449 0.63178 -0.245857)
(-0.481004 0.437936 -1.96934)
(-8.5061 1.16562 3.57525)
(-1.40556 4.89496 0.550829)
(2.96212 -1.41905 -3.41316)
(2.97742 2.39526 -1.24284)
(0 0 0)
(3.37225 3.73179 -3.24506)
(-5.89005 -3.02909 0.497177)
(1.77198 -7.60201 -2.93349)
(0 0 0)
(4.9055 6.72641 -2.57202)
(-2.67164 1.27714 -0.53181)
(1.68434 -9.15297 1.09553)
(2.23168 -1.25904 5.39324)
(0 0 0)
(5.29778 -6.02701 4.23869)
(0 0 0)
(0 0 0)
(2.5637 2.95205 0.951797)
(2.80278 -1.2541 -2.668)
(0 0 0)
(-3.12138 -7.10671 -1.45868)
(-2.54082 -3.55239 0.263429)
(0 0 0)
(7.14611 14.6479 3.41636)
(-3.16496 0.574224 -2.19907)
(-1.18673 0.491392 1.6387)
(16.962 -15.2076 -3.30309)
(-9.5718 9.27559 -16.0061)
(-0.429872 0.723543 -0.0803533)
(0 0 0)
(1.99038 -8.47724 8.51481)
(0 0 0)
(-7.80062 -5.76234 2.01787)
(-4.17646 -3.18306 -2.42029)
(7.81439 17.6491 11.7341)
(-7.55182 -10.0833 0.277287)
(-8.85244 18.1883 -12.3673)
(4.32287 -16.7749 -17.878)
(-2.21252 0.884487 1.19408)
(-0.982139 -8.20453 -3.41905)
(-4.33774 -5.73531 2.17779)
(0.156734 -0.0799277 -0.150359)
(0 0 0)
(2.23965 -4.25618 -4.143)
(1.22567 2.59366 3.41255)
(-3.02833 0.178994 0.155063)
(1.02672 3.49432 2.26563)
(-0.00441374 -0.00489797 -0.00835748)
(2.39098 -10.2576 -3.95824)
(-7.9942 -4.11119 0.674787)
(2.19453 2.88024 -0.108321)
(0.790868 -1.19452 -0.841699)
(4.02098 3.09386 4.27412)
(1.28918 -0.763314 3.94921)
(-5.22288 -1.8239 -6.07115)
(-9.95212 2.9799 -14.2515)
(15.4272 -18.577 5.82829)
(3.68133 2.83253 3.91309)
(4.40166 4.74232 6.85507)
(-2.2823 -11.6358 11.9773)
(-4.8631 6.76611 -9.66827)
(1.1042 22.8676 -11.3484)
(18.0696 30.9053 -7.58588)
(-11.8709 26.2724 -8.88091)
(4.2616 13.8002 1.86276)
(-4.60467 10.8845 -5.65668)
(3.85389 5.05808 -0.190226)
(0.960651 10.1144 12.8204)
(-7.73611 -6.29333 -9.9331)
(-0.870433 4.28073 -0.522001)
(0.114633 11.7551 2.78058)
(-3.9027 40.7644 2.78506)
(8.69295 9.61979 -8.3651)
(2.30819 -0.507727 -0.637)
(-0.40795 -2.82559 0.389184)
(7.82425 -7.74094 -9.05779)
(-2.29873 -8.60397 6.67814)
(-20.3565 -11.9359 -4.76214)
(12.9432 8.04792 15.1354)
(6.9019 8.91361 3.66086)
(-1.02409 1.87218 9.79714)
(1.53764 -1.56777 0.93101)
(2.05374 -0.0300354 -0.511872)
(-5.56526 2.3303 1.37401)
(5.08233 6.1706 -6.14795)
(-0.64941 -0.393257 -1.67843)
(-2.46574 2.82002 1.62156)
(0.981518 0.553725 2.13996)
(-1.3072 7.7049 -1.92014)
(-0.17701 0.346488 -0.252791)
(8.28482 1.61823 12.6194)
(-6.18775 -2.03476 -3.20254)
(-1.7542 -14.7528 10.714)
(-1.63798 -1.33061 -1.56945)
(0.741648 -3.39221 -0.153905)
(-2.76882 16.531 -6.43058)
(-23.5427 -7.05809 -21.8885)
(-1.1037 -6.10044 -3.77792)
(4.27305 3.02024 0.349718)
(8.13135 -3.06997 -5.83673)
(-1.6888 1.57944 4.92989)
(0.00666536 0.00485222 0.00639345)
(5.24022 16.9693 2.29051)
(-0.294945 -1.89624 3.1418)
(0.57574 0.429789 -0.856964)
(9.48256 -8.03399 -8.34933)
(-10.753 -1.23564 -2.22524)
(13.2965 5.83497 7.28015)
(8.43022 0.302884 -3.09778)
(-11.6063 -2.26222 9.00379)
(-0.247811 7.03905 0.0626142)
(-12.9842 11.0361 -5.93092)
(-1.48367 9.4387 -19.6144)
(0.952827 1.60629 -2.407)
(-0.362871 -0.985443 -2.44718)
(-3.05122 8.32531 3.37037)
(3.43394 0.130078 4.16231)
(10.1868 5.0777 -0.581627)
(5.58706 11.3914 -26.6928)
(3.26686 -0.857049 3.75947)
(15.2181 10.8534 -3.65026)
(-11.9875 -2.49725 1.08984)
(-1.85494 -4.95313 -1.13275)
(-23.865 1.36747 4.20341)
(4.39135 -18.8394 -7.26981)
(-18.7115 11.5842 9.63376)
(-4.11839 -5.33391 5.57033)
(0.0125385 -0.035647 0.00953101)
(11.163 -1.05174 -1.62401)
(13.6452 -3.34944 -15.8292)
(-3.55858 30.0159 -21.249)
(17.0421 10.1493 -5.49169)
(4.9436 -0.290882 -0.900237)
(0.0803217 -0.628501 -0.440839)
(-0.980607 -0.589437 3.18884)
(-13.7437 -10.1525 3.55523)
(-13.8454 -5.77128 -5.68215)
(-10.1545 -28.7623 4.88819)
(-0.687337 0.575537 2.51061)
(-9.87466 -4.5172 6.32306)
(-0.39 -9.94094 4.32614)
(2.18732 0.630943 0.478581)
(-4.35103 -1.24792 2.86524)
(10.2168 15.4832 -2.30571)
(-0.816432 1.04996 1.73127)
(-1.18531 8.02825 4.90812)
(2.39005 0.263072 7.54541)
(-6.8565 -4.19638 -5.38165)
(0.0619076 -0.156515 -1.03406)
(4.71168 -8.95399 -8.71588)
(-4.78342 2.47379 1.05132)
(5.54438 -7.9948 -4.01047)
(-4.24096 16.0268 11.3561)
(-0.750668 -3.25085 -2.08363)
(-12.1455 3.63666 -17.3925)
(1.12347 0.63526 -0.0813739)
(-1.53764 -3.42684 3.56015)
(-11.6449 23.9257 -16.2685)
(2.94501 -0.441693 -0.533296)
(-2.18742 17.871 13.142)
(17.9485 -7.26442 6.83681)
(-16.8965 -12.3403 -3.58813)
(-10.4901 3.84559 -1.64967)
(6.04801 13.2879 -3.37737)
(3.81489 -1.02235 -0.90217)
(6.62862 0.894327 7.76219)
(1.90992 4.50147 3.12695)
(0.441948 -0.0439834 -0.886241)
(0.480369 0.415396 -1.4911)
(4.0304 4.88829 -1.05989)
(36.5953 -27.2909 7.95669)
(-1.6565 -0.797816 -7.91256)
(0.870632 -3.46767 2.66532)
(1.25474 -0.761081 -1.39571)
(-3.78182 -2.3389 1.95719)
(-9.51291 0.978931 4.4813)
(-0.0236326 0.0493089 -0.0221481)
(-0.0226647 -0.811669 2.26981)
(-1.94434 2.83338 2.29479)
(-7.73043 3.16774 3.80725)
(0.155244 -0.718738 -1.07926)
(5.53208 -23.5617 23.6661)
(-0.537442 -0.117859 -0.0976677)
(-25.6123 8.9553 -6.21581)
(19.3313 3.59653 -4.74598)
(1.31596 -7.16643 7.71206)
(-12.5415 1.17138 0.426999)
(0.0622906 0.194258 0.904597)
(-2.37446 -1.04943 1.2095)
(2.44454 0.888055 -4.20648)
(5.05517 -5.02491 -7.61491)
(-3.25127 5.96677 2.31862)
(15.2816 -3.52445 -9.75158)
(-6.49692 5.69113 -3.27713)
(-4.36773 19.2909 1.48798)
(4.38878 1.44777 2.14729)
(-37.4204 25.8114 2.17186)
(0.361857 1.21624 -1.49975)
(3.51592 -4.38148 7.20934)
(-10.8054 -5.55694 0.912084)
(1.10093 5.61657 7.76034)
(10.2119 -4.32572 -0.595566)
(1.04949 -0.821682 2.70697)
(10.7732 8.88005 9.65682)
(-15.942 -3.78114 9.53898)
(-0.0716419 -2.03428 -1.13773)
(-6.54099 -5.19046 2.86855)
(-1.02968 6.67447 1.71569)
(-0.359991 -0.0467483 -1.84171)
(1.1476 6.85757 0.547361)
(-7.03995 -1.68201 -5.90566)
(22.4653 -20.1417 -4.37478)
(-0.394519 0.842264 -0.537354)
(-2.94506 2.33728 -1.55674)
(-7.16631 4.15349 2.16128)
(-1.68995 -0.563257 -2.66766)
(0.216862 -0.11059 -0.208041)
(-0.00425614 0.00325481 -0.00495202)
(1.0646 -1.15009 2.20742)
(-17.164 -1.11541 -13.8254)
(3.33059 0.924959 0.267756)
(4.96418 -2.74078 13.3207)
(-7.88899 -3.24098 4.80699)
(0.664267 2.0443 -1.7956)
(3.81058 -0.745267 3.77802)
(-10.2845 4.45664 -5.21775)
(7.30699 -5.07362 -4.79279)
(0.920828 0.070731 -0.702837)
(-1.52218 5.3011 0.596532)
(-7.42392 1.68161 6.17209)
(-0.571079 -0.325432 -6.97764)
(0.22949 -0.0775983 1.41347)
(-0.114242 0.525754 -0.139)
(-8.23741 0.472005 1.45088)
(2.40252 7.18865 2.92321)
(14.3942 0.641959 -10.6306)
(6.80278 6.29635 -1.38722)
(-4.2851 0.253278 0.219414)
(-2.42829 2.9104 -2.87441)
(0.471654 -0.0299915 -0.203109)
(0.573515 -1.84644 3.165)
(-2.94124 -1.64793 20.1423)
(-0.817605 1.37616 -0.15283)
(-0.651584 -0.929297 0.475041)
(0.523333 0.865452 0.226186)
(-1.08894 0.450902 1.50367)
(1.70673 3.61164 4.75192)
(-3.40661 0.618067 -2.36697)
(-5.34538 -2.44526 3.42282)
(6.74834 5.42887 -2.8169)
(0.590767 -0.394046 0.661648)
(1.08693 1.22806 -1.39495)
(-0.489638 2.1673 -1.03909)
(-0.685568 -0.539219 -1.4976)
(18.0501 30.8718 -7.57767)
(-6.33558 1.18101 -4.34141)
(-0.227441 -0.137729 -0.587834)
(22.8428 21.2701 -5.19055)
(6.75211 -7.68151 5.40227)
(-3.6311 3.16593 -4.60576)
(-0.921991 -0.00910607 -0.491688)
(-20.2675 2.77732 8.51874)
(-5.46331 7.79241 -1.37221)
(2.70418 -2.62204 -2.27998)
(-13.426 -2.3885 7.79804)
(1.08954 3.20625 -9.744)
(0.524805 -27.8878 8.98024)
(1.26426 1.78604 -0.706633)
(0.710248 3.33933 -2.85347)
(6.30308 -3.21473 -2.60388)
(-3.57231 7.28227 -10.7871)
(1.46687 -0.868524 4.49354)
(-11.5407 9.69677 1.60891)
(0.0575144 3.06824 1.68048)
(-0.784994 0.714706 -3.21394)
(-1.77335 -1.52907 -2.02162)
(-5.11191 0.547096 2.07322)
(4.61871 -17.9229 -19.1015)
(-4.79705 -3.65604 -2.77992)
(-2.48237 -0.486194 -1.52413)
(1.40034 8.27867 -20.4638)
(0.817123 1.37752 -2.06419)
(-1.04226 -8.70678 -3.62835)
(-3.24438 -1.74782 0.42797)
(0.795291 -1.60371 1.08093)
(8.83897 19.9632 13.2726)
(0.252518 -0.537939 -1.4544)
(-0.829837 4.53009 -1.61629)
(-2.6146 2.8293 -25.8403)
(3.62948 4.45869 0.125921)
(0.447906 -0.509231 1.95563)
(-0.377494 0.358989 -0.527874)
(11.4725 24.0757 -0.576482)
(8.6858 -2.38041 6.17428)
(1.56169 -0.881055 3.77409)
(-0.0190575 -0.682486 1.90855)
(3.88112 -2.62485 -1.50954)
(-2.32076 0.92776 1.2525)
(-1.16415 -1.55814 4.94827)
(0.00281301 1.18048 7.61308)
(-12.7282 2.40413 -10.8974)
(-2.91977 -3.86049 1.46589)
(0.691323 -2.1663 0.525449)
(-5.70431 0.272605 9.87748)
(0.799835 -2.7726 12.2849)
(2.55176 -16.7341 -8.62134)
(0.395949 -3.93167 2.56181)
(1.6756 5.7027 3.69749)
(0.265008 -0.967033 2.64021)
(-1.38198 -0.444984 3.19332)
(-0.118409 -0.844584 -0.510419)
(4.37623 8.30727 -7.29702)
(-4.49667 -10.238 -2.10137)
(-2.71949 3.78368 -5.4066)
(0.198491 -4.40784 -1.91132)
(0.612183 2.2307 0.0145531)
(-0.0877986 2.49391 0.022184)
(3.52352 -1.57659 -3.35408)
(0.0727191 -0.975553 -0.226994)
(-7.12369 -1.08942 -0.896942)
(-2.11835 0.0388859 -1.04944)
(-0.415649 -0.742522 1.21086)
(0.398605 -3.87475 3.07481)
(5.58207 4.29501 5.93349)
(-11.8478 1.59661 -7.53719)
(2.70252 -1.93618 3.87857)
(3.00536 3.94442 -0.148343)
(-0.205479 -2.80918 1.72386)
(1.29123 -1.95026 -1.37422)
(6.12181 11.5802 -4.47848)
(2.91458 -2.88354 -3.37408)
(11.326 -2.61216 -7.22742)
(6.83172 9.82256 -1.90373)
(0.498127 -1.98401 1.52494)
(-0.297595 -1.81031 2.47335)
(17.1846 2.57054 7.67188)
(7.31513 -13.5926 -9.61456)
(-0.702197 -0.338197 -3.35416)
(2.52296 -9.74846 -5.56316)
(3.05508 3.51786 1.13423)
(14.3321 -11.0884 5.06881)
(-11.4064 11.0534 -19.0739)
(-5.06858 -0.378302 -1.47351)
(17.6091 -13.0198 -9.56056)
(-3.39987 -4.75346 0.352494)
(2.30326 1.17612 -3.24118)
(8.8107 -6.21471 5.28457)
(-0.881537 1.7908 0.218215)
(0.705836 -0.646781 0.5955)
(4.19019 -1.55072 -1.40598)
(-2.68806 3.91717 3.17256)
(-6.43892 -2.11735 -3.33253)
(-2.29864 -2.61174 3.16823)
(1.31001 -1.69151 0.433251)
(-8.03148 15.2006 8.73211)
(6.89644 6.82319 10.7685)
(-25.3004 -0.580221 21.1439)
(3.60156 17.7419 -9.66817)
(-14.7356 15.3134 -19.6395)
(-9.84285 -15.6809 19.4335)
(-11.6106 -2.36299 7.95901)
(-0.539961 -0.645199 -3.22223)
(5.8907 -4.2294 -0.482317)
(-2.08699 2.01101 -1.6577)
(-8.63256 -3.47352 4.06434)
(-12.0921 1.82453 0.714837)
(8.01415 4.67795 -7.08166)
(-19.5431 2.88339 -20.2897)
(-10.2556 11.7753 7.1711)
(8.489 -1.22536 0.281902)
(-9.54887 7.57826 -5.04748)
(-5.39945 -3.57342 -7.95779)
(-12.2678 19.6532 1.42983)
(0.0644048 -0.0982139 -0.370612)
(2.77667 5.64404 -6.25489)
(-5.94485 8.41244 9.98799)
(4.73987 1.88477 6.60846)
(-3.96092 5.18293 0.459623)
(14.6311 3.50385 8.0041)
(3.42778 4.46909 2.44546)
(-0.862858 -1.63284 0.0582329)
(0.0862666 4.60209 2.52057)
(0.989741 -0.106433 -0.0725363)
(3.16198 2.94671 -2.86081)
(5.28231 1.46698 0.424661)
(-0.380273 1.75006 -0.462684)
(6.11645 13.8345 18.9384)
(4.64082 22.7265 -0.557468)
(8.04131 17.6673 -4.49048)
(-0.443833 -0.656545 1.34359)
(-17.227 0.337623 -0.843841)
(-8.67254 1.40946 -1.65342)
(4.56429 0.234919 1.88728)
(-5.70586 -0.479915 0.136697)
(-0.481339 61.9515 1.30472)
(0.796558 -0.128014 0.284088)
(6.53145 -3.30947 0.524379)
(21.2768 15.1745 -5.10354)
(-23.1524 -12.8726 -4.28616)
(1.16652 -4.04369 17.917)
(-4.09363 -1.92456 -2.02822)
(5.1567 4.69327 0.471893)
(5.27002 -8.66522 -0.555402)
(-1.18016 -2.19381 -5.59846)
(-2.74085 -5.04887 7.19981)
(2.71579 0.0515596 -0.84939)
(-25.1394 4.10474 13.1902)
(-2.09091 2.31161 -10.6297)
(4.68363 3.36413 -4.27073)
(-5.71205 10.1385 -17.3637)
(23.8459 9.05971 -29.5337)
(4.02467 -9.92118 -14.3653)
(4.83487 -0.391795 -6.16669)
(-0.223902 0.707044 -0.0778181)
(2.52777 -1.49667 7.74343)
(1.18635 -10.5938 15.3506)
(-0.10333 -0.0367859 -0.426923)
(0.523195 1.04002 3.07459)
(-1.22051 0.617036 2.70545)
(3.76472 1.78788 -6.07237)
(6.65498 3.72721 -5.3396)
(-5.43319 6.14746 -13.7143)
(6.31113 12.8498 -3.54342)
(2.39037 0.923866 -0.482152)
(-5.38378 -1.72243 5.79716)
(-19.6031 -9.8431 21.1971)
(-2.16839 -2.91458 0.126481)
(-9.39394 -0.22579 -4.60803)
(7.49436 -15.6301 4.14939)
(0.819968 1.35601 0.354392)
(12.1706 8.69933 -11.5846)
(0.00423644 1.77783 11.4654)
(11.4355 6.45013 23.43)
(-0.537194 -1.88972 -3.31613)
(-0.852969 0.834124 -4.56572)
(5.9345 18.0004 -3.44569)
(-2.29073 -2.09881 -1.47902)
(-5.54761 0.338066 9.77278)
(0.621951 9.7411 1.58407)
(-8.67693 0.0929462 -0.625391)
(-2.80256 4.75313 4.70468)
(7.7011 1.5937 -1.52031)
(0.487168 -4.83746 3.152)
(-2.5775 -1.16449 -3.19996)
(13.8536 5.82434 0.678165)
(8.34651 6.31769 -1.62295)
(1.56725 6.45857 -0.572331)
(-13.7338 5.12155 4.95711)
(-0.685527 0.715372 -2.96027)
(-1.3317 2.70528 0.329648)
(2.14126 12.6589 -31.2912)
(-19.9677 3.77154 -17.0955)
(10.7477 22.0302 5.13816)
(-5.17744 0.740606 0.613725)
(-19.3923 15.918 15.6186)
(26.494 24.6699 -6.0202)
(2.38612 -4.43903 3.87993)
(3.97588 13.8776 5.43827)
(-1.96669 1.32245 -2.22103)
(2.50128 1.41111 0.675901)
(3.80821 3.05084 -11.8246)
(0.164511 0.51304 2.38906)
(-3.83687 -0.980595 2.61227)
(-0.876238 -9.23963 -31.1531)
(-11.0932 0.253911 -17.0562)
(-4.08241 -1.28363 0.128812)
(-0.478271 1.14596 0.191053)
(-9.2912 7.98883 2.8946)
(-1.32385 1.20762 -1.35005)
(0.478503 -1.7312 -2.04152)
(0.373368 -8.29128 -3.59526)
(-1.56664 -0.343561 -0.284701)
(26.374 -7.08471 -5.21149)
(-0.563072 -1.00588 1.64033)
(8.18797 -1.76054 6.9194)
(7.21673 8.9418 -8.36087)
(0.584586 -0.664624 2.5524)
(-9.46082 13.163 -18.809)
(-6.61909 4.67337 17.4092)
(4.83939 16.0482 -11.5922)
(-4.41181 2.75522 1.95551)
(0.148464 -0.68735 -1.03213)
(-0.953386 14.8663 0.90163)
(19.7606 -8.44374 -15.5411)
(8.20457 0.322443 -12.6544)
(-2.06987 -0.399032 -1.33328)
(0.086279 0.760252 12.3185)
(0.580124 2.49695 3.12108)
(-9.48906 1.08506 -0.220938)
(-7.1366 -2.49219 -8.29568)
(-0.0129501 -0.477224 -0.194085)
(-13.8281 11.7534 -6.3164)
(1.57581 4.6372 -14.0928)
(7.76431 -6.39837 12.9552)
(-0.0100703 -0.0111751 -0.0190682)
(7.82739 -28.1279 -8.77487)
(15.2084 14.7785 -2.75465)
(-18.1425 1.69452 0.617694)
(0.0556433 -0.521698 -0.336755)
(-0.342833 4.78763 -1.02844)
(-2.73623 1.28576 -0.500355)
(-6.7656 3.23421 -1.34674)
(2.13973 -1.96775 0.575111)
(6.40357 -4.52879 1.2851)
(14.6944 17.4215 6.0387)
(-1.89327 -3.20325 2.86369)
(3.58509 0.912374 -22.6856)
(1.83363 -1.11222 -2.03965)
(2.3326 0.919425 2.11432)
(-4.28424 -1.42793 -6.76283)
(-0.295142 -1.00287 14.5894)
(-4.21675 0.0291468 -8.32952)
(8.28167 12.884 4.2223)
(0.381264 11.5672 12.9816)
(0.980758 -14.7386 3.65912)
(-1.53948 -1.21084 -3.36294)
(-8.50219 15.799 -4.188)
(2.63493 9.47817 0.872704)
(0.850867 -11.3124 -2.71174)
(17.6493 -9.05621 -22.3115)
(1.95819 7.13533 0.046551)
(3.06654 3.42711 1.17475)
(3.63045 -2.60098 5.2103)
(-2.04223 1.9068 4.63718)
(7.20717 -1.2923 4.50006)
(28.0806 16.5206 -0.957954)
(2.0951 0.379782 0.803134)
(-0.388911 -2.77402 -1.67646)
(-14.0961 -4.09151 -1.67106)
(6.22194 8.94583 -1.73381)
(-3.48432 -20.412 18.7242)
(7.50032 -1.15323 2.25534)
(-0.0352112 0.0979428 0.0539126)
(2.79484 3.72343 -4.21048)
(-9.21195 8.66624 -7.18884)
(2.87662 6.08725 8.00915)
(21.2355 21.1702 7.75853)
(-6.4014 0.305919 11.0846)
(-15.827 -21.1325 0.581135)
(-2.14579 -1.28523 -2.11541)
(-1.21458 7.71243 4.4103)
(3.16091 -6.23551 0.19684)
(4.91971 -0.962188 4.87766)
(-3.45377 14.7792 -5.36903)
(0.613898 12.8081 11.9193)
(-4.52043 6.44757 -1.13539)
(-18.7888 -3.27429 -12.5736)
(-17.9749 12.0086 -2.45934)
(1.55992 -2.0142 0.515903)
(3.33093 -0.346237 1.61827)
(13.2957 14.3148 41.8224)
(-2.18864 -3.06 0.226915)
(-4.58452 -2.02619 2.33526)
(6.85483 17.3487 -13.4331)
(1.57318 -2.40095 -2.89181)
(-13.7646 1.28533 -14.0921)
(15.8244 0.705742 -11.6868)
(2.17873 3.64403 -0.677653)
(1.68578 7.72515 1.50746)
(-1.62017 -0.317324 -0.994753)
(0.362895 3.0803 2.41074)
(13.0265 -2.02028 -8.1841)
(-5.88893 -2.90218 4.62348)
(0.890935 -4.08439 -1.87975)
(0.189651 -2.54424 -0.591999)
(-2.43155 0.260234 0.986156)
(1.20405 -2.72905 -2.29869)
(-2.40418 15.5841 4.00593)
(-25.5509 -12.3973 -10.0483)
(-2.79661 6.67146 -6.54719)
(-0.0775483 -1.06019 0.650591)
(5.41325 -2.00336 -1.81637)
(-59.2688 -3.623 -4.02141)
(14.5081 2.89906 -10.9923)
(-0.0286254 0.0656577 -0.00712454)
(3.03321 5.705 7.34158)
(4.67489 -1.35151 5.7771)
(1.35158 -2.39574 -7.06455)
(-12.3611 -5.49337 -3.48639)
(6.5208 -19.4063 -28.1498)
(-11.2942 12.3827 3.06438)
(-1.74115 6.24016 -7.90918)
(-6.40832 -1.29248 -11.2787)
(5.39426 6.58563 -12.8563)
(-5.31574 8.71724 -5.14928)
(-3.99462 1.59691 2.15587)
(2.13768 -3.21383 -3.339)
(-22.5472 -21.6742 7.2003)
(1.81351 -1.83257 -2.38758)
(27.4128 -24.6409 1.42034)
(-5.68569 0.104371 -2.81673)
(3.76309 -3.05429 -4.44793)
(-4.20573 3.46877 3.44565)
(2.95236 0.271188 0.131666)
(0.183439 -6.21063 -3.26768)
(-16.6836 0.228248 1.9235)
(-0.0102119 0.00780936 -0.0118815)
(1.84536 4.77856 10.778)
(-18.14 -1.17387 -6.34652)
(12.3744 -0.697563 1.76411)
(4.74682 2.42389 -6.67979)
(-4.6192 10.9189 -5.67452)
(-1.04056 -1.7801 12.6555)
(-6.56193 3.90982 -1.17537)
(-1.71077 1.71259 7.8362)
(-0.0901699 -0.0339509 -0.0505555)
(8.24661 -9.23905 -48.3409)
(-2.42803 -1.38876 1.04674)
(-1.20604 -0.660423 0.296533)
(17.6414 -1.69517 -0.589207)
(3.48849 5.05534 8.61822)
(-0.707175 1.48431 0.168928)
(3.00148 -11.5974 -6.61829)
(-0.452796 8.59994 2.3432)
(-27.011 7.56001 -18.9468)
(4.70914 -3.32163 2.82449)
(0.910363 5.5085 -13.1455)
(-4.60114 6.40895 -2.61827)
(0.516218 -0.473028 0.435523)
(14.2944 17.8064 33.3053)
(-0.406729 -2.4742 3.38038)
(-4.41046 -1.42013 10.1912)
(5.1513 2.04838 7.1821)
(-15.2986 -4.16596 6.16527)
(-8.85986 -4.96304 5.97975)
(-2.05253 0.849896 2.83424)
(-2.45607 -0.08759 0.984248)
(1.63923 1.68747 1.07417)
(-17.0288 -1.27097 -4.95053)
(-3.30664 0.207224 -5.03902)
(0.796953 1.60218 8.53488)
(-6.31425 -4.91495 -3.64648)
(0.304279 -1.11033 3.03145)
(12.5097 -7.14687 -36.0852)
(-2.13857 -5.62684 -1.63734)
(3.09199 13.9796 -18.709)
(2.2743 1.14482 -1.23105)
(5.54748 10.4938 -4.05832)
(0.578158 0.497946 1.37582)
(-6.27794 -4.35007 -2.02921)
(2.43095 2.74658 -3.11985)
(-1.62233 5.64988 0.63578)
(-3.69866 -4.95042 15.7213)
(-0.274061 0.185865 -0.563615)
(-12.7136 3.9269 9.88775)
(-2.43187 -3.62498 -1.38305)
(4.78803 4.82087 9.65759)
(6.63324 1.21064 -0.990156)
(-7.86692 7.09338 -1.14146)
(-2.36488 -1.41993 -1.16214)
(3.56658 7.61997 4.52103)
(-4.87708 2.46795 2.31237)
(5.00979 1.65263 2.45113)
(4.52438 12.7982 32.1318)
(6.49197 8.90179 -3.40384)
(-7.14815 -0.0863912 4.22225)
(-3.62018 1.05636 4.28388)
(-1.89142 -2.97092 2.50938)
(4.74622 -6.57647 8.57704)
(3.20344 1.86565 1.46402)
(-3.19718 -0.333933 -1.47752)
(-7.06248 -8.02446 9.73427)
(0.617751 -0.00291074 0.208624)
(0.261171 -0.00134466 -0.132784)
(2.10036 7.12948 -5.65623)
(-1.49955 -2.43323 6.68695)
(-5.78242 3.44441 -1.21108)
(-4.87305 -1.91202 -2.84468)
(-7.72385 12.8454 1.04959)
(-0.0618519 5.27664 -8.9145)
(-6.02402 1.58101 17.8687)
(18.4202 -5.9629 15.8594)
(-0.307847 39.6219 0.834448)
(20.0728 7.62623 -24.8607)
(10.0961 18.5932 12.2088)
(4.217 20.651 -0.506558)
(-25.8319 6.95415 27.651)
(2.67776 28.8344 4.10336)
(1.24067 25.6938 -12.7509)
(9.18631 16.9177 11.1087)
(-6.51334 0.716392 -4.20925)
(-14.6326 32.3845 -10.947)
(21.5943 30.8747 25.6136)
(0.627436 -0.661387 -0.785095)
(-0.369566 14.4972 -16.8943)
(-16.6335 21.4973 20.1156)
(15.2829 26.1389 -6.41596)
(-12.9741 25.855 10.2792)
(0.150847 16.9082 -10.8384)