/*--------------------------------*- C++ -*----------------------------------*\
  =========                 |
  \\      /  F ield         | OpenFOAM: The Open Source CFD Toolbox
   \\    /   O peration     | Website:  https://openfoam.org
    \\  /    A nd           | Version:  7
     \\/     M anipulation  |
\*---------------------------------------------------------------------------*/
FoamFile
{
    version     2.0;
    format      ascii;
    class       volScalarField;
    location    "0.1325";
    object      alphat;
}
// * * * * * * * * * * * * * * * * * * * * * * * * * * * * * * * * * * * * * //

dimensions      [1 -1 -1 0 0 0 0];

internalField   nonuniform List<scalar> 
48560
(
0.00510932
0.00505723
0.00500393
0.00495162
0.0049009
0.00485225
0.00480615
0.00476299
0.00472315
0.00468693
0.00465466
0.00462658
0.00460296
0.00458403
0.00457004
0.00456119
0.00455772
0.00455985
0.00456783
0.00458188
0.00460228
0.00462931
0.00466328
0.00470451
0.00475341
0.00481035
0.00487573
0.00494964
0.00505951
0.00518417
0.00532267
0.00547356
0.00563415
0.00580097
0.00596929
0.00614112
0.00631567
0.00649727
0.00668965
0.00690636
0.00715037
0.00742025
0.00771502
0.00801519
0.00828193
0.00837761
0.00797309
0.00694018
0.00546868
0.00391592
0.00126478
0.000499803
0.000550338
0.00057458
0.000615285
0.000635962
0.0006815
0.000708557
0.000775468
0.000834871
0.000960503
0.00103639
0.00108339
0.000986558
0.00108372
0.000849224
0.000856304
0.000890368
0.000947918
0.00101945
0.00110953
0.00120322
0.00130716
0.0014007
0.00148573
0.00153804
0.00154223
0.00146079
0.00128432
0.0010751
0.000947194
0.000984854
0.00104474
0.00104342
0.00101931
0.000973673
0.000931097
0.000894686
0.000871945
0.000857052
0.000854229
0.000853004
0.000852291
0.000848707
0.000843066
0.000831383
0.00081398
0.000787493
0.000751128
0.000702829
0.00484585
0.00483088
0.00481647
0.00480364
0.00479291
0.00478471
0.00477944
0.00477743
0.00477902
0.00478446
0.00479403
0.00480795
0.00482645
0.00484975
0.00487806
0.0049116
0.00495058
0.00499516
0.00504549
0.00510163
0.00516374
0.00523188
0.00530615
0.00538656
0.0054731
0.00556561
0.00566384
0.00576677
0.00591607
0.00607267
0.00623813
0.00641066
0.00659289
0.00678582
0.00699804
0.00723605
0.007506
0.00781054
0.00815234
0.00852675
0.00893075
0.00933445
0.00965627
0.00973681
0.00945503
0.00871784
0.00757381
0.00623731
0.00511143
0.00460691
0.00507327
0.00904727
0.00945955
0.00991219
0.0103093
0.01061
0.0102356
0.0104
0.00971419
0.00989573
0.00897487
0.00868236
0.00777497
0.00820604
0.00716813
0.00711939
0.00693648
0.00696787
0.00676145
0.00672301
0.00669261
0.0067688
0.00685389
0.00699397
0.00712505
0.0071804
0.00700451
0.00648413
0.00673289
0.00642508
0.00704642
0.00995713
0.00904562
0.00847816
0.0081916
0.00817034
0.00856038
0.00958177
0.0107124
0.012142
0.0136121
0.0151027
0.0167037
0.0185533
0.0205782
0.0229583
0.0258311
0.0300275
0.0369559
0.0528135
0.00520553
0.00522044
0.00523795
0.00525817
0.00528147
0.00530817
0.00533853
0.00537269
0.0054108
0.00545293
0.00549918
0.00554954
0.00560415
0.00566303
0.00572626
0.00579379
0.00586564
0.00594164
0.00602172
0.00610635
0.00619535
0.00628898
0.00638731
0.00649066
0.00659918
0.00671333
0.00683353
0.00695962
0.00715456
0.00737075
0.00760866
0.00787343
0.00816567
0.00848996
0.00884807
0.00924129
0.00967005
0.0101216
0.0105699
0.0109345
0.0111541
0.0110999
0.0107369
0.0100237
0.00903419
0.00787467
0.00689139
0.00625211
0.00621193
0.00693543
0.0089676
0.014204
0.0146892
0.0152066
0.0148706
0.0159231
0.0148242
0.0161095
0.0141407
0.0149853
0.0131526
0.0126932
0.0114297
0.0115838
0.0104462
0.010715
0.0108317
0.0114201
0.0112229
0.0118133
0.0117094
0.0116265
0.0116034
0.0116001
0.0116406
0.0116794
0.0117036
0.0115213
0.0113873
0.0102251
0.0145452
0.0230199
0.0211959
0.0201489
0.0198092
0.0165165
0.0190669
0.0195392
0.0258855
0.0318223
0.0386258
0.0429633
0.0475671
0.0529654
0.0592814
0.0672685
0.0697768
0.0636186
0.0592189
0.0580421
0.00629855
0.00632824
0.00636169
0.00639977
0.00644174
0.00648884
0.00654028
0.00659692
0.00665791
0.00672394
0.00679455
0.00687046
0.0069514
0.00703803
0.00713027
0.00722876
0.00733364
0.00744565
0.00756527
0.00769283
0.00782874
0.0079735
0.00812737
0.00829101
0.00846505
0.00865036
0.00884751
0.0090575
0.00937538
0.00972063
0.0100926
0.010492
0.0109128
0.0113468
0.01177
0.0121502
0.0124374
0.0125723
0.0125143
0.012213
0.0116744
0.0108999
0.0100028
0.00909913
0.0082887
0.0077166
0.00754571
0.00789062
0.0088387
0.0105877
0.0138508
0.0181511
0.0194492
0.0206601
0.0196316
0.0210331
0.0191191
0.0200132
0.0179698
0.0183776
0.0164769
0.0156706
0.0145916
0.0145782
0.0144101
0.0144291
0.0154212
0.0164503
0.0168048
0.0170125
0.0173072
0.0176551
0.0180519
0.0184746
0.0185946
0.0167343
0.0139864
0.0134947
0.0149953
0.0173609
0.0297882
0.0434108
0.0412316
0.0402566
0.0324961
0.030083
0.0328657
0.0306776
0.033176
0.0336819
0.0377839
0.0409484
0.0464348
0.0509812
0.0565193
0.0610301
0.0641497
0.0647124
0.0641721
0.0638483
0.00814574
0.00818882
0.00824
0.00829969
0.00836716
0.00844365
0.00852844
0.00862254
0.00872517
0.0088372
0.0089581
0.00908876
0.00922878
0.009379
0.00953914
0.00970989
0.00989097
0.0100829
0.0102854
0.0104987
0.0107227
0.0109571
0.0112028
0.0114598
0.0117275
0.0120048
0.0122894
0.0125789
0.0129565
0.0133246
0.013649
0.013917
0.0140882
0.0141474
0.0140706
0.0138425
0.0134496
0.0128965
0.0121949
0.0114626
0.0107006
0.00999368
0.00939352
0.00898904
0.00886948
0.00913345
0.00984331
0.0110332
0.0128053
0.0145264
0.0185543
0.0205018
0.0221461
0.0229203
0.0228977
0.0237654
0.0227115
0.0232876
0.0218372
0.0220476
0.0205884
0.0197336
0.0188536
0.0189804
0.0198201
0.0194333
0.0216724
0.0224365
0.0245049
0.025303
0.0265941
0.0270816
0.0270483
0.0258979
0.0234248
0.0202021
0.0174896
0.0170815
0.0170713
0.0221088
0.0336045
0.0407553
0.0428446
0.028638
0.0266608
0.0273296
0.0286563
0.0288287
0.0324392
0.0341971
0.0393583
0.0430436
0.0495121
0.0550696
0.0622131
0.0667028
0.0685924
0.0697147
0.0709072
0.0717008
0.011363
0.0114118
0.0114788
0.0115606
0.0116583
0.0117705
0.011898
0.0120397
0.0121958
0.0123654
0.0125486
0.0127447
0.0129536
0.0131748
0.0134077
0.0136512
0.0139035
0.0141618
0.0144219
0.0146805
0.0149319
0.015171
0.0153895
0.015581
0.0157389
0.0158596
0.0159406
0.0159952
0.0159353
0.0158173
0.0155729
0.0152479
0.0148005
0.0142702
0.0136797
0.0130637
0.0124303
0.0118162
0.0112477
0.0107659
0.0104017
0.0102154
0.0102583
0.0105947
0.0112725
0.0123166
0.0137278
0.0155527
0.0156261
0.0173174
0.0204856
0.0222783
0.0242927
0.0255334
0.0261314
0.0263966
0.0263609
0.0262242
0.02561
0.0252509
0.0244495
0.0236182
0.0234069
0.0240629
0.0258449
0.0253862
0.0284871
0.0290089
0.0322177
0.0324188
0.0346492
0.0336117
0.0333111
0.0301688
0.0266212
0.0224319
0.0201856
0.0202035
0.0210771
0.0262431
0.0335043
0.0377305
0.0377156
0.0299633
0.0307796
0.0303185
0.0316324
0.03213
0.0350262
0.037143
0.0416608
0.0451479
0.0508312
0.0561783
0.0631549
0.0693888
0.0730202
0.0753358
0.0770306
0.0780991
0.0164158
0.0164098
0.0164372
0.0164843
0.0165594
0.0166513
0.0167643
0.016888
0.0170233
0.0171613
0.0173016
0.0174362
0.0175634
0.0176759
0.0177712
0.0178433
0.0178906
0.0179092
0.0178934
0.0178417
0.0177508
0.0176205
0.0174491
0.0172386
0.0169894
0.0167054
0.0163898
0.0160605
0.015568
0.0150891
0.0145631
0.0140626
0.0135458
0.0130758
0.0126254
0.0122447
0.011926
0.0117174
0.0116262
0.0117014
0.0119655
0.0124659
0.0132231
0.0142581
0.0155672
0.0171393
0.0189973
0.0189294
0.0184366
0.0203954
0.022452
0.023923
0.0260082
0.0273755
0.0279915
0.0282542
0.028362
0.0282468
0.0278261
0.0275133
0.0271079
0.0268351
0.0272491
0.0286766
0.0308334
0.0307703
0.0338548
0.0345522
0.0376535
0.0380387
0.0401289
0.0387583
0.037909
0.0338295
0.0297643
0.0255255
0.0236305
0.0231697
0.0244189
0.0290098
0.0327359
0.0350721
0.0335573
0.0306311
0.0321504
0.0322161
0.0338246
0.0349211
0.0378831
0.0404928
0.0450397
0.0495479
0.0560859
0.0627205
0.0693352
0.0747066
0.0781278
0.0809556
0.0828151
0.0840066
0.0219643
0.0217619
0.0215762
0.0213995
0.0212382
0.0210784
0.0209242
0.0207621
0.0205952
0.0204126
0.0202172
0.0200012
0.0197677
0.0195112
0.0192349
0.0189353
0.0186162
0.0182784
0.0179328
0.0175748
0.0172122
0.0168434
0.0164746
0.016106
0.0157428
0.0153862
0.0150404
0.0147152
0.0143518
0.0140548
0.0137739
0.0135601
0.0133907
0.0133062
0.0132947
0.0133934
0.0136027
0.0139569
0.0144657
0.0151579
0.0160374
0.0171158
0.0183829
0.0198317
0.0214507
0.0232688
0.0230965
0.0210812
0.0211816
0.0227997
0.0239301
0.0251867
0.0274889
0.0289667
0.0294505
0.0297574
0.0298468
0.0296924
0.0293346
0.0289294
0.0288515
0.029008
0.030117
0.032126
0.0345878
0.0352148
0.0379907
0.0388992
0.0417747
0.0426551
0.0442914
0.0429773
0.0411164
0.036443
0.0318882
0.0280286
0.0265497
0.0262178
0.0276737
0.0309502
0.0329553
0.0352373
0.0340835
0.0336402
0.0347207
0.0353357
0.0366745
0.0382457
0.0409586
0.0440936
0.0486075
0.0537845
0.0603503
0.0674874
0.0747173
0.0803069
0.0839378
0.0869143
0.0889196
0.0902094
0.0235073
0.0230862
0.0226569
0.0222418
0.0218328
0.0214334
0.0210393
0.0206512
0.0202681
0.01989
0.0195179
0.0191512
0.0187922
0.0184401
0.0180978
0.0177646
0.0174439
0.0171351
0.0168416
0.0165642
0.0163074
0.0160727
0.0158654
0.0156883
0.0155476
0.0154477
0.0153971
0.0154066
0.0154302
0.0155363
0.0156963
0.0159356
0.0162427
0.0166366
0.0171203
0.0177173
0.0184205
0.019252
0.020201
0.021282
0.0224743
0.0237846
0.0251925
0.0267164
0.0283687
0.0279278
0.0248558
0.0235563
0.0236539
0.0247995
0.0251944
0.0263197
0.0286485
0.0300434
0.0303634
0.030661
0.0306034
0.0304849
0.0300302
0.0296609
0.0297553
0.0303055
0.0318339
0.0342305
0.0369784
0.0383386
0.0405619
0.0416109
0.0442236
0.0453913
0.0465792
0.0454418
0.0429671
0.0384841
0.0341575
0.030938
0.0294896
0.0291054
0.0303195
0.0321993
0.0332388
0.0353657
0.0350004
0.03581
0.0368512
0.0378795
0.0392819
0.0413298
0.044242
0.047971
0.0528797
0.0587244
0.0658693
0.0732561
0.0804823
0.0860836
0.0900455
0.0930329
0.0952298
0.0965955
0.0214522
0.0211008
0.0207433
0.0204089
0.0200814
0.0197725
0.0194722
0.0191892
0.0189183
0.0186664
0.0184313
0.0182175
0.018024
0.0178537
0.0177074
0.0175879
0.0174979
0.0174408
0.0174213
0.0174441
0.0175162
0.0176443
0.0178379
0.018106
0.0184615
0.0189173
0.0194914
0.0202013
0.0206409
0.0211491
0.0217
0.0223113
0.0229563
0.0236507
0.0244036
0.0252352
0.0261227
0.0270862
0.0281037
0.0291929
0.0303327
0.0315434
0.0328163
0.0341882
0.0328504
0.0292722
0.026931
0.0257485
0.0257146
0.0263742
0.0262427
0.0272323
0.0294311
0.0306961
0.0308615
0.0311001
0.0308868
0.0307611
0.0301767
0.0298166
0.0300084
0.0308069
0.0325648
0.0351695
0.0381927
0.0401383
0.0418666
0.0430255
0.0454252
0.0468001
0.0478787
0.0470122
0.0444238
0.0403481
0.036441
0.0337638
0.0323303
0.0318353
0.0323821
0.0332618
0.0339652
0.0363994
0.0367992
0.0382462
0.0393427
0.0405857
0.0421547
0.0445096
0.0477931
0.0519339
0.0574649
0.063843
0.0717085
0.0793207
0.0868534
0.0921458
0.0963931
0.0992328
0.101679
0.103093
0.0199063
0.0197748
0.019642
0.0195324
0.0194282
0.0193449
0.0192708
0.0192198
0.0191851
0.0191793
0.0191993
0.0192554
0.0193448
0.0194755
0.0196471
0.0198677
0.0201398
0.0204726
0.0208715
0.021347
0.0219076
0.0225652
0.0233308
0.0242181
0.0252401
0.0264114
0.0277471
0.0292538
0.0298528
0.0304733
0.0311007
0.0317458
0.0323836
0.0330246
0.0336952
0.0344075
0.0351418
0.0359112
0.0367018
0.0375289
0.038387
0.0392992
0.0402719
0.0368726
0.0337254
0.0307529
0.0287747
0.0275188
0.0273418
0.0275575
0.0271001
0.0279321
0.0298714
0.0309599
0.0309558
0.0310873
0.0307423
0.030578
0.0298746
0.0295262
0.0297544
0.0306751
0.0324702
0.0351415
0.0383349
0.0406883
0.0421468
0.043453
0.0456328
0.0472763
0.0485013
0.0481283
0.0459331
0.0425692
0.0392033
0.0367892
0.0350442
0.0341725
0.0340055
0.0341647
0.0347618
0.0374439
0.0385249
0.0404534
0.0418034
0.0432606
0.0451163
0.0478118
0.0516317
0.0562424
0.0625865
0.0694453
0.0781148
0.0856684
0.0935208
0.0984469
0.102958
0.105599
0.108287
0.109741
0.0206823
0.0207839
0.0208934
0.021027
0.0211695
0.0213366
0.0215181
0.0217301
0.0219669
0.0222447
0.0225612
0.0229315
0.0233537
0.0238378
0.0243816
0.0249957
0.0256812
0.0264484
0.0273002
0.028247
0.0292927
0.0304451
0.0317101
0.0330915
0.0345911
0.036206
0.0379307
0.0397443
0.0401638
0.0405705
0.0409655
0.0413584
0.041734
0.0420948
0.0424743
0.0428749
0.0432827
0.0437036
0.044135
0.0434453
0.0424477
0.0409385
0.0392485
0.036888
0.0345217
0.0319673
0.0301136
0.0288861
0.0284816
0.0283578
0.0276909
0.0284324
0.0299886
0.0308787
0.0306952
0.0307024
0.0302659
0.0300459
0.0292645
0.0289227
0.0291614
0.0301036
0.0318175
0.0344298
0.0376755
0.0403243
0.0418816
0.0433567
0.0453705
0.0474441
0.0490418
0.0494328
0.0479232
0.0453255
0.042347
0.0398971
0.0376296
0.0362325
0.0353721
0.0350717
0.0357028
0.0386886
0.0403552
0.0427349
0.0444147
0.046087
0.0482457
0.0513435
0.0557587
0.0609449
0.0681473
0.0755109
0.084922
0.0923908
0.100388
0.104978
0.109644
0.112162
0.115006
0.116515
0.023871
0.0242047
0.0245581
0.0249383
0.0253321
0.0257528
0.0261917
0.0266632
0.027163
0.0277073
0.0282957
0.0289443
0.0296543
0.0304357
0.0312824
0.0321996
0.0331815
0.0342319
0.0353452
0.0365233
0.037761
0.0390583
0.0404011
0.0417807
0.0431774
0.0445723
0.0459416
0.047266
0.0473756
0.0471214
0.0461405
0.0443645
0.0434724
0.0423921
0.0416358
0.0408699
0.0402277
0.0394743
0.0388752
0.0382203
0.0377274
0.0371149
0.0365237
0.0355485
0.0342088
0.0325817
0.0311476
0.0298536
0.029233
0.0288349
0.0280504
0.0288191
0.0298659
0.0305099
0.0301184
0.0299922
0.0295005
0.0292279
0.0284112
0.0280814
0.0283277
0.0292364
0.030797
0.0332498
0.0364358
0.0393586
0.0413178
0.0429587
0.0448725
0.0475117
0.0496519
0.0511119
0.0505475
0.0487643
0.0459094
0.0430278
0.0401106
0.0380844
0.0365703
0.0359377
0.0365946
0.0398317
0.0420611
0.0449361
0.0470839
0.0490501
0.0515429
0.0551648
0.0602399
0.0661649
0.0742289
0.082144
0.0920933
0.0995065
0.107436
0.11173
0.116376
0.118838
0.121751
0.123327
0.028639
0.029186
0.029762
0.0303643
0.0309798
0.0316176
0.0322671
0.0329373
0.0336214
0.0343305
0.0350628
0.0358316
0.0366381
0.0374939
0.0383899
0.0393206
0.0402696
0.0412277
0.0421785
0.0431104
0.0440056
0.0448455
0.0456052
0.0462636
0.0467944
0.0471767
0.0460298
0.0441997
0.0438354
0.0411321
0.0406502
0.0390283
0.0384372
0.0373582
0.0367186
0.0360278
0.0354524
0.0349228
0.0343457
0.0338508
0.0333564
0.0329381
0.0325806
0.032302
0.0321208
0.0318046
0.0311656
0.030306
0.029725
0.029133
0.0283759
0.0290921
0.0295542
0.0298656
0.0292438
0.0289934
0.028486
0.0282009
0.0274178
0.0271257
0.0273766
0.0282177
0.0295755
0.0317916
0.0348199
0.0379726
0.0405092
0.0423688
0.0442642
0.0475953
0.0504612
0.0532981
0.0538777
0.052807
0.0496826
0.0460172
0.0423968
0.0396903
0.0376654
0.0367379
0.0374123
0.0408376
0.0435782
0.0470393
0.0498157
0.0521625
0.0550355
0.0593109
0.0651267
0.071951
0.0808752
0.0894149
0.0996946
0.10702
0.114663
0.11866
0.123099
0.125537
0.128436
0.13008
0.0335049
0.0341768
0.0348777
0.035598
0.0363238
0.0370597
0.0377922
0.0385225
0.039238
0.0399397
0.0406187
0.0412793
0.0419191
0.0425465
0.0431618
0.0437581
0.0443123
0.0448038
0.045207
0.0455011
0.0450481
0.0440944
0.0432659
0.0423672
0.041386
0.0402411
0.0392728
0.03818
0.0380425
0.0358505
0.0358005
0.0343867
0.0341884
0.0332983
0.0329702
0.0325029
0.0320652
0.0317896
0.0313304
0.030956
0.0305538
0.0302432
0.0299473
0.0297879
0.0297264
0.0297549
0.0298586
0.0300503
0.029886
0.029617
0.0288642
0.0294107
0.0292742
0.029091
0.0281345
0.027714
0.0271988
0.0269285
0.0262071
0.0259617
0.0262378
0.0270311
0.028202
0.0301752
0.0329854
0.0362542
0.0392773
0.0414879
0.0436904
0.0475833
0.0514781
0.0558739
0.0578397
0.0572718
0.0534514
0.0487837
0.044378
0.041032
0.0386339
0.0374332
0.0380819
0.041595
0.0448199
0.0490014
0.0524957
0.05548
0.0588742
0.0638804
0.0705875
0.0784321
0.0882378
0.0973455
0.107738
0.114878
0.122067
0.125722
0.129757
0.132136
0.134948
0.13665
0.0368338
0.0374723
0.0381269
0.0387875
0.0394403
0.0400878
0.0407157
0.0413213
0.0418881
0.0424092
0.0428679
0.0432569
0.0435648
0.0437914
0.0439362
0.0440072
0.0433593
0.041939
0.0402481
0.0386207
0.0371356
0.0359131
0.0349339
0.0341637
0.0334899
0.032833
0.0323328
0.0319296
0.0320041
0.0304083
0.0307627
0.0295348
0.0297409
0.0290722
0.0290801
0.0288143
0.0285784
0.028451
0.0281827
0.0280752
0.0279678
0.0279739
0.0279879
0.0280466
0.0280969
0.0282099
0.0285106
0.0289484
0.0294189
0.0298422
0.0294219
0.0296607
0.0288491
0.0279763
0.0266584
0.0260973
0.0256344
0.0254788
0.0249537
0.0248241
0.0251387
0.0258788
0.0268376
0.0285201
0.0309699
0.0341472
0.0373835
0.0402091
0.0432876
0.04726
0.0526661
0.0585402
0.0621426
0.0617388
0.0568433
0.0511785
0.0461127
0.0422643
0.0395553
0.0381215
0.0386769
0.0422119
0.0459639
0.0509237
0.0552496
0.0593511
0.0634878
0.0692271
0.077067
0.085967
0.096683
0.106076
0.116201
0.122868
0.129453
0.132755
0.136226
0.138425
0.141068
0.142811
0.0375257
0.037974
0.0384178
0.0388524
0.0392658
0.0396609
0.0400277
0.0403622
0.0406485
0.0408805
0.0410406
0.0411159
0.0410869
0.0409418
0.0406701
0.0377856
0.0359847
0.0349061
0.0335768
0.0318954
0.0301813
0.0286614
0.0274102
0.0264911
0.0258643
0.0254602
0.0253125
0.0254188
0.0258362
0.0252154
0.0261042
0.025047
0.0256185
0.0250765
0.0253653
0.0251347
0.0251514
0.0249716
0.024937
0.0249711
0.0250604
0.0252045
0.0255021
0.0258347
0.02633
0.026794
0.0273327
0.0278349
0.0285965
0.0294839
0.030061
0.0302255
0.0291263
0.0273337
0.0252419
0.0242286
0.023721
0.0236664
0.0233442
0.0232916
0.0236551
0.0244143
0.0252225
0.0267289
0.0288036
0.0318315
0.035096
0.0385716
0.0426296
0.0465955
0.0536478
0.0608993
0.0661513
0.0655959
0.0596076
0.0530393
0.0475033
0.0433688
0.0404266
0.0388132
0.0392061
0.0427108
0.0470498
0.05287
0.0584561
0.0643206
0.069572
0.0762619
0.085594
0.0955314
0.106999
0.116039
0.125096
0.130595
0.136281
0.139396
0.142346
0.144187
0.146441
0.148167
0.035397
0.0355753
0.0357318
0.035869
0.0359777
0.0360621
0.0361171
0.036139
0.0361157
0.036045
0.0359173
0.0357229
0.0354455
0.0350703
0.0345795
0.0339617
0.0324301
0.0296371
0.0280226
0.0264759
0.024593
0.022643
0.0210192
0.019777
0.0190168
0.0186523
0.0185863
0.0174829
0.0179495
0.0184119
0.0188576
0.0193699
0.0199297
0.0205995
0.0212886
0.0217867
0.022139
0.0220594
0.0223019
0.0223806
0.022613
0.0227467
0.0231029
0.0234073
0.0239808
0.0246228
0.0254932
0.0263774
0.0274004
0.0286027
0.0296237
0.0301392
0.0282863
0.025544
0.0230037
0.0217296
0.0212631
0.0214849
0.0216965
0.0219912
0.0223907
0.0233202
0.0238754
0.0252172
0.0266641
0.0293117
0.0323952
0.036146
0.0406818
0.0461362
0.0535622
0.0627024
0.0689705
0.06798
0.0611851
0.0542126
0.0485457
0.0443841
0.0413641
0.0396377
0.0398143
0.0431759
0.0478999
0.0546339
0.061922
0.070191
0.0774877
0.0860826
0.0973701
0.108541
0.119938
0.127576
0.134373
0.138111
0.142391
0.145523
0.148248
0.149648
0.150973
0.152392
0.031051
0.0309794
0.0308789
0.0307578
0.0306107
0.0304406
0.0302426
0.0300159
0.0297554
0.0294619
0.0291301
0.0287581
0.0283374
0.0278603
0.0273129
0.0266809
0.0259472
0.0251022
0.0241464
0.0218629
0.0199681
0.0179868
0.0160837
0.0145498
0.0134769
0.0128493
0.012608
0.0113172
0.0117068
0.0120793
0.0124332
0.0128593
0.0133126
0.0138742
0.0144511
0.0150949
0.0157718
0.0165098
0.0172941
0.0181526
0.019088
0.0201284
0.0206329
0.0209355
0.0214853
0.0221561
0.0231719
0.0243621
0.0259011
0.0277407
0.0296829
0.0324046
0.0320698
0.0279283
0.0229439
0.0201022
0.0189295
0.0189785
0.0192448
0.0200104
0.0202415
0.0214603
0.0217339
0.0231824
0.0241979
0.0268612
0.0298308
0.0335963
0.0378693
0.0452923
0.0528458
0.0637083
0.070587
0.0688228
0.0616021
0.0545902
0.0490235
0.0449188
0.0419393
0.0400669
0.0397874
0.0423755
0.0475244
0.0549686
0.0639349
0.0748165
0.0856431
0.0966629
0.109304
0.12161
0.129054
0.133022
0.137075
0.141118
0.145053
0.148741
0.15202
0.153949
0.154688
0.155553
0.0254657
0.0252311
0.0249698
0.0246924
0.0243968
0.0240833
0.0237493
0.0233951
0.023019
0.0226221
0.0222023
0.0217598
0.0212916
0.0207958
0.0202667
0.0196976
0.0190765
0.0183898
0.0176217
0.0167627
0.01582
0.0148045
0.0134784
0.0111374
0.00943133
0.00846316
0.00826013
0.00730572
0.00752606
0.00774863
0.00795021
0.00822025
0.00850525
0.00888147
0.00927047
0.00972515
0.0102083
0.0107532
0.0113339
0.011986
0.0127047
0.0135246
0.0144465
0.0155013
0.0166936
0.0180408
0.0195315
0.0209277
0.0225594
0.0244742
0.0262335
0.0277691
0.0287831
0.0254621
0.0197716
0.0176465
0.0171577
0.0173054
0.0177631
0.019229
0.0192852
0.0207562
0.020903
0.0223476
0.0228709
0.0249311
0.0268261
0.0301927
0.0341523
0.0405085
0.0501124
0.0582595
0.0646082
0.0631946
0.058002
0.0523312
0.047886
0.0444579
0.0417644
0.0398839
0.0393499
0.0417036
0.0464092
0.0532178
0.062735
0.0741059
0.0874876
0.0952921
0.0989342
0.102936
0.107319
0.112105
0.117307
0.122913
0.128866
0.135074
0.141342
0.147345
0.152581
0.156372
0.0196241
0.0193297
0.019016
0.018692
0.0183586
0.018014
0.0176583
0.0172908
0.0169116
0.0165205
0.0161171
0.0157015
0.0152732
0.0148323
0.0143779
0.0139095
0.0134245
0.012919
0.0123845
0.0118081
0.0111734
0.0104686
0.0096996
0.00887368
0.00735135
0.00587803
0.00546192
0.00512526
0.00517013
0.0052353
0.00529698
0.00541059
0.00553599
0.00572237
0.00591706
0.00616125
0.00642386
0.00673466
0.00706795
0.00745624
0.00788912
0.00839358
0.00898477
0.00968227
0.0104958
0.0114407
0.0125161
0.0137154
0.0150063
0.016342
0.0176415
0.0188365
0.0194469
0.0198792
0.0203855
0.0211832
0.0188643
0.0172731
0.0170911
0.0190854
0.0185988
0.0204972
0.0204269
0.0212729
0.0217455
0.0227809
0.0257278
0.0297909
0.034848
0.0402152
0.0534664
0.056802
0.0565167
0.0564344
0.0552673
0.049067
0.0445174
0.0414808
0.0392294
0.0376136
0.0363602
0.0364191
0.0390693
0.0450336
0.0544757
0.0605342
0.0627888
0.0656886
0.0687374
0.0722294
0.0762277
0.0808178
0.086064
0.0921109
0.0990871
0.107189
0.116556
0.127251
0.138942
0.150368
0.0143736
0.0141079
0.0138312
0.0135488
0.0132639
0.0129732
0.0126787
0.0123785
0.0120739
0.0117636
0.0114486
0.0111281
0.0108026
0.0104718
0.0101361
0.00979561
0.00945025
0.00909966
0.0087423
0.00837569
0.00799095
0.00757463
0.00711179
0.00660381
0.00605132
0.00493545
0.0038424
0.00403843
0.00405202
0.00402223
0.00399666
0.00400935
0.00403109
0.00408812
0.00415062
0.00424154
0.00434075
0.00446701
0.00460182
0.00476539
0.00494932
0.00516996
0.00543381
0.00576084
0.00615687
0.00663615
0.00720081
0.00785605
0.00858484
0.0093657
0.0101539
0.010913
0.0112649
0.0114578
0.0115949
0.0118088
0.00946795
0.00959889
0.0147
0.0206132
0.0225669
0.0255821
0.0264287
0.028042
0.0290673
0.0290951
0.0308664
0.029278
0.0287868
0.0289259
0.031652
0.0334642
0.0330735
0.0328267
0.0326492
0.0324683
0.0322728
0.0320552
0.0315152
0.0301561
0.0290851
0.0296072
0.0308563
0.0313192
0.0317293
0.0322984
0.0333938
0.0350793
0.0368734
0.03899
0.0414666
0.0443941
0.0478316
0.0519971
0.0571062
0.063607
0.0721155
0.0837675
0.100424
0.125293
0.0103885
0.010209
0.0100247
0.009837
0.00965032
0.0094603
0.00927022
0.00907693
0.0088827
0.00868533
0.00848625
0.00828393
0.00807895
0.0078702
0.00765777
0.00744136
0.0072215
0.00699913
0.00677516
0.00655009
0.00632306
0.00609109
0.00583867
0.00553624
0.00515629
0.00451189
0.00270567
0.00298448
0.0034769
0.00345335
0.00339587
0.0033809
0.00335785
0.0033639
0.00336458
0.00338399
0.00340096
0.00342997
0.00345567
0.00349182
0.00353196
0.00358758
0.00365874
0.00375321
0.00387453
0.00403182
0.00422856
0.00446614
0.00474142
0.00504136
0.00534682
0.00563551
0.00576286
0.00579735
0.0057618
0.00573179
0.00578229
0.00628957
0.00861141
0.010947
0.011477
0.0119757
0.0127212
0.013532
0.0141801
0.015059
0.0157902
0.016334
0.0168691
0.0167817
0.0153313
0.0156792
0.0154197
0.0147451
0.0143863
0.014075
0.0137924
0.0135798
0.01327
0.0130256
0.0127614
0.0127777
0.0129699
0.0130033
0.0128
0.0126728
0.0129072
0.0133885
0.0138619
0.0144561
0.0151923
0.016089
0.0171315
0.0184127
0.0199876
0.0220596
0.0249074
0.0292281
0.0366542
0.0539218
0.0075033
0.00740218
0.00729578
0.00718513
0.00707327
0.00695681
0.00683855
0.00671524
0.00658939
0.00645801
0.00632322
0.00618225
0.00603666
0.00588399
0.00572539
0.00555894
0.00538518
0.00520182
0.00500841
0.00480317
0.00458757
0.00436149
0.00412225
0.00385868
0.0035493
0.00318456
0.00275577
0.000638852
0.000618582
0.000613314
0.000606685
0.000607359
0.000609431
0.000614664
0.000620259
0.000626343
0.000632406
0.000637492
0.00064108
0.000642449
0.00064245
0.000641147
0.000639422
0.000638099
0.000638139
0.000640102
0.000644173
0.000651012
0.000660485
0.000672941
0.00068714
0.000699377
0.000704797
0.000705107
0.000701669
0.000695766
0.000683671
0.000649543
0.000672562
0.000733416
0.000780285
0.000824324
0.000858454
0.000891225
0.000918739
0.000946409
0.000971184
0.00100787
0.00104763
0.00109388
0.00114319
0.00118107
0.0012133
0.00123602
0.00124348
0.00124204
0.00123294
0.00121667
0.00119516
0.00117003
0.00114483
0.00113424
0.00112301
0.00110728
0.00108731
0.00106339
0.0010385
0.00101774
0.00099978
0.000984181
0.000969962
0.000956386
0.000941698
0.000924998
0.000904902
0.000880374
0.000850295
0.000813764
0.000769871
0.000717688
0.000376872
0.0196668
0.0223962
0.0224854
0.0224883
0.0224879
0.0224875
0.0224868
0.0224863
0.0224857
0.0224854
0.0224854
0.0224856
0.0224861
0.0224867
0.0224872
0.0224877
0.022488
0.0224884
0.0224886
0.000403019
0.0176242
0.0222159
0.0224616
0.0224721
0.0224721
0.0224717
0.0224711
0.0224706
0.0224702
0.02247
0.0224704
0.0224713
0.0224729
0.0224744
0.0224759
0.0224772
0.0224781
0.022479
0.0224795
0.000427817
0.0161198
0.0219891
0.0224322
0.0224558
0.0224567
0.0224564
0.0224559
0.0224556
0.0224552
0.0224553
0.0224561
0.0224578
0.0224603
0.0224629
0.0224653
0.0224674
0.022469
0.0224703
0.0224711
0.00045121
0.0149563
0.0217302
0.0223967
0.0224394
0.0224417
0.0224415
0.0224412
0.0224409
0.0224407
0.022441
0.0224422
0.0224447
0.0224482
0.0224518
0.0224551
0.022458
0.0224602
0.022462
0.0224632
0.000473208
0.0140184
0.0214488
0.0223546
0.0224226
0.0224269
0.022427
0.0224268
0.0224266
0.0224265
0.022427
0.0224287
0.022432
0.0224365
0.0224412
0.0224454
0.022449
0.0224519
0.0224541
0.0224556
0.000493884
0.0132074
0.0211481
0.0223057
0.0224051
0.0224121
0.0224126
0.0224125
0.0224126
0.0224126
0.0224134
0.0224156
0.0224196
0.0224251
0.0224308
0.022436
0.0224404
0.022444
0.0224466
0.0224485
0.000513243
0.0124531
0.0208272
0.0222496
0.0223866
0.0223974
0.0223983
0.0223985
0.0223987
0.022399
0.0224001
0.0224028
0.0224076
0.0224141
0.0224208
0.022427
0.0224322
0.0224364
0.0224396
0.0224416
0.000531393
0.0117425
0.0204879
0.0221863
0.022367
0.0223827
0.0223842
0.0223847
0.0223851
0.0223857
0.022387
0.0223903
0.0223959
0.0224034
0.0224112
0.0224183
0.0224244
0.0224292
0.0224329
0.0224352
0.000548354
0.0110854
0.0201344
0.0221158
0.0223462
0.022368
0.0223703
0.022371
0.0223717
0.0223725
0.0223743
0.0223781
0.0223846
0.0223931
0.022402
0.0224101
0.0224169
0.0224225
0.0224266
0.0224292
0.000564242
0.0104897
0.0197712
0.0220382
0.0223241
0.0223533
0.0223565
0.0223577
0.0223586
0.0223597
0.0223619
0.0223663
0.0223737
0.0223832
0.0223932
0.0224022
0.0224099
0.0224161
0.0224207
0.0224236
0.000579061
0.00995636
0.0194033
0.0219539
0.0223006
0.0223385
0.022343
0.0223445
0.0223457
0.0223473
0.0223498
0.0223549
0.0223631
0.0223737
0.0223848
0.0223948
0.0224033
0.0224102
0.0224153
0.0224184
0.000592923
0.00948181
0.0190352
0.0218632
0.0222758
0.0223237
0.0223297
0.0223317
0.0223332
0.0223352
0.0223382
0.0223439
0.022353
0.0223646
0.0223768
0.0223878
0.0223972
0.0224047
0.0224103
0.0224138
0.000605816
0.00906095
0.0186707
0.0217668
0.0222496
0.022309
0.0223167
0.0223191
0.0223211
0.0223235
0.022327
0.0223334
0.0223434
0.0223561
0.0223693
0.0223813
0.0223916
0.0223998
0.0224059
0.0224097
0.000617843
0.00868767
0.0183128
0.0216653
0.022222
0.0222943
0.022304
0.022307
0.0223094
0.0223123
0.0223163
0.0223234
0.0223343
0.0223481
0.0223623
0.0223754
0.0223865
0.0223954
0.0224021
0.0224061
0.000628966
0.0083554
0.017964
0.0215594
0.0221932
0.0222796
0.0222917
0.0222953
0.0222982
0.0223015
0.0223062
0.022314
0.0223259
0.0223407
0.022356
0.0223701
0.0223822
0.0223917
0.0223989
0.0224032
0.000639219
0.00805459
0.0176262
0.0214501
0.0221631
0.0222652
0.0222799
0.0222842
0.0222876
0.0222915
0.0222967
0.0223053
0.0223181
0.022334
0.0223505
0.0223656
0.0223785
0.0223888
0.0223965
0.022401
0.000648548
0.00778227
0.0173007
0.0213381
0.0221321
0.0222511
0.0222687
0.0222737
0.0222777
0.0222822
0.022288
0.0222973
0.0223111
0.0223281
0.0223458
0.0223619
0.0223757
0.0223867
0.0223949
0.0223997
0.000657001
0.00753562
0.016989
0.0212244
0.0221004
0.0222374
0.0222582
0.022264
0.0222687
0.0222738
0.0222803
0.0222904
0.0223051
0.0223232
0.022342
0.0223592
0.0223739
0.0223856
0.0223943
0.0223994
0.000664446
0.00731242
0.0166921
0.0211103
0.0220683
0.0222245
0.0222486
0.0222553
0.0222607
0.0222664
0.0222736
0.0222845
0.0223002
0.0223195
0.0223394
0.0223577
0.0223733
0.0223856
0.0223949
0.0224003
0.000671119
0.00711073
0.0164115
0.020997
0.0220363
0.0222124
0.02224
0.0222479
0.022254
0.0222604
0.0222683
0.02228
0.0222967
0.0223171
0.0223382
0.0223575
0.022374
0.022387
0.0223969
0.0224025
0.000676548
0.00692913
0.0161482
0.020886
0.0220048
0.0222016
0.0222329
0.0222421
0.0222489
0.0222559
0.0222645
0.022277
0.0222947
0.0223162
0.0223384
0.0223589
0.0223762
0.02239
0.0224004
0.0224064
0.000681128
0.00676656
0.0159041
0.020779
0.0219745
0.0221925
0.0222276
0.0222383
0.0222458
0.0222534
0.0222626
0.0222759
0.0222946
0.0223172
0.0223406
0.0223621
0.0223803
0.0223948
0.0224058
0.022412
0.000684662
0.00662211
0.0156802
0.0206782
0.0219459
0.0221856
0.0222248
0.022237
0.022245
0.0222532
0.022263
0.022277
0.0222967
0.0223204
0.0223448
0.0223674
0.0223866
0.0224017
0.0224132
0.0224198
0.00068667
0.00648862
0.015471
0.0205835
0.0219194
0.0221815
0.0222252
0.0222388
0.0222472
0.0222558
0.022266
0.0222807
0.0223013
0.0223261
0.0223516
0.0223752
0.0223952
0.0224111
0.0224231
0.02243
0.000689624
0.00634955
0.0152565
0.0204903
0.0218947
0.0221813
0.0222298
0.0222445
0.022253
0.0222618
0.0222723
0.0222875
0.0223088
0.0223346
0.0223612
0.0223858
0.0224067
0.0224233
0.0224357
0.022443
0.000696014
0.00620447
0.0150323
0.0201348