/*--------------------------------*- C++ -*----------------------------------*\
  =========                 |
  \\      /  F ield         | OpenFOAM: The Open Source CFD Toolbox
   \\    /   O peration     | Website:  https://openfoam.org
    \\  /    A nd           | Version:  7
     \\/     M anipulation  |
\*---------------------------------------------------------------------------*/
FoamFile
{
    version     2.0;
    format      ascii;
    class       surfaceScalarField;
    location    "0.1325";
    object      phi;
}
// * * * * * * * * * * * * * * * * * * * * * * * * * * * * * * * * * * * * * //

dimensions      [1 0 -1 0 0 0 0];

internalField   nonuniform List<scalar> 
96484
(
-0.00143596
-0.00141421
-0.00139337
-0.00137345
-0.00135435
-0.00133602
-0.00131836
-0.00130133
-0.00128485
-0.0012689
-0.00125342
-0.0012384
-0.00122379
-0.00120955
-0.00119562
-0.00118196
-0.00116852
-0.00115525
-0.0011421
-0.00112905
-0.00111606
-0.00110309
-0.00109012
-0.00107712
-0.00106404
-0.00105087
-0.00103759
-0.00103258
-0.00102655
-0.00101923
-0.00101024
-0.000999037
-0.000984995
-0.000967866
-0.000947686
-0.000924488
-0.000899233
-0.000872729
-0.000847587
-0.000824176
-0.000800839
-0.000777623
-0.000753538
-0.000731163
-0.000714202
-0.000721297
-0.000771241
-0.000863309
-0.000997987
-0.00121566
-0.00164751
-0.00154508
-0.00142836
-0.00138104
-0.00130641
-0.00124785
-0.00116709
-0.00108331
-0.00099434
-0.000901581
-0.000788816
-0.000657824
-0.000572658
-0.000548862
-0.000463549
-0.000478937
-0.000516766
-0.000538101
-0.000569268
-0.000607685
-0.0006548
-0.000707472
-0.000767333
-0.000831989
-0.000901417
-0.000976396
-0.00105579
-0.00113009
-0.00120497
-0.00145101
-0.0019222
-0.00163042
-0.00151396
-0.00146335
-0.00145717
-0.00150283
-0.00159733
-0.00165963
-0.00170834
-0.00173316
-0.00174216
-0.0017459
-0.00174919
-0.00175103
-0.00175367
-0.00175621
-0.00175928
-0.00175965
-0.0017492
0.000140346
0.00015068
-0.0014886
0.00015643
-0.00146858
0.00016179
-0.0014494
0.00016671
-0.00143108
0.000171252
-0.00141345
0.00017542
-0.00139653
0.000179275
-0.00138017
0.000182858
-0.00136441
0.000186228
-0.0013492
0.000189434
-0.00133454
0.000192495
-0.0013204
0.000195453
-0.00130679
0.000198316
-0.00129362
0.00020112
-0.00128084
0.000203863
-0.00126835
0.000206579
-0.00125607
0.000209266
-0.00124389
0.000211962
-0.00123174
0.00021467
-0.00121955
0.000217421
-0.00120726
0.000220211
-0.00119485
0.000223052
-0.00118231
0.000225944
-0.00116958
0.000228894
-0.00115661
0.000231902
-0.00114331
0.0002348
-0.00112957
0.000337725
-0.00111526
0.000342618
-0.00110076
0.000346518
-0.00108391
0.000349686
-0.0010649
0.000351729
-0.00104354
0.000352743
-0.00102009
0.00035288
-0.00099495
0.000352054
-0.000969985
0.000349798
-0.000945759
0.000346683
-0.000923408
0.000342262
-0.000902024
0.000338294
-0.000881258
0.000334459
-0.000861583
0.00032648
-0.000842543
0.000317969
-0.000828201
0.000304429
-0.000822125
0.000290771
-0.000831896
0.000280288
-0.000867572
0.000276238
-0.000936313
0.00027031
-0.00102517
0.000258452
-0.00112305
0.000263973
-0.00122516
0.000309771
-0.00134289
0.000530787
-0.00150773
-0.00010243
-0.00167139
-0.000116722
-0.00159265
-4.73248e-05
-0.00154073
-7.46265e-05
-0.00149445
-5.8557e-05
-0.00144657
-8.07675e-05
-0.00139876
-8.37798e-05
-0.00134043
-8.89653e-05
-0.00127853
-9.27588e-05
-0.00122007
-0.000112765
-0.00116984
-0.000130992
-0.0011061
-8.51655e-05
-0.00102951
-2.37963e-05
-0.000983226
-8.53129e-05
-0.000972768
1.53878e-05
-0.000907368
3.78291e-05
-0.000949911
2.13352e-05
-0.000999899
3.11666e-05
-0.00103321
3.84168e-05
-0.00108244
4.71158e-05
-0.00112606
5.26715e-05
-0.00117203
5.98606e-05
-0.00121406
6.46564e-05
-0.00125562
6.94282e-05
-0.00129445
7.4979e-05
-0.00133137
7.93927e-05
-0.00136378
7.43003e-05
-0.00138897
7.48834e-05
-0.00141529
0.000246034
-0.00148139
0.000471195
-0.00161439
-0.000291781
-0.00164572
-0.000116461
-0.00164446
-5.06116e-05
-0.00160676
-6.17388e-06
-0.00159326
4.56522e-05
-0.0016148
9.4502e-05
-0.00165906
6.23002e-05
-0.00168681
4.87118e-05
-0.00171719
2.48203e-05
-0.00173319
8.9951e-06
-0.0017413
3.74353e-06
-0.00175091
3.28752e-06
-0.00175376
1.84056e-06
-0.00175477
2.64514e-06
-0.00175347
2.54123e-06
-0.00175159
3.06955e-06
-0.00174789
3.62101e-07
-0.0017417
-1.04449e-05
-0.00173171
-2.55788e-05
-0.00171751
0.00012001
0.000130663
-0.00157444
0.000137247
-0.00155743
0.000143467
-0.00154103
0.000149087
-0.0015253
0.000154325
-0.00151008
0.000159062
-0.00149539
0.00016352
-0.00148109
0.00016764
-0.00146724
0.000171576
-0.0014538
0.000175296
-0.00144084
0.00017888
-0.00142828
0.000182281
-0.00141608
0.00018554
-0.00140411
0.000188628
-0.00139234
0.000191581
-0.00138065
0.000194398
-0.00136899
0.00019712
-0.00135727
0.000199766
-0.00134544
0.000202388
-0.00133343
0.00020501
-0.00132119
0.000207664
-0.0013086
0.000210326
-0.00129562
0.000212973
-0.00128206
0.000215597
-0.00126801
0.000218159
-0.00125343
0.000220492
-0.00123847
0.000323219
-0.0012232
0.000325776
-0.00119781
0.000327504
-0.00117213
0.000328325
-0.00114646
0.000328281
-0.00112095
0.000327601
-0.00109532
0.000327915
-0.00106899
0.000327828
-0.00104399
0.000327447
-0.00102009
0.000325299
-0.00099762
0.000321496
-0.000978928
0.000318619
-0.0009658
0.000315419
-0.000961458
0.000312138
-0.000970931
0.000311893
-0.000999872
0.000314201
-0.00105198
0.000326446
-0.00112536
0.000349029
-0.00120692
0.000365097
-0.00127614
0.000368186
-0.00132722
0.000360567
-0.00137316
0.000381701
-0.00142558
0.000474605
-0.00149888
0.000694454
-0.00158818
-0.000181172
-0.00164612
-0.000168639
-0.00160774
-9.36098e-05
-0.00158171
-0.000122502
-0.00154542
-0.000106372
-0.00150618
-0.000139097
-0.0014682
-0.000145675
-0.00141915
-0.00014743
-0.00137025
-0.000142985
-0.0013268
-0.000176505
-0.00129606
-0.000207583
-0.00125536
-0.000131452
-0.00120966
-3.4254e-05
-0.00118415
-0.000150713
-0.00117354
5.79309e-05
-0.00114267
8.78171e-05
-0.00118982
5.46494e-05
-0.00122212
8.03886e-05
-0.00125928
8.20427e-05
-0.00130273
9.30803e-05
-0.00133985
9.47016e-05
-0.0013735
0.000101429
-0.00139805
0.000103478
-0.00141917
0.000106351
-0.00143391
0.000107389
-0.00144475
0.000104588
-0.00145043
0.000100612
-0.00145459
0.000140985
-0.00147534
0.000379032
-0.00154906
0.000502525
-0.00164234
-0.000293039
-0.00162536
-0.00015416
-0.00161758
-6.41046e-05
-0.00159582
1.53616e-05
-0.00159296
8.9917e-05
-0.00162485
0.000122244
-0.00165976
9.26803e-05
-0.00167737
6.47179e-05
-0.00169807
3.29291e-05
-0.00170883
1.86074e-05
-0.00171677
6.59387e-06
-0.00171886
4.29459e-06
-0.00172103
5.35733e-07
-0.0017207
7.72129e-07
-0.0017213
-1.1659e-06
-0.00172048
-3.11762e-06
-0.0017179
-9.62393e-06
-0.00171103
-2.46453e-05
-0.00169949
-4.19951e-05
-0.00168658
0.000102781
0.000113645
-0.00163002
0.00012085
-0.00161503
0.000127735
-0.00160015
0.000133872
-0.0015857
0.00013963
-0.00157145
0.000144768
-0.00155767
0.000149663
-0.00154421
0.000154205
-0.00153128
0.000158621
-0.00151869
0.000162732
-0.00150649
0.000166676
-0.00149455
0.000170316
-0.00148291
0.000173766
-0.0014715
0.000176936
-0.00146042
0.000179924
-0.00144964
0.000182677
-0.00143924
0.000185289
-0.00142919
0.00018776
-0.00141952
0.000190143
-0.00141008
0.000192421
-0.00140081
0.000194692
-0.00139155
0.000196758
-0.00138225
0.000198924
-0.00137288
0.000201022
-0.00136333
0.0002032
-0.00135361
0.000205225
-0.00134373
0.000297826
-0.00133379
0.000300091
-0.00130688
0.000301834
-0.00127965
0.000302819
-0.00125257
0.000302646
-0.00122621
0.00030128
-0.001202
0.000302912
-0.00118071
0.000303927
-0.00116328
0.000304979
-0.00115214
0.000306607
-0.0011509
0.000308368
-0.00116194
0.000314277
-0.00118879
0.000324893
-0.00123021
0.000341079
-0.00128158
0.000363999
-0.00134087
0.000387586
-0.00139327
0.000408007
-0.00143309
0.000418243
-0.00145798
0.000416179
-0.00147087
0.000414128
-0.00148124
0.000412986
-0.00149086
0.000455006
-0.00152206
0.000563899
-0.00156874
0.000752397
-0.0016158
-0.000219556
-0.00162482
-0.000194669
-0.00160274
-0.000129893
-0.00159227
-0.000161745
-0.00156018
-0.000144355
-0.00153661
-0.000188145
-0.00150196
-0.000194579
-0.00146681
-0.000190879
-0.00142427
-0.00017372
-0.00139573
-0.000217207
-0.00137657
-0.000253278
-0.00135407
-0.00015697
-0.00132685
-4.48639e-05
-0.0013104
-0.000181576
-0.00129319
0.000105074
-0.00128853
0.000120118
-0.00132665
9.18174e-05
-0.00134327
0.000123832
-0.00138003
0.000119163
-0.00141163
0.000126733
-0.00144369
0.000119247
-0.00146787
0.000122557
-0.00148493
0.000118218
-0.001497
0.000117189
-0.00150342
0.000113063
-0.00150621
0.000108749
-0.00150526
0.000121368
-0.00150822
0.000214696
-0.00153167
0.00047232
-0.00158588
0.000485538
-0.00161869
-0.00030082
-0.00159645
-0.000175913
-0.00160599
-6.69652e-05
-0.00161003
4.72492e-05
-0.00162814
0.000124829
-0.00164764
0.000139854
-0.00166219
0.000113383
-0.00167033
7.54787e-05
-0.00167868
4.08669e-05
-0.00168283
2.06906e-05
-0.00168803
8.76746e-06
-0.00169036
3.96908e-06
-0.00169144
1.13311e-06
-0.00169056
-4.98524e-08
-0.00168864
-3.74136e-06
-0.00168522
-9.99246e-06
-0.00168089
-2.11588e-05
-0.00167427
-3.75622e-05
-0.00166538
-5.40664e-05
-0.00165597
8.79405e-05
9.86573e-05
-0.00164897
0.000105967
-0.0016368
0.00011329
-0.00162516
0.000119622
-0.00161393
0.000125846
-0.00160334
0.00013131
-0.00159332
0.00013673
-0.00158396
0.000141615
-0.00157518
0.000146427
-0.00156692
0.000150783
-0.00155913
0.000155036
-0.00155176
0.000158913
-0.00154477
0.000162686
-0.0015381
0.000166155
-0.00153173
0.000169523
-0.0015256
0.000172632
-0.00151969
0.000175611
-0.00151398
0.000178328
-0.00150849
0.00018087
-0.00150318
0.000183161
-0.00149811
0.000185388
-0.00149329
0.000187389
-0.00148873
0.000189371
-0.00148462
0.000191304
-0.00148109
0.000193324
-0.00147849
0.00019528
-0.00147701
0.000270921
-0.0014771
0.000272856
-0.00145713
0.000274763
-0.00143993
0.000276454
-0.00142726
0.000278441
-0.00141964
0.000279988
-0.00141871
0.000285476
-0.00142598
0.000292793
-0.00144283
0.000303737
-0.00146844
0.000317647
-0.00150071
0.000335217
-0.00153663
0.000355696
-0.00157144
0.000376264
-0.00159956
0.000400368
-0.00162457
0.000416404
-0.00163496
0.000427405
-0.00163497
0.000432891
-0.00162544
0.000431134
-0.00160989
0.000426554
-0.00159424
0.000423741
-0.00158021
0.000444193
-0.00157972
0.000501685
-0.0015916
0.000610961
-0.00161157
0.00076141
-0.00162322
-0.000241629
-0.00160438
-0.000205147
-0.0015983
-0.000161974
-0.00159206
-0.000185319
-0.00157016
-0.000179009
-0.00155087
-0.000223296
-0.00152314
-0.000237112
-0.00149392
-0.000219424
-0.00145812
-0.000192875
-0.00143699
-0.000239715
-0.00142514
-0.000280494
-0.00141208
-0.000173419
-0.00139759
-6.20763e-05
-0.00138699
-0.00018624
-0.00137564
0.000143198
-0.00138284
0.000136741
-0.00140474
0.000128575
-0.00141731
0.000155436
-0.00144823
0.000151219
-0.00147239
0.00015091
-0.00149975
0.000136306
-0.0015167
0.000134635
-0.00152853
0.000124636
-0.00153403
0.000119974
-0.00153496
0.000112113
-0.00153189
0.000111711
-0.00152769
0.000144821
-0.00153173
0.000268906
-0.00155852
0.00050513
-0.00159905
0.000463296
-0.0016
-0.000291284
-0.00157209
-0.000171864
-0.00159133
-4.88576e-05
-0.00160423
6.6749e-05
-0.00162877
0.000139381
-0.00164397
0.000147989
-0.00164912
0.000121735
-0.00165108
7.96284e-05
-0.00165392
4.60635e-05
-0.00165496
2.30234e-05
-0.00165632
9.84797e-06
-0.00165614
3.08809e-06
-0.00165677
-7.83615e-07
-0.00165629
-3.47478e-06
-0.00165571
-8.0711e-06
-0.00165257
-1.66117e-05
-0.00164741
-3.00506e-05
-0.00164022
-4.69684e-05
-0.0016327
-6.27755e-05
-0.00162583
7.59544e-05
8.64889e-05
-0.00168818
9.43305e-05
-0.00167945
0.000102052
-0.00167124
0.000109034
-0.00166349
0.000115829
-0.00165646
0.000121954
-0.00165002
0.000127948
-0.00164423
0.000133357
-0.00163897
0.000138637
-0.00163432
0.00014341
-0.00163023
0.000148047
-0.0016268
0.000152246
-0.00162401
0.000156314
-0.00162196
0.00016002
-0.00162067
0.000163616
-0.00162023
0.000166923
-0.00162073
0.000170117
-0.00162242
0.000173023
-0.00162566
0.0001758
-0.00163075
0.000178338
-0.00163815
0.000180828
-0.00164831
0.000183275
-0.00166167
0.000185846
-0.00167856
0.000188709
-0.00169919
0.000191841
-0.0017236
0.000195371
-0.00175202
0.000250949
-0.00178444
0.000255651
-0.00179247
0.000262099
-0.00180325
0.000268828
-0.00181808
0.000277516
-0.00183489
0.000287253
-0.00185324
0.000302329
-0.00186994
0.000318407
-0.00188428
0.000336001
-0.00189435
0.000353575
-0.00189852
0.000370018
-0.00189549
0.000383822
-0.00188744
0.00040127
-0.00187459
0.000410761
-0.00185065
0.000416407
-0.00182029
0.000417883
-0.00178581
0.00041734
-0.00175006
0.000415478
-0.00171519
0.00041253
-0.00168133
0.000423252
-0.00165826
0.000456068
-0.00164521
0.000521654
-0.00164044
0.000622612
-0.00163654
0.000742573
-0.00162085
-0.000247709
-0.00158219
-0.000211385
-0.00158561
-0.000183881
-0.00158214
-0.000204608
-0.00156732
-0.000206732
-0.00155329
-0.000252518
-0.00153006
-0.000272912
-0.00150665
-0.000240558
-0.00147508
-0.00020472
-0.00146003
-0.00025278
-0.00145262
-0.000294978
-0.00144656
-0.000184018
-0.00143972
-7.34325e-05
-0.0014339
-0.000179041
-0.00142805
0.000165097
-0.00143894
0.00014932
-0.00144807
0.00015949
-0.00146041
0.000179598
-0.00148351
0.000178578
-0.00150361
0.000167858
-0.00152689
0.00014814
-0.00154001
0.000140129
-0.0015494
0.000125572
-0.00155187
0.000116906
-0.00155103
0.00010791
-0.00154648
0.000115753
-0.0015439
0.000171604
-0.00155111
0.000309437
-0.00157336
0.000506078
-0.0015937
0.000435387
-0.00157893
-0.000272043
-0.00155361
-0.000158963
-0.00157989
-2.43182e-05
-0.00160061
8.19499e-05
-0.00162121
0.000144531
-0.00162765
0.00014995
-0.00162796
0.000124576
-0.00162555
8.06679e-05
-0.00162376
4.74241e-05
-0.00162267
2.28461e-05
-0.00162293
1.0472e-05
-0.00162271
2.60513e-06
-0.00162303
-1.35694e-06
-0.00162178
-6.62109e-06
-0.00161994
-1.3223e-05
-0.00161682
-2.381e-05
-0.00161241
-3.75685e-05
-0.00160667
-5.38356e-05
-0.00160099
-6.87423e-05
-0.00159622
6.72234e-05
7.77609e-05
-0.00175928
8.61116e-05
-0.00175342
9.43044e-05
-0.00174807
0.000102008
-0.00174373
0.000109383
-0.00174054
0.000116171
-0.00173886
0.000122686
-0.00173888
0.000128708
-0.00174065
0.000134545
-0.00174419
0.000139977
-0.00174958
0.000145262
-0.00175704
0.0001502
-0.00176678
0.00015502
-0.00177917
0.000159576
-0.0017945
0.000164117
-0.00181313
0.000168617
-0.0018353
0.000173351
-0.00186116
0.000178114
-0.00189068
0.000183205
-0.00192387
0.000188496
-0.00196062
0.00019419
-0.0020008
0.000200161
-0.00204419
0.000206478
-0.0020905
0.000213116
-0.00213946
0.000220262
-0.00219068
0.00022779
-0.00224362
0.000258978
-0.00229745
0.000266431
-0.00230366
0.000276936
-0.00230593
0.000285634
-0.00230359
0.000295868
-0.00229518
0.000303948
-0.00228059
0.000316677
-0.00225938
0.000328474
-0.00223427
0.000340172
-0.00220443
0.000350547
-0.00217013
0.000361968
-0.00213127
0.000370971
-0.00208824
0.000377329
-0.00204128
0.000380402
-0.0019914
0.00038192
-0.00194064
0.000382133
-0.00189051
0.00038247
-0.00184068
0.00038162
-0.00179337
0.000389465
-0.00175389
0.000410198
-0.00172153
0.000451298
-0.00169608
0.000517751
-0.00167438
0.000606931
-0.00164971
0.000703903
-0.00161342
-0.000244289
-0.00156064
-0.000214853
-0.00156957
-0.000198693
-0.00156915
-0.000218645
-0.00156038
-0.000229954
-0.00154968
-0.000275932
-0.00153143
-0.000304479
-0.00151152
-0.000255611
-0.0014843
-0.000212126
-0.00147266
-0.00025884
-0.00146886
-0.000301822
-0.00146708
-0.000189836
-0.00146607
-7.92847e-05
-0.00146397
-0.000168153
-0.00146226
0.000174228
-0.00147395
0.000161661
-0.00147646
0.00018259
-0.00148752
0.000199696
-0.00150427
0.00020186
-0.00152202
0.000180975
-0.00154133
0.000157532
-0.00155177
0.0001426
-0.00155834
0.000124729
-0.00155816
0.000112363
-0.00155524
0.000105324
-0.00154955
0.00012297
-0.0015483
0.000193848
-0.00155727
0.000329783
-0.00157411
0.000491308
-0.00157946
0.000410067
-0.00155724
-0.000245771
-0.00153494
-0.000138235
-0.00156382
-3.72298e-06
-0.00158736
8.83894e-05
-0.00160332
0.000144841
-0.00160599
0.000147538
-0.00160288
0.000122786
-0.00159696
7.95846e-05
-0.00159284
4.76851e-05
-0.00159013
2.26256e-05
-0.0015892
1.0783e-05
-0.00158862
1.3619e-06
-0.00158819
-3.19884e-06
-0.00158732
-9.74047e-06
-0.00158559
-1.76361e-05
-0.00158229
-2.95504e-05
-0.00157835
-4.32414e-05
-0.00157391
-5.86146e-05
-0.00156996
-7.25527e-05
-0.00156694
6.11323e-05
7.1902e-05
-0.00192987
8.07625e-05
-0.00193274
8.99569e-05
-0.00193749
9.88184e-05
-0.00194442
0.00010771
-0.00195389
0.000116185
-0.00196602
0.000124455
-0.00198096
0.000132255
-0.00199875
0.000139937
-0.00201955
0.00014743
-0.00204327
0.000155008
-0.00206991
0.000162585
-0.00209936
0.00017035
-0.00213154
0.000178207
-0.00216626
0.000186286
-0.0022033
0.00019448
-0.00224234
0.000202868
-0.00228304
0.000211301
-0.00232501
0.000219958
-0.00236813
0.000228682
-0.00241191
0.000237576
-0.0024561
0.00024647
-0.00250025
0.000255437
-0.00254412
0.000264341
-0.00258734
0.000273203
-0.00262972
0.000281614
-0.00267107
0.000265192
-0.00271133
0.000268701
-0.00268344
0.000274591
-0.00265185
0.000277226
-0.00261619
0.000281275
-0.00257723
0.000282746
-0.00253319
0.000291568
-0.00248548
0.000298632
-0.00243408
0.000305874
-0.00238064
0.000311681
-0.00232453
0.000318937
-0.00226733
0.000324016
-0.00220701
0.000327447
-0.00214592
0.000329649
-0.00208472
0.000331791
-0.00202453
0.000332297
-0.00196501
0.000335164
-0.00190928
0.000342134
-0.00185753
0.000357107
-0.00181091
0.000384751
-0.00176946
0.000429597
-0.00173208
0.000493083
-0.0016953
0.000570633
-0.00165368
0.000651133
-0.0016021
-0.000235359
-0.00153889
-0.000215278
-0.00155049
-0.000207458
-0.0015531
-0.000229353
-0.0015495
-0.000248203
-0.0015421
-0.00029584
-0.00152825
-0.000331698
-0.00151165
-0.000267256
-0.00148815
-0.000215921
-0.00147944
-0.000260622
-0.00147855
-0.000302832
-0.00148021
-0.000191933
-0.0014833
-8.09986e-05
-0.00148395
-0.000156454
-0.0014838
0.000176736
-0.0014948
0.000172716
-0.00149428
0.000199341
-0.00150313
0.000217443
-0.00151516
0.000221175
-0.00153072
0.000191409
-0.00154624
0.000164109
-0.00155441
0.000142421
-0.00155839
0.000121807
-0.00155654
0.000106676
-0.00155284
0.000104065
-0.00154804
0.000131941
-0.00154893
0.00021069
-0.00155746
0.000335134
-0.00156618
0.000469087
-0.00156146
0.00038777
-0.00153733
-0.000216896
-0.00151787
-0.000114697
-0.0015475
1.22446e-05
-0.0015704
9.10608e-05
-0.00158094
0.000141728
-0.00158108
0.000141618
-0.00157525
0.000118668
-0.00156736
7.68686e-05
-0.00156141
4.67536e-05
-0.00155759
2.20482e-05
-0.00155572
1.0359e-05
-0.00155469
4.86654e-07
-0.001554
-4.93066e-06
-0.00155278
-1.30411e-05
-0.001551
-2.15777e-05
-0.00154827
-3.39849e-05
-0.00154509
-4.71872e-05
-0.00154191
-6.16375e-05
-0.00153943
-7.46025e-05
-0.0015379
6.2617e-05
7.47755e-05
-0.00220502
8.55031e-05
-0.00222019
9.68941e-05
-0.00223672
0.000108282
-0.00225485
0.000119843
-0.00227475
0.000131123
-0.0022965
0.000142254
-0.00232012
0.000153047
-0.00234558
0.000163661
-0.00237273
0.000174073
-0.00240137
0.000184457
-0.00243119
0.000194768
-0.00246189
0.000205061
-0.00249322
0.00021525
-0.00252496
0.000225323
-0.00255694
0.000235182
-0.00258904
0.000244843
-0.00262118
0.000254415
-0.00265327
0.000263739
-0.00268508
0.000272876
-0.0027165
0.000281727
-0.00274736
0.000290336
-0.00277757
0.000298656
-0.00280704
0.000306729
-0.00283569
0.000314549
-0.00286349
0.000321877
-0.00289041
0.0002373
-0.00291643
0.000237115
-0.00286756
0.000238925
-0.00281647
0.000238262
-0.00276286
0.000237239
-0.00270722
0.000235033
-0.00264899
0.000240174
-0.00258891
0.000245192
-0.00252769
0.000249766
-0.00246577
0.000254479
-0.00240277
0.000258619
-0.00233915
0.000262924
-0.00227475
0.000266243
-0.00220994
0.000269457
-0.00214511
0.000272279
-0.00208123
0.000276567
-0.00201909
0.000283406
-0.00195958
0.000295522
-0.00190321
0.00031565
-0.00185052
0.000347378
-0.00180108
0.000392815
-0.0017534
0.000451461
-0.00170419
0.00051905
-0.0016499
0.000587923
-0.00158736
-0.000223758
-0.00151651
-0.000212662
-0.00153001
-0.000211061
-0.00153575
-0.000236755
-0.00153636
-0.000262048
-0.0015323
-0.000312444
-0.00152246
-0.000355197
-0.00150887
-0.000275966
-0.00148882
-0.000216805
-0.00148251
-0.000258962
-0.00148434
-0.000299747
-0.00148883
-0.000191281
-0.00149535
-8.11504e-05
-0.00149801
-0.000145457
-0.00149855
0.000176219
-0.00150862
0.000181568
-0.00150603
0.000211368
-0.00151196
0.000233003
-0.00152044
0.000236698
-0.00153359
0.000199576
-0.00154581
0.000168092
-0.00155192
0.000140572
-0.0015536
0.000118102
-0.00155059
0.000101877
-0.00154641
0.000104958
-0.00154256
0.000140473
-0.00154448
0.000219412
-0.00155091
0.00033041
-0.00155319
0.000444953
-0.00154241
0.000368312
-0.00151797
-0.000187261
-0.00149977
-9.17967e-05
-0.00152833
2.27869e-05
-0.00154898
9.11944e-05
-0.0015566
0.000135896
-0.00155488
0.00013373
-0.00154676
0.00011272
-0.00153741
7.30502e-05
-0.00153
4.48809e-05
-0.00152532
2.10183e-05
-0.00152267
9.66496e-06
-0.00152125
-7.28636e-07
-0.00152015
-6.70554e-06
-0.0015189
-1.57751e-05
-0.00151708
-2.47624e-05
-0.00151485
-3.71621e-05
-0.00151249
-4.96683e-05
-0.0015105
-6.31632e-05
-0.00150928
-7.51672e-05
-0.00150905
7.63387e-05
8.99436e-05
-0.00246107
0.000102036
-0.00248162
0.000115028
-0.00250165
0.000128179
-0.00252141
0.000141593
-0.00254102
0.000154745
-0.00256069
0.000167715
-0.00258049
0.000180197
-0.00260054
0.0001923
-0.0026208
0.000203889
-0.00264131
0.00021516
-0.00266196
0.000226099
-0.00268264
0.000236801
-0.00270323
0.000247231
-0.0027237
0.000257418
-0.00274397
0.000267322
-0.00276405
0.000276939
-0.00278392
0.000286224
-0.00280357
0.000295157
-0.00282302
0.000303735
-0.00284227
0.00031194
-0.00286135
0.0003198
-0.00288029
0.000327314
-0.00289914
0.00033453
-0.00291793
0.000341465
-0.0029367
0.0003479
-0.00295547
0.000188427
-0.00297429
0.000186023
-0.00291957
0.000185321
-0.00286328
0.000182616
-0.00280592
0.000179015
-0.00274667
0.000174947
-0.00268633
0.000178958
-0.0026239
0.000183274
-0.00256132
0.000186761
-0.00249781
0.000190859
-0.00243421
0.000194219
-0.0023698
0.000198116
-0.00230537
0.000201419
-0.00224044
0.000205574
-0.00217588
0.00021014
-0.00211167
0.000217057
-0.00204875
0.000227037
-0.00198737
0.000242828
-0.00192815
0.000266217
-0.00187109
0.000299695
-0.00181556
0.000343609
-0.00175984
0.00039717
-0.00170175
0.000456505
-0.00163885
0.000517074
-0.0015692
-0.000210258
-0.0014933
-0.000206919
-0.00150835
-0.000210449
-0.00151721
-0.000240823
-0.00152149
-0.000271881
-0.00152087
-0.000326038
-0.00151474
-0.000375242
-0.00150416
-0.000282279
-0.0014873
-0.000214976
-0.00148328
-0.000254473
-0.00148763
-0.000293223
-0.00149467
-0.000188622
-0.00150403
-8.06127e-05
-0.00150823
-0.000135385
-0.00150904
0.000173626
-0.00151814
0.000187496
-0.00151336
0.000219846
-0.00151611
0.00024616
-0.00152176
0.000248912
-0.00153229
0.000205686
-0.00154162
0.00016978
-0.00154573
0.00013756
-0.00154553
0.000113924
-0.00154184
9.80231e-05
-0.00153777
0.000106879
-0.00153503
0.0001469
-0.00153702
0.000221691
-0.00153999
0.000319634
-0.00153711
0.00042051
-0.00152304
0.000350109
-0.00149861
-0.000158698
-0.00148075
-7.11439e-05
-0.00150726
3.04e-05
-0.00152518
8.94783e-05
-0.00153029
0.000127775
-0.00152701
0.000124379
-0.00151731
0.000105312
-0.00150697
6.83728e-05
-0.0014985
4.22271e-05
-0.00149317
1.9595e-05
-0.00148985
8.57181e-06
-0.00148808
-1.98162e-06
-0.00148668
-8.52236e-06
-0.00148537
-1.80102e-05
-0.00148373
-2.71184e-05
-0.00148207
-3.91582e-05
-0.00148052
-5.08856e-05
-0.00147959
-6.33974e-05
-0.00147946
-7.44627e-05
-0.00148034
9.68914e-05
0.000110493
-0.00261611
0.000122069
-0.00263522
0.000134789
-0.00265231
0.000147786
-0.00266758
0.000161268
-0.00268126
0.000174541
-0.0026937
0.000187764
-0.00270518
0.000200459
-0.00271602
0.000212809
-0.00272643
0.000224536
-0.00273663
0.000235845
-0.00274672
0.000246688
-0.00275679
0.000257265
-0.00276676
0.000267504
-0.00277669
0.000277502
-0.0027867
0.000287187
-0.00279701
0.000296593
-0.0028075
0.000305669
-0.00281841
0.000314412
-0.00282968
0.00032281
-0.00284139
0.000330882
-0.00285345
0.00033865
-0.00286617
0.000346102
-0.00287942
0.000353299
-0.00289337
0.000360236
-0.00290792
0.000366723
-0.00292316
0.000133703
-0.00293904
0.000129736
-0.00288609
0.000127961
-0.00283184
0.000123363
-0.00277694
0.000118683
-0.00272048
0.000112508
-0.00266311
0.000116387
-0.00260389
0.000119758
-0.00254445
0.000123166
-0.00248413
0.00012645
-0.00242352
0.000129781
-0.00236213
0.000133189
-0.00230051
0.000136858
-0.00223833
0.000141366
-0.00217615
0.000147221
-0.00211389
0.000155671
-0.0020522
0.000167821
-0.00199113
0.000185764
-0.00193118
0.000210688
-0.00187175
0.000243979
-0.00181237
0.00028552
-0.00175166
0.000334265
-0.00168835
0.000386854
-0.00162068
0.000441181
-0.00154753
-0.000195208
-0.00146932
-0.000198064
-0.0014858
-0.000206165
-0.00149767
-0.000241449
-0.00150531
-0.000278013
-0.00150823
-0.000336617
-0.00150561
-0.000392103
-0.00149808
-0.000286295
-0.00148424
-0.000210624
-0.00148248
-0.000247429
-0.00148926
-0.000283867
-0.00149871
-0.000184422
-0.00151059
-7.98068e-05
-0.0015161
-0.000126286
-0.00151708
0.00016885
-0.00152512
0.000190246
-0.0015181
0.000225497
-0.00151746
0.000256691
-0.00152058
0.000258236
-0.00152832
0.000209801
-0.00153508
0.000169579
-0.00153723
0.000133867
-0.00153544
0.000109857
-0.00153124
9.52877e-05
-0.0015273
0.00010886
-0.00152516
0.000149874
-0.00152633
0.000218808
-0.00152583
0.00030557
-0.00151903
0.000396078
-0.00150303
0.000332247
-0.00147833
-0.000132187
-0.00145998
-5.32205e-05
-0.00148407
3.55082e-05
-0.00149953
8.61936e-05
-0.00150289
0.000118081
-0.00149831
0.000114042
-0.00148747
9.68383e-05
-0.00147634
6.30376e-05
-0.00146707
3.89134e-05
-0.0014612
1.78189e-05
-0.00145735
7.17617e-06
-0.00145526
-3.28844e-06
-0.00145364
-1.01625e-05
-0.00145234
-1.96769e-05
-0.00145095
-2.86655e-05
-0.00144987
-4.00897e-05
-0.00144908
-5.10117e-05
-0.00144909
-6.25177e-05
-0.00144992
-7.26699e-05
-0.00145176
0.000117464
0.000129608
-0.00265776
0.000139161
-0.00267368
0.000150056
-0.00268684
0.000161471
-0.0026973
0.000173706
-0.00270535
0.000186016
-0.00271132
0.000198603
-0.00271566
0.000210869
-0.00271884
0.000223015
-0.0027213
0.000234627
-0.00272344
0.000245913
-0.00272554
0.000256655
-0.00272787
0.000267199
-0.0027305
0.00027751
-0.00273344
0.00028781
-0.00273684
0.000297686
-0.00274054
0.000307499
-0.00274475
0.000316934
-0.00274956
0.000326121
-0.00275509
0.000334874
-0.00276145
0.000343598
-0.0027687
0.000351904
-0.00277693
0.00036005
-0.00278623
0.000367849
-0.00279658
0.000375475
-0.00280797
0.000382602
-0.00282039
8.07605e-05
-0.00283379
7.54796e-05
-0.00278569
7.3068e-05
-0.00273661
6.69045e-05
-0.00268722
6.13079e-05
-0.00263671
5.32935e-05
-0.00258538
5.69451e-05
-0.00253278
5.94332e-05
-0.00247957
6.25567e-05
-0.00242552
6.50633e-05
-0.00237084
6.81638e-05
-0.00231535
7.10044e-05
-0.00225931
7.46831e-05
-0.00220253
7.91064e-05
-0.00214532
8.55245e-05
-0.0020875
9.46038e-05
-0.00202936
0.000107876
-0.00197078
0.000126334
-0.00191194
0.000151301
-0.00185239
0.000183274
-0.00179188
0.000222208
-0.00172948
0.000266592
-0.00166438
0.0003137
-0.00159555
0.000362972
-0.00152232
-0.000178728
-0.00144451
-0.000186194
-0.00146229
-0.000198522
-0.00147706
-0.000238535
-0.00148791
-0.000280632
-0.00149446
-0.000344141
-0.00149531
-0.000405949
-0.00149092
-0.000288052
-0.00147999
-0.000203841
-0.00148052
-0.000237983
-0.00148965
-0.00027199
-0.00150138
-0.000178906
-0.00151557
-7.88284e-05
-0.00152235
-0.000118244
-0.0015235
0.000161828
-0.00153026
0.000189603
-0.00152059
0.000228617
-0.00151671
0.000264434
-0.00151739
0.000264997
-0.00152228
0.000211948
-0.00152663
0.00016779
-0.00152683
0.000129668
-0.00152369
0.000105913
-0.00151912
9.31497e-05
-0.00151529
0.000110033
-0.00151328
0.00014937
-0.00151304
0.000212007
-0.00150915
0.000289575
-0.00149953
0.000371379
-0.00148218
0.000313895
-0.00145689
-0.000108099
-0.00143766
-3.77639e-05
-0.00145919
3.88759e-05
-0.00147239
8.16062e-05
-0.00147436
0.000107245
-0.00146876
0.000102911
-0.00145716
8.7572e-05
-0.00144546
5.71611e-05
-0.00143566
3.50688e-05
-0.00142935
1.57312e-05
-0.00142511
5.55254e-06
-0.00142277
-4.58846e-06
-0.00142101
-1.15504e-05
-0.00141982
-2.07598e-05
-0.00141874
-2.94494e-05
-0.00141822
-4.00845e-05
-0.00141815
-5.01831e-05
-0.00141897
-6.06722e-05
-0.00142063
-6.99378e-05
-0.0014233
0.000135555
0.000145526
-0.00261708
0.000152322
-0.00263023
0.000160522
-0.00264061
0.000169518
-0.00264812
0.000179672
-0.00265285
0.000190361
-0.002655
0.000201778
-0.00265496
0.000213335
-0.00265318
0.000225148
-0.00265022
0.000236736
-0.00264657
0.000248235
-0.00264274
0.000259284
-0.00263909
0.000270145
-0.00263594
0.00028091
-0.0026333
0.000291511
-0.00263103
0.000301893
-0.002629
0.00031231
-0.00262753
0.000322469
-0.0026266
0.00033248
-0.00262651
0.000342118
-0.00262744
0.000351829
-0.00262976
0.000361201
-0.00263331
0.000370403
-0.00263833
0.000379241
-0.00264469
0.000387891
-0.00265249
0.000396005
-0.00266162
3.26656e-05
-0.00267208
2.63987e-05
-0.00263078
2.36745e-05
-0.00258846
1.63933e-05
-0.0025465
9.98075e-06
-0.00250348
6.93597e-07
-0.00245993
3.73679e-06
-0.00241481
5.37963e-06
-0.0023697
7.87822e-06
-0.00232402
9.57675e-06
-0.00227773
1.21171e-05
-0.00223057
1.42318e-05
-0.00218267
1.74663e-05
-0.00213375
2.12872e-05
-0.00208383
2.73874e-05
-0.00203261
3.60206e-05
-0.00198011
4.90344e-05
-0.00192616
6.67917e-05
-0.0018711
9.07832e-05
-0.00181439
0.00012088
-0.0017555
0.000157105
-0.00169432
0.000197761
-0.00163061
0.000240467
-0.00156378
0.000285163
-0.0014936
-0.000160949
-0.00141889
-0.000171417
-0.00143778
-0.000187678
-0.00145528
-0.000231982
-0.00146926
-0.000279789
-0.00147955
-0.000348533
-0.00148393
-0.00041687
-0.00148278
-0.000287528
-0.00147476
-0.000194714
-0.00147757
-0.000226244
-0.00148894
-0.000257803
-0.00150285
-0.000172127
-0.00151922
-7.76779e-05
-0.00152731
-0.000111484
-0.00152881
0.000152159
-0.00153429
0.000185716
-0.00152169
0.000229298
-0.00151445
0.000269326
-0.00151259
0.000269352
-0.0015146
0.00021214
-0.00151661
0.000164657
-0.0015149
0.000125096
-0.00151058
0.000102086
-0.00150563
9.11313e-05
-0.00150171