/*--------------------------------*- C++ -*----------------------------------*\
  =========                 |
  \\      /  F ield         | OpenFOAM: The Open Source CFD Toolbox
   \\    /   O peration     | Website:  https://openfoam.org
    \\  /    A nd           | Version:  7
     \\/     M anipulation  |
\*---------------------------------------------------------------------------*/
FoamFile
{
    version     2.0;
    format      ascii;
    class       volScalarField;
    location    "0.1325";
    object      rho;
}
// * * * * * * * * * * * * * * * * * * * * * * * * * * * * * * * * * * * * * //

dimensions      [1 -3 0 0 0 0 0];

internalField   nonuniform List<scalar> 
48560
(
0.395757
0.395856
0.395924
0.395967
0.39599
0.395998
0.395993
0.395978
0.395956
0.395927
0.395893
0.395854
0.395811
0.395764
0.395713
0.395658
0.395598
0.395534
0.395465
0.39539
0.39531
0.395222
0.395126
0.395022
0.39491
0.394788
0.394651
0.394466
0.394196
0.3939
0.393563
0.393167
0.392692
0.392079
0.391247
0.390301
0.389196
0.388018
0.386811
0.385797
0.384653
0.383379
0.38187
0.37987
0.377306
0.374003
0.370665
0.369446
0.371648
0.377133
0.393967
0.456577
0.478819
0.50448
0.525055
0.544197
0.559967
0.576124
0.589021
0.602434
0.611734
0.621262
0.623464
0.624892
0.62469
0.622236
0.620683
0.619321
0.617187
0.615379
0.613316
0.610978
0.608007
0.604282
0.599225
0.59235
0.582753
0.567765
0.539768
0.501115
0.501342
0.512874
0.508141
0.506709
0.499976
0.496599
0.494405
0.496175
0.498695
0.505878
0.51455
0.523123
0.53122
0.538779
0.545492
0.551377
0.556286
0.560239
0.563025
0.564143
0.395708
0.395807
0.395864
0.395894
0.395896
0.39588
0.395847
0.395802
0.395745
0.395679
0.395607
0.395527
0.39544
0.395345
0.39524
0.395125
0.394999
0.394862
0.394714
0.394553
0.394379
0.394192
0.393987
0.393765
0.393521
0.393252
0.392949
0.392546
0.391885
0.391122
0.390265
0.389281
0.388208
0.387033
0.385871
0.38464
0.383416
0.382055
0.380619
0.378946
0.377031
0.374948
0.372655
0.370587
0.370043
0.372282
0.375486
0.379605
0.382737
0.391634
0.413435
0.45805
0.478984
0.506136
0.524845
0.545497
0.560703
0.577696
0.590566
0.604394
0.614127
0.623412
0.626019
0.628241
0.628054
0.625263
0.625263
0.62431
0.622797
0.621659
0.619786
0.617892
0.614942
0.611378
0.605987
0.598768
0.587535
0.569656
0.544783
0.526712
0.523833
0.520818
0.517751
0.514188
0.510576
0.510225
0.510311
0.511972
0.514683
0.519681
0.524893
0.531623
0.537882
0.544414
0.549895
0.554995
0.558783
0.561755
0.563568
0.564166
0.395057
0.395153
0.395183
0.395188
0.395146
0.395089
0.395
0.394904
0.394787
0.394665
0.39452
0.394363
0.394182
0.393984
0.393761
0.393517
0.393244
0.392941
0.392595
0.392231
0.391829
0.391399
0.390929
0.390427
0.389885
0.38931
0.388696
0.387976
0.386958
0.385995
0.384899
0.383816
0.382588
0.381309
0.379865
0.378286
0.376645
0.374872
0.373115
0.371301
0.370062
0.369865
0.371384
0.374116
0.378176
0.381161
0.384413
0.387188
0.392464
0.403491
0.426079
0.458979
0.482015
0.507833
0.526542
0.546613
0.562261
0.57877
0.592198
0.60573
0.616043
0.624706
0.627984
0.630094
0.629996
0.628037
0.629029
0.627671
0.62702
0.6257
0.624341
0.622245
0.619437
0.615446
0.609799
0.601645
0.589222
0.570009
0.546082
0.531062
0.527345
0.524078
0.519413
0.515322
0.511869
0.511863
0.511947
0.513724
0.516586
0.52147
0.52688
0.533149
0.539124
0.545187
0.550533
0.555491
0.559303
0.562118
0.563706
0.564183
0.393159
0.393238
0.393195
0.393138
0.392988
0.392838
0.392622
0.392413
0.392145
0.391871
0.391541
0.391198
0.390807
0.390402
0.389959
0.389507
0.389029
0.388549
0.38806
0.387554
0.387029
0.386486
0.385909
0.385306
0.384669
0.384005
0.383301
0.382531
0.381387
0.380173
0.378838
0.377457
0.375974
0.37451
0.372952
0.37149
0.370328
0.369672
0.370325
0.371271
0.373602
0.375971
0.378817
0.381517
0.383855
0.385466
0.387538
0.390683
0.397102
0.410346
0.432582
0.460845
0.483085
0.507355
0.526045
0.545843
0.561844
0.578386
0.592262
0.605877
0.616638
0.625232
0.629186
0.631232
0.63119
0.630009
0.631095
0.629378
0.629217
0.627295
0.626018
0.623167
0.620119
0.615231
0.608996
0.599607
0.586206
0.567545
0.548932
0.537346
0.531685
0.527092
0.522567
0.520002
0.518796
0.519138
0.519468
0.521178
0.523757
0.527766
0.532345
0.537769
0.543056
0.548406
0.553046
0.557172
0.560256
0.562494
0.563797
0.564189
0.389457
0.389468
0.389367
0.389227
0.389008
0.388774
0.388487
0.388196
0.387856
0.387504
0.387104
0.38669
0.386231
0.385756
0.38524
0.384708
0.384135
0.383542
0.382908
0.382248
0.381545
0.380806
0.380044
0.379267
0.378471
0.37766
0.376828
0.376001
0.374763
0.373566
0.372386
0.371409
0.370666
0.37053
0.370772
0.37157
0.372881
0.374563
0.376142
0.378303
0.380342
0.382202
0.383779
0.385044
0.386182
0.387599
0.38987
0.394082
0.402226
0.41639
0.437315
0.462659
0.484429
0.507163
0.526122
0.545229
0.561626
0.577874
0.592133
0.605605
0.616537
0.624882
0.629196
0.631205
0.631328
0.630764
0.631537
0.630087
0.629971
0.628002
0.626729
0.62367
0.620523
0.615263
0.608689
0.598573
0.584711
0.566803
0.551135
0.5412
0.534874
0.529329
0.525096
0.522858
0.522225
0.522501
0.52297
0.524588
0.527152
0.530917
0.535233
0.540101
0.54496
0.549827
0.554206
0.558011
0.5608
0.562705
0.563817
0.564156
0.38514
0.385104
0.38498
0.384767
0.384495
0.384169
0.383805
0.38341
0.382976
0.382508
0.381994
0.381446
0.380853
0.380232
0.37957
0.378886
0.378168
0.377433
0.376675
0.375921
0.375172
0.374461
0.373786
0.373163
0.372616
0.372204
0.371985
0.372294
0.372048
0.372489
0.372838
0.37371
0.374557
0.375568
0.376728
0.378097
0.37947
0.380784
0.381993
0.383185
0.384111
0.384939
0.385642
0.386445
0.387538
0.389171
0.392104
0.397398
0.406611
0.420934
0.440532
0.463836
0.484982
0.506463
0.525242
0.543955
0.560398
0.57661
0.590963
0.604456
0.615368
0.623675
0.628185
0.630327
0.630659
0.630384
0.630809
0.629736
0.629368
0.627479
0.625962
0.622783
0.619328
0.613726
0.60663
0.595982
0.582325
0.566492
0.553455
0.544178
0.537503
0.531954
0.528452
0.526858
0.526604
0.526734
0.527295
0.528785
0.53117
0.534509
0.538451
0.542844
0.5473
0.551636
0.555491
0.558774
0.561199
0.562838
0.563813
0.564116
0.38083
0.380678
0.380518
0.380187
0.379859
0.379431
0.379017
0.378536
0.378049
0.377508
0.376959
0.376382
0.375816
0.37526
0.37475
0.374308
0.373974
0.373765
0.37361
0.373592
0.373667
0.373889
0.374214
0.374677
0.375231
0.375873
0.376532
0.377426
0.377667
0.378757
0.37919
0.380289
0.38079
0.381784
0.382335
0.383201
0.383669
0.384353
0.384728
0.385275
0.3856
0.386136
0.386706
0.387576
0.388817
0.390965
0.394606
0.400757
0.410458
0.42452
0.442855
0.464694
0.485104
0.505616
0.524152
0.542433
0.5589
0.574975
0.589403
0.602788
0.613635
0.621841
0.626525
0.628858
0.629461
0.629343
0.62963
0.628885
0.628383
0.626696
0.625022
0.621887
0.618181
0.612395
0.604874
0.594011
0.580761
0.56663
0.555226
0.54637
0.539618
0.534313
0.531298
0.530061
0.529935
0.530023
0.53065
0.532039
0.534303
0.537354
0.540986
0.544987
0.549051
0.55299
0.556496
0.559394
0.561521
0.562943
0.563805
0.564079
0.378004
0.377906
0.377863
0.377645
0.377501
0.377255
0.377104
0.376916
0.376842
0.376768
0.376799
0.376849
0.376996
0.377171
0.377428
0.377703
0.378019
0.378334
0.378759
0.379192
0.3797
0.380209
0.380755
0.381286
0.381819
0.382321
0.382807
0.383461
0.383292
0.384048
0.384075
0.384638
0.384658
0.385098
0.385143
0.385491
0.385562
0.385871
0.386011
0.386342
0.386623
0.387135
0.387739
0.388792
0.390361
0.393024
0.397244
0.403918
0.413738
0.42731
0.444504
0.465214
0.484794
0.504449
0.522662
0.540567
0.556989
0.572951
0.587395
0.600678
0.611451
0.619612
0.624463
0.627017
0.627858
0.627865
0.628098
0.627558
0.626985
0.625428
0.623605
0.620445
0.616456
0.610449
0.602587
0.591833
0.579454
0.567005
0.556685
0.548216
0.54169
0.536869
0.53432
0.533377
0.533276
0.53337
0.533969
0.535257
0.537335
0.540111
0.543413
0.547035
0.550715
0.554238
0.557354
0.559913
0.561782
0.563027
0.563795
0.564045
0.378853
0.3793
0.379716
0.380049
0.380385
0.380672
0.380997
0.381305
0.381676
0.382048
0.382483
0.382902
0.383357
0.383777
0.384207
0.384587
0.384959
0.385278
0.385585
0.38583
0.386059
0.386226
0.386376
0.386471
0.386552
0.386589
0.386628
0.386743
0.386333
0.386582
0.386445
0.386598
0.386516
0.386666
0.386621
0.386766
0.386755
0.386941
0.387034
0.387341
0.387634
0.388221
0.388973
0.390272
0.392181
0.395274
0.399902
0.406837
0.416544
0.429518
0.445692
0.465403
0.484168
0.503073
0.520911
0.538468
0.554807
0.570644
0.585074
0.598231
0.60894
0.617084
0.622136
0.624941
0.626028
0.626158
0.626387
0.625994
0.625422
0.623972
0.622069
0.618892
0.614702
0.608551
0.600535
0.590094
0.578618
0.567432
0.557931
0.549898
0.543729
0.539356
0.537119
0.536334
0.536242
0.536355
0.536911
0.538122
0.540019
0.542565
0.545566
0.548859
0.552177
0.55534
0.558104
0.560359
0.562001
0.563097
0.563783
0.564012
0.383257
0.384268
0.385075
0.385874
0.386501
0.387107
0.387594
0.388068
0.388472
0.388877
0.389251
0.389611
0.389925
0.39019
0.390398
0.390538
0.390618
0.390625
0.390577
0.390462
0.390307
0.390098
0.389869
0.389607
0.389346
0.389071
0.388828
0.388664
0.388217
0.3882
0.387965
0.387977
0.387846
0.387916
0.38786
0.387966
0.38795
0.388098
0.388189
0.388491
0.38884
0.389513
0.390441
0.391969
0.394196
0.397607
0.402502
0.409511
0.418968
0.43131
0.446557
0.465304
0.483258
0.501461
0.518896
0.536124
0.552354
0.568066
0.582456
0.59549
0.606151
0.614315
0.619587
0.622663
0.62401
0.624276
0.624512
0.624223
0.623683
0.622308
0.620353
0.617138
0.612787
0.606544
0.598552
0.588631
0.57812
0.567953
0.559125
0.551583
0.545838
0.541885
0.539879
0.539182
0.539084
0.539196
0.539694
0.540808
0.542522
0.54484
0.547545
0.55052
0.553492
0.556314
0.558757
0.560745
0.562189
0.563156
0.563771
0.563982
0.388414
0.389711
0.390695
0.391701
0.392406
0.393098
0.393543
0.39398
0.394242
0.394522
0.394696
0.394904
0.395016
0.395112
0.395103
0.395047
0.394888
0.394675
0.394375
0.394027
0.39362
0.393179
0.392708
0.392229
0.391749
0.391285
0.39086
0.390545
0.390012
0.389802
0.389485
0.389374
0.389204
0.389196
0.389137
0.3892
0.389198
0.389309
0.389425
0.389729
0.390163
0.390931
0.392052
0.393797
0.396299
0.399943
0.405005
0.411962
0.421106
0.43281
0.447201
0.46498
0.482123
0.499637
0.516644
0.533549
0.549648
0.565235
0.579566
0.592481
0.603111
0.611327
0.616841
0.620217
0.621859
0.62229
0.622531
0.622329
0.621848
0.620542
0.618575
0.615341
0.610901
0.604664
0.596849
0.587529
0.577906
0.568588
0.560358
0.553316
0.547973
0.544342
0.542482
0.541826
0.541719
0.541822
0.542264
0.543275
0.544817
0.546912
0.549344
0.552017
0.554669
0.557175
0.559331
0.561081
0.562353
0.563209
0.563761
0.563954
0.392223
0.393682
0.394844
0.396008
0.396846
0.397634
0.398127
0.398574
0.398796
0.399012
0.399091
0.399214
0.399247
0.399286
0.399203
0.399083
0.398837
0.398535
0.398113
0.397634
0.397063
0.396446
0.395785
0.395102
0.394413
0.393735
0.3931
0.3926
0.391882
0.391457
0.391009
0.390749
0.39051
0.390417
0.390342
0.390365
0.390371
0.39046
0.390607
0.390941
0.391479
0.392372
0.393695
0.395654
0.3984
0.402228
0.407386
0.414232
0.423031
0.434114
0.447701
0.464484
0.480794
0.497604
0.514153
0.53073
0.546681
0.562145
0.576405
0.589209
0.599823
0.608116
0.61389
0.617593
0.619569
0.6202
0.620471
0.62034
0.619932
0.618695
0.616745
0.613515
0.609056
0.602917
0.595412
0.586749
0.577944
0.569348
0.561684
0.555126
0.550146
0.546758
0.54498
0.544326
0.544201
0.544283
0.544664
0.54556
0.546935
0.54881
0.550983
0.553367
0.555722
0.557938
0.559837
0.561376
0.562496
0.563255
0.563751
0.563929
0.39468
0.3963
0.397705
0.399091
0.400195
0.401207
0.401926
0.402533
0.402892
0.403177
0.4033
0.403419
0.40347
0.403536
0.403502
0.403406
0.403164
0.402824
0.402323
0.401714
0.400984
0.4002
0.399311
0.398388
0.397422
0.39647
0.395553
0.39481
0.393844
0.393192
0.392569
0.392153
0.391819
0.391631
0.391521
0.391508
0.391519
0.391588
0.391755
0.392119
0.392749
0.393766
0.395273
0.397428
0.400402
0.404408
0.409641
0.416356
0.424811
0.435299
0.448115
0.463871
0.479308
0.495375
0.511423
0.527653
0.543442
0.558785
0.572973
0.58568
0.596289
0.604673
0.610718
0.614775
0.617135
0.618017
0.618353
0.618286
0.617965
0.61681
0.614915
0.611731
0.607333
0.601387
0.594284
0.586275
0.578177
0.570243
0.563122
0.557015
0.552337
0.549113
0.54736
0.546674
0.54652
0.546576
0.546893
0.54767
0.548881
0.550541
0.55247
0.554582
0.556664
0.558615
0.560285
0.561637
0.562624
0.563297
0.563743
0.563907
0.396471
0.398257
0.399915
0.401566
0.403004
0.404343
0.40542
0.406339
0.40699
0.407486
0.407775
0.407977
0.408074
0.408174
0.408193
0.408136
0.40793
0.407583
0.407053
0.40637
0.405522
0.404525
0.403385
0.402153
0.400856
0.399552
0.398295
0.397261
0.39596
0.394995
0.394107
0.393453
0.392969
0.392648
0.3925
0.392443
0.392463
0.39251
0.392694
0.393081
0.393802
0.394955
0.396685
0.399104
0.402331
0.406481
0.411742
0.418357
0.426503
0.436429
0.448474
0.463181
0.477695
0.492954
0.508438
0.524286
0.539894
0.555123
0.569239
0.581864
0.592486
0.600972
0.607293
0.611724
0.614526
0.615737
0.616193
0.616184
0.615965
0.614912
0.613114
0.610026
0.605769
0.600097
0.593453
0.58608
0.578601
0.571285
0.564682
0.558982
0.55455
0.551422
0.549643
0.548889
0.548688
0.548715
0.548964
0.549619
0.550667
0.55212
0.553818
0.555676
0.557506
0.559217
0.560682
0.561868
0.562739
0.563336
0.563737
0.563887
0.397949
0.399872
0.401734
0.403622
0.405371
0.407054
0.40853
0.409849
0.410904
0.41175
0.412331
0.412727
0.412938
0.413068
0.413147
0.413177
0.413074
0.41281
0.412331
0.411625
0.41067
0.40948
0.408073
0.406497
0.404802
0.403058
0.401343
0.399867
0.398166
0.396822
0.395651
0.394728
0.394088
0.393597
0.393378
0.393266
0.393284
0.39331
0.39349
0.39388
0.394641
0.39587
0.397728
0.400326
0.403803
0.408244
0.41373
0.420286
0.428146
0.437564
0.448823
0.462474
0.476014
0.490382
0.505214
0.520622
0.536027
0.551156
0.565226
0.577789
0.588429
0.59701
0.603594
0.608398
0.611695
0.613341
0.614018
0.614046
0.613949
0.613033
0.611381
0.608449
0.604408
0.599074
0.592918
0.586148
0.579239
0.572486
0.566361
0.561022
0.556784
0.5537
0.551853
0.550988
0.55071
0.55071
0.550884
0.551416
0.552303
0.553556
0.555035
0.556657
0.558257
0.559751
0.561034
0.562074
0.562842
0.563371
0.563732
0.56387
0.399253
0.401266
0.403264
0.405319
0.407298
0.409261
0.41109
0.412811
0.414316
0.415617
0.416638
0.417408
0.417905
0.418202
0.418343
0.418436
0.418445
0.418306
0.417939
0.417301
0.416339
0.415045
0.413417
0.411501
0.409356
0.407075
0.40477
0.402705
0.40051
0.398669
0.39714
0.395881
0.395062
0.394369
0.394039
0.393852
0.393844
0.393893
0.394064
0.394482
0.395276
0.396585
0.398548
0.401292
0.404932
0.409555
0.415219
0.421944
0.429729
0.438691
0.449201
0.461785
0.474282
0.487641
0.501695
0.51657
0.531731
0.546767
0.560797
0.57332
0.584019
0.592714
0.599572
0.604758
0.608594
0.610782
0.611818
0.611916
0.611951
0.61121
0.609749
0.607041
0.603281
0.598335
0.592669
0.58643
0.580073
0.573846
0.568158
0.563139
0.559054
0.555971
0.554008
0.552994
0.552608
0.552564
0.552662
0.553071
0.553801
0.554863
0.556136
0.55754
0.558928
0.560226
0.561346
0.562256
0.562934
0.563405
0.56373
0.563856
0.400412
0.402473
0.404549
0.406698
0.408814
0.410956
0.413048
0.415096
0.416993
0.418754
0.420289
0.42158
0.422563
0.42325
0.423642
0.423821
0.423877
0.423881
0.423692
0.423236
0.422405
0.421147
0.41941
0.417208
0.414593
0.411683
0.408634
0.405794
0.403024
0.400527
0.39858
0.396856
0.395805
0.394913
0.394481
0.394224
0.39416
0.394239
0.394429
0.394839
0.395649
0.397009
0.399063
0.40194
0.405744
0.410544
0.416366
0.423205
0.431029
0.439826
0.449652
0.461205
0.472656
0.484922
0.498047
0.512245
0.527089
0.542064
0.556153
0.56868
0.579432
0.588204
0.595278
0.600789
0.605153
0.607966
0.609542
0.609833
0.610002
0.609475
0.608252
0.605836
0.60241
0.597886
0.592702
0.586947
0.581093
0.575345
0.570054
0.56532
0.561365
0.558254
0.556134
0.554937
0.554405
0.554288
0.554313
0.5546
0.555174
0.556051
0.557129
0.558329
0.559526
0.560646
0.561619
0.562414
0.563014
0.563434
0.563728
0.563845
0.401413
0.403489
0.405603
0.407788
0.409964
0.412194
0.414436
0.416677
0.418821
0.420895
0.422844
0.424631
0.426178
0.427438
0.42835
0.428915
0.429172
0.429229
0.429218
0.429028
0.428486
0.42747
0.425839
0.423526
0.420507
0.416895
0.412903
0.409026
0.405658
0.402216
0.399921
0.397582
0.396314
0.395199
0.394664
0.394363
0.394297
0.394355
0.39453
0.394927
0.395745
0.397135
0.399251
0.402231
0.406172
0.411143
0.417136
0.424118
0.431987
0.440652
0.450054
0.460665
0.470982
0.481973
0.493958
0.507301
0.521716
0.536609
0.550723
0.56328
0.574191
0.583117
0.590495
0.596383
0.601334
0.604844
0.607167
0.607879
0.608127
0.607842
0.606928
0.60485
0.601813
0.597725
0.592989
0.587708
0.582322
0.577011
0.57208
0.567598
0.563748
0.560585
0.558271
0.556847
0.556123
0.55589
0.555857
0.556022
0.556443
0.557138
0.558032
0.559039
0.560057
0.561016
0.561857
0.562549
0.563079
0.563456
0.563725
0.563834
0.402214
0.404288
0.406423
0.408622
0.410831
0.413095
0.415369
0.417656
0.419904
0.422138
0.424312
0.426434
0.428432
0.430273
0.431862
0.433137
0.434014
0.434488
0.434616
0.434564
0.434363
0.433742
0.432454
0.430254
0.426959
0.422584
0.417399
0.41213
0.408364
0.403551
0.400903
0.398027
0.396495
0.395149
0.394499
0.394147
0.394095
0.394176
0.394313
0.394738
0.395545
0.396971
0.399116
0.402177
0.406225
0.411351
0.417513
0.42467
0.43266
0.441304
0.450396
0.460252
0.469702
0.479565
0.490256
0.502451
0.516193
0.531028
0.545478
0.558155
0.569203
0.578169
0.585715
0.591749
0.597126
0.601217
0.604464
0.605912
0.606422
0.606341
0.605798
0.604093
0.601494
0.597835
0.593505
0.58864
0.583657
0.578725
0.574107
0.56985
0.566099
0.562889
0.560406
0.558723
0.557769
0.557384
0.557282
0.557344
0.557627
0.558151
0.558866
0.559692
0.560546
0.561358
0.562078
0.562675
0.563138
0.563474
0.563718
0.563823
0.402775
0.404844
0.406995
0.409194
0.41142
0.413678
0.415947
0.418231
0.420508
0.42279
0.425056
0.427311
0.429524
0.431685
0.433734
0.435617
0.437222
0.438445
0.439173
0.439405
0.439292
0.439028
0.438234
0.436501
0.433376
0.428479
0.421846
0.414463
0.410437
0.404306
0.401198
0.397866
0.396103
0.394583
0.393871
0.393509
0.393481
0.393614
0.393766
0.394231
0.395052
0.396504
0.398693
0.401813
0.405937
0.411163
0.417465
0.424768
0.432888
0.44155
0.450408
0.459453
0.467595
0.475883
0.4851
0.496013
0.508964
0.523655
0.538293
0.550998
0.562565
0.571702
0.579735
0.586177
0.592276
0.59714
0.601528
0.603951
0.605106
0.605065
0.60493
0.603645
0.601482
0.598213
0.594302
0.589845
0.585269
0.580683
0.576346
0.572292
0.568644
0.565402
0.562619
0.560591
0.559333
0.558748
0.558556
0.558536
0.558697
0.559072
0.559624
0.560294
0.561009
0.561696
0.562309
0.562815
0.563208
0.563497
0.563716
0.563815
0.402926
0.40497
0.407133
0.409311
0.411543
0.413782
0.416051
0.418318
0.420595
0.422862
0.425126
0.427375
0.429609
0.43182
0.433997
0.436127
0.438171
0.440072
0.441711
0.442929
0.443542
0.443502
0.44308
0.442039
0.439465
0.434283
0.425592
0.414674
0.41099
0.403887
0.40046
0.396835
0.394899
0.393288
0.392565
0.392222
0.392261
0.392472
0.392698
0.393203
0.394139
0.39558
0.397847
0.401002
0.405218
0.410516
0.416938
0.424376
0.432663
0.441483
0.450437
0.459463
0.467341
0.474722
0.482355
0.491345
0.5025
0.516474
0.532226
0.545438
0.55721
0.566429
0.574729
0.581054
0.587375
0.592403
0.597584
0.60127
0.603635
0.603919
0.604111
0.603285
0.601496
0.598611
0.595005
0.590882
0.586576
0.582259
0.578156
0.574254
0.57065
0.567318
0.564582
0.562296
0.560706
0.559852
0.559563
0.55949
0.559549
0.559797
0.560236
0.560798
0.561419
0.562018
0.562553
0.562984
0.563314
0.563556
0.563741
0.563828
0.402102
0.404118
0.406298
0.408447
0.41069
0.412901
0.415173
0.417412
0.419687
0.421929
0.42419
0.426418
0.428651
0.430854
0.433055
0.435227
0.437378
0.439469
0.441463
0.443292
0.444734
0.445477
0.445242
0.444366
0.442412
0.437814
0.428264
0.412135
0.409728
0.401767
0.39764
0.393922
0.391822
0.39034
0.389644
0.389447
0.389581
0.389971
0.390333
0.390888
0.391854
0.3934
0.395684
0.398975
0.403279
0.408729
0.415299
0.422911
0.431367
0.44033
0.449312
0.457914
0.464769
0.470423
0.47497
0.480423
0.489472
0.503662
0.52031
0.533536
0.54598
0.555892
0.564897
0.571938
0.579323
0.585718
0.59273
0.598516
0.602679
0.603931
0.604058
0.603738
0.602415
0.599932
0.596702
0.59283
0.588758
0.584607
0.580604
0.5768
0.573337
0.570173
0.567046
0.564104
0.561838
0.560497
0.560036
0.55993
0.559965
0.560161
0.560561
0.561076
0.561671
0.562244
0.56276
0.563164
0.563465
0.563676
0.563833
0.563905
0.398281
0.400258
0.402428
0.404524
0.406747
0.408901
0.41115
0.413333
0.415583
0.41777
0.419999
0.422166
0.42435
0.426459
0.428543
0.430526
0.432453
0.434301
0.436138
0.437935
0.439733
0.441445
0.442827
0.443257
0.442203
0.439687
0.430444
0.405885
0.404489
0.396757
0.392133
0.388524
0.38648
0.385112
0.384651
0.384635
0.38511
0.3857
0.386399
0.387175
0.388288
0.389952
0.392622
0.395975
0.400474
0.406024
0.412807
0.420548
0.429207
0.438358
0.447665
0.456888
0.464509
0.470603
0.475425
0.480765
0.488416
0.499973
0.515112
0.529356
0.542662
0.552164
0.561141
0.567922
0.574886
0.580786
0.58736
0.593533
0.599969
0.602544
0.602625
0.602405
0.601048
0.598717
0.595579
0.591908
0.58801
0.584109
0.580377
0.576761
0.573329
0.569886
0.566973
0.564193
0.561856
0.560175
0.559572
0.559473
0.559572
0.559799
0.560254
0.560808
0.561465
0.562097
0.56269
0.563166
0.563534
0.563779
0.56396
0.564048
0.384676
0.386497
0.388443
0.390321
0.392276
0.394147
0.396079
0.397913
0.399792
0.401567
0.403375
0.405073
0.406777
0.408348
0.409893
0.411317
0.412747
0.414096
0.415448
0.416737
0.418117
0.419572
0.421035
0.422051
0.421551
0.420024
0.41522
0.397432
0.394788
0.386313
0.381475
0.377097
0.375356
0.373345
0.373309
0.372803
0.37377
0.374077
0.375348
0.375964
0.377631
0.379092
0.381886
0.385144
0.389956
0.395893
0.403003
0.411119
0.419842
0.429077
0.438177
0.447142
0.455118
0.461578
0.465505
0.465907
0.466528
0.468267
0.487653
0.512881
0.526953
0.538106
0.547105
0.555325
0.562674
0.569997
0.578641
0.588081
0.598286
0.602076
0.601073
0.601562
0.600113
0.597092
0.593556
0.58985
0.585837
0.581976
0.578286
0.574628
0.571407
0.56836
0.565353
0.562355
0.559082
0.55641
0.555449
0.555547
0.555905
0.556472
0.557377
0.558185
0.559054
0.559958
0.560822
0.561633
0.562355
0.562993
0.563527
0.563985
0.245935
0.245959
0.245955
0.245958
0.245957
0.245957
0.245958
0.245958
0.245958
0.245959
0.245959
0.245959
0.245959
0.24596
0.24596
0.24596
0.24596
0.24596
0.24596
0.24596
0.245921
0.245956
0.245953
0.245956
0.245956
0.245957
0.245957
0.245958
0.245959
0.245959
0.24596
0.245961
0.245961
0.245961
0.245962
0.245962
0.245962
0.245962
0.245962
0.245962
0.245902
0.24595
0.245949
0.245953
0.245953
0.245954
0.245956
0.245958
0.24596
0.245961
0.245963
0.245964
0.245965
0.245966
0.245966
0.245967
0.245968
0.245968
0.245968
0.245968
0.245882
0.245944
0.245944
0.245949
0.24595
0.245952
0.245955
0.245957
0.24596
0.245963
0.245965
0.245966
0.245968
0.24597
0.245971
0.245972
0.245973
0.245973
0.245974
0.245974
0.245862
0.245936
0.245939
0.245945
0.245947
0.24595
0.245953
0.245957
0.245961
0.245964
0.245967
0.24597
0.245972
0.245975
0.245976
0.245978
0.245979
0.24598
0.245981
0.245981
0.245839
0.245927
0.245933
0.245939
0.245942
0.245947
0.245952
0.245957
0.245962
0.245967
0.245971
0.245975
0.245978
0.245981
0.245984
0.245986
0.245988
0.245989
0.24599
0.245991
0.245814
0.245915
0.245924
0.245932
0.245937
0.245943
0.24595
0.245957
0.245964
0.24597
0.245975
0.24598
0.245985
0.245989
0.245993
0.245996
0.245998
0.246
0.246001
0.246003
0.245786
0.245901
0.245914
0.245924
0.24593
0.245939
0.245947
0.245957
0.245965
0.245973
0.24598
0.245987
0.245993
0.245999
0.246004
0.246008
0.246011
0.246013
0.246015
0.246016
0.245756
0.245884
0.245901
0.245913
0.245922
0.245933
0.245945
0.245957
0.245967
0.245977
0.245987
0.245995
0.246003
0.24601
0.246016
0.246021
0.246026
0.246029
0.246031
0.246032
0.245722
0.245865
0.245886
0.245902
0.245914
0.245928
0.245942
0.245957
0.24597
0.245982
0.245994
0.246005
0.246014
0.246023
0.246031
0.246037
0.246042
0.246046
0.246049
0.24605
0.245687
0.245843
0.245869
0.245888
0.245904
0.245921
0.245939
0.245957
0.245973
0.245988
0.246002
0.246015
0.246027
0.246038
0.246047
0.246055
0.246061
0.246066
0.246069
0.246071
0.245648
0.245818
0.24585
0.245873
0.245892
0.245914
0.245936
0.245957
0.245976
0.245995
0.246012
0.246027
0.246042
0.246054
0.246065
0.246075
0.246082
0.246087
0.246091
0.246093
0.245606
0.245791
0.245828
0.245855
0.24588
0.245906
0.245933
0.245958
0.245981
0.246002
0.246022
0.246041
0.246058
0.246073
0.246086
0.246097
0.246105
0.246112
0.246115
0.246118
0.245561
0.245759
0.245803
0.245836
0.245866
0.245898
0.24593
0.245959
0.245986
0.246011
0.246035
0.246057
0.246076
0.246093
0.246108
0.246121
0.246131
0.246138
0.246143
0.246146
0.245512
0.245725
0.245774
0.245815
0.245852
0.24589
0.245927
0.245961
0.245992
0.246022
0.246049
0.246074
0.246097
0.246117
0.246134
0.246148
0.246159
0.246168
0.246173
0.246176
0.245457
0.245685
0.245743
0.245792
0.245836
0.245882
0.245925
0.245964
0.246
0.246034
0.246065
0.246094
0.24612
0.246142
0.246162
0.246178
0.246191
0.2462
0.246206
0.246209
0.245396
0.245641
0.245707
0.245766
0.245819
0.245873
0.245924
0.245968
0.246009
0.246048
0.246084
0.246116
0.246146
0.246171
0.246193
0.246211
0.246225
0.246236
0.246242
0.246246
0.245324
0.245591
0.245667
0.245739
0.245801
0.245865
0.245923
0.245973
0.246021
0.246065
0.246105
0.246142
0.246175
0.246203
0.246228
0.246248
0.246264
0.246276
0.246282
0.246287
0.245243
0.245535
0.245622
0.24571
0.245783
0.245858
0.245924
0.245981
0.246035
0.246085
0.24613
0.246171
0.246208
0.24624
0.246267
0.246289
0.246306
0.246319
0.246327
0.246332
0.245146
0.245472
0.24557
0.245679
0.245765
0.245853
0.245926
0.24599
0.246052
0.246108
0.246159
0.246205
0.246245
0.24628
0.24631
0.246334
0.246354
0.246368
0.246376
0.246381
0.245037
0.2454
0.245512
0.245648
0.245746
0.245849
0.245929
0.246003
0.246072
0.246135
0.246192
0.246243
0.246287
0.246326
0.246358
0.246385
0.246406
0.246421
0.24643
0.246435
0.244891
0.245321
0.245446
0.245616
0.245729
0.245848
0.245936
0.24602
0.246098
0.246168
0.24623
0.246286
0.246335
0.246377
0.246412
0.246441
0.246464
0.24648
0.24649
0.246496
0.244709
0.245235
0.24537
0.245588
0.245712
0.245848
0.245946
0.246042
0.246128
0.246206
0.246275
0.246336
0.246389
0.246435
0.246473
0.246504
0.246528
0.246546
0.246556
0.246562
0.244479
0.245147
0.245285
0.245564
0.245698
0.245852
0.245962
0.24607
0.246165
0.246251
0.246326
0.246393
0.24645
0.246499
0.24654
0.246573
0.246599
0.246618
0.246628
0.246635
0.244165
0.245065
0.245193
0.245548
0.245687
0.245861
0.245984
0.246106
0.24621
0.246304
0.246386
0.246457
0.246519
0.246571
0.246615
0.24665
0.246677
0.246697
0.246708
0.246714
0.243872
0.244994
0.2451
0.24554
0.24568
0.245878
0.246014
0.24615
0.246264
0.246366
0.246454
0.24653
0.246596
0.246652
0.246698
0.246735
0.246763
0.246784
0.246794
0.246802
0.243687
0.244934
0.245025
0.245539
0.245677
0.245905
0.246054
0.246204
0.246327
0.246437
0.246531
0.246613
0.246682
0.246741
0.246789
0.246828
0.246857
0.246879
0.246889
0.246897
0.243578
0.244888
0.244978
0.245542
0.245682
0.245945
0.246106
0.24627
0.246402
0.246519
0.246619
0.246704
0.246777
0.246838
0.246889
0.246929
0.246959
0.246981
0.246992
0.247
0.243522
0.244865
0.244956
0.245552
0.245702
0.245999
0.246173
0.24635
0.246489
0.246613
0.246717
0.246807
0.246882
0.246945
0.246997
0.247038
0.24707
0.247092
0.247103
0.247111
0.243494
0.244858
0.244947
0.24558
0.245745
0.24607
0.246255
0.246444
0.246589
0.246719
0.246827
0.24692
0.246997
0.247062
0.247115
0.247157
0.247189
0.247211
0.247222
0.24723
0.243483
0.244864
0.244961
0.245638
0.245816
0.246162
0.246354
0.246554
0.246705
0.246839
0.24695
0.247045
0.247123
0.247189
0.247243
0.247285
0.247316
0.247339
0.24735
0.247358
0.243526
0.244912
0.24502
0.245733
0.245918
0.246277
0.246473
0.246681
0.246835
0.246974
0.247086
0.247182
0.247261
0.247327
0.24738
0.247422
0.247453
0.247475
0.247486
0.247493
0.243665
0.24503
0.245142
0.245871
0.246056
0.24642
0.246615
0.246828
0.246982
0.247122
0.247235
0.247331
0.24741
0.247475
0.247527
0.247568
0.247599
0.24762
0.24763
0.247637
0.243899
0.245224
0.245332
0.246053
0.246231
0.246592
0.246781
0.246994
0.247146
0.247285
0.247397
0.247491
0.247569
0.247633
0.247684
0.247724
0.247753
0.247773
0.247782
0.247789
0.244213
0.245487
0.245584
0.246277
0.246444
0.246793
0.246971
0.247181
0.247327
0.247463
0.247571
0.247663
0.247738
0.2478
0.247849
0.247887
0.247915
0.247934
0.247942
0.247949
0.244582
0.245801
0.245886
0.24654
0.246692
0.247022
0.247186
0.247388
0.247526
0.247656
0.247759
0.247846
0.247918
0.247976
0.248023
0.248059
0.248085
0.248103
0.248109
0.248115
0.244994
0.246153
0.246228
0.246835
0.246971
0.247275
0.247425
0.247613
0.247741
0.247863
0.247958
0.24804
0.248106
0.248161
0.248204
0.248237
0.248261
0.248277
0.248282
0.248287
0.245431
0.246532
0.2466
0.247157
0.247277
0.247551
0.247684
0.247856
0.247971
0.248082
0.248169
0.248243
0.248304
0.248353
0.248392
0.248421
0.248443
0.248457
0.248461
0.248465
0.245892
0.246931
0.246995
0.247499
0.247603
0.247845
0.247961
0.248113
0.248214
0.248313
0.248389
0.248455
0.248508
0.248552
0.248586
0.248611
0.248629
0.248641
0.248644
0.248647
0.246366
0.247346
0.247406
0.247857
0.247946
0.248154
0.248252
0.248383
0.248468
0.248553
0.248618
0.248674
0.24872
0.248756
0.248784
0.248806
0.24882
0.24883
0.24883
0.248832
0.246857
0.247773
0.247829
0.248227
0.248301
0.248474
0.248554
0.248662
0.248731
0.248801
0.248854
0.248899
0.248936
0.248965
0.248987
0.249004
0.249015
0.249021
0.24902
0.249021
0.247358
0.248209
0.248262
0.248605
0.248664
0.248803
0.248864
0.248949
0.249001
0.249055
0.249094
0.249129
0.249156
0.249177
0.249193
0.249204
0.249211
0.249214
0.249211
0.249211
0.24787
0.248652
0.2487
0.248992
0.249033
0.249138
0.24918
0.24924
0.249275
0.249312
0.249338
0.249361
0.249378
0.249391
0.2494
0.249406
0.249408
0.249408
0.249403
0.249402
0.248388
0.2491
0.249141
0.249383
0.249403
0.249477
0.249499
0.249535
0.249552
0.249571
0.249584
0.249594
0.249601
0.249605
0.249607
0.249607
0.249606
0.249602
0.249595
0.249593
0.248913
0.249551
0.249584
0.249778
0.249774
0.249817
0.249818
0.249829
0.249829
0.249831
0.249829
0.249827
0.249823
0.249819
0.249814