/*--------------------------------*- C++ -*----------------------------------*\
  =========                 |
  \\      /  F ield         | OpenFOAM: The Open Source CFD Toolbox
   \\    /   O peration     | Website:  https://openfoam.org
    \\  /    A nd           | Version:  7
     \\/     M anipulation  |
\*---------------------------------------------------------------------------*/
FoamFile
{
    version     2.0;
    format      ascii;
    class       volVectorField;
    location    "0.1325";
    object      U;
}
// * * * * * * * * * * * * * * * * * * * * * * * * * * * * * * * * * * * * * //

dimensions      [0 1 -1 0 0 0 0];

internalField   nonuniform List<vector> 
48560
(
(221.946 -5.36773 -4.90856e-11)
(221.755 -6.19692 -5.89289e-11)
(221.585 -7.02832 -7.82008e-11)
(221.438 -7.84033 -1.00136e-10)
(221.305 -8.63324 -1.31229e-10)
(221.186 -9.40119 -1.6589e-10)
(221.074 -10.147 -2.09095e-10)
(220.968 -10.8664 -2.55695e-10)
(220.866 -11.5638 -3.09335e-10)
(220.766 -12.2366 -3.65504e-10)
(220.666 -12.8902 -4.26023e-10)
(220.565 -13.5232 -4.87235e-10)
(220.462 -14.1407 -5.49479e-10)
(220.355 -14.7411 -6.09807e-10)
(220.243 -15.3283 -6.66255e-10)
(220.124 -15.9005 -7.17059e-10)
(219.996 -16.4602 -7.58865e-10)
(219.857 -17.0061 -7.8985e-10)
(219.704 -17.5399 -8.06771e-10)
(219.535 -18.0608 -8.07781e-10)
(219.346 -18.5705 -7.89919e-10)
(219.134 -19.0683 -7.51141e-10)
(218.895 -19.5549 -6.89669e-10)
(218.621 -20.0296 -6.02841e-10)
(218.313 -20.4914 -4.92913e-10)
(217.959 -20.9395 -3.56782e-10)
(217.559 -21.3724 -1.98086e-10)
(217.04 -21.8648 1.69673e-11)
(216.287 -22.4137 3.11461e-10)
(215.394 -22.9119 5.96033e-10)
(214.307 -23.3846 8.82148e-10)
(212.964 -23.8068 1.1599e-09)
(211.282 -24.1917 1.37822e-09)
(209.082 -24.5152 1.53872e-09)
(206.058 -24.7616 1.44285e-09)
(202.492 -24.8963 1.19449e-09)
(198.254 -24.8757 5.65325e-10)
(193.604 -24.7461 -1.40089e-10)
(188.789 -24.4532 -1.37786e-09)
(184.856 -24.0505 -2.54061e-09)
(180.812 -23.2556 -4.16554e-09)
(176.735 -22.6199 -4.5504e-09)
(172.878 -21.4532 -5.91356e-09)
(169.149 -20.022 -6.40498e-09)
(165.805 -18.7132 -7.0275e-09)
(165.082 -16.0972 -9.50502e-09)
(171.77 -12.2478 -1.25233e-08)
(191.388 -6.88474 -1.71182e-08)
(221.309 -4.08058 -2.21824e-08)
(250.055 -7.78884 -2.61613e-08)
(271.685 -31.4681 -2.92611e-08)
(263.864 -74.1579 -3.08629e-08)
(229.269 -57.6503 -2.97273e-08)
(214.681 -60.7851 -2.98136e-08)
(195.662 -51.6235 -2.9208e-08)
(183.878 -51.0943 -2.92474e-08)
(165.481 -43.5363 -2.86447e-08)
(153.75 -41.3576 -2.86592e-08)
(133.696 -34.3428 -2.80018e-08)
(121.443 -31.2415 -2.80399e-08)
(99.3229 -24.1237 -2.73109e-08)
(85.6831 -20.417 -2.73065e-08)
(66.0755 -11.0082 -2.64238e-08)
(66.3463 -8.54309 -2.67583e-08)
(55.7815 -5.57968 -2.62865e-08)
(52.6454 1.12769 -2.60727e-08)
(56.5748 2.2247 -2.63167e-08)
(58.8229 4.44237 -2.65344e-08)
(60.5568 6.5087 -2.674e-08)
(63.5757 8.64363 -2.70242e-08)
(67.9237 11.4707 -2.74339e-08)
(73.4448 14.9745 -2.78827e-08)
(80.3088 19.2409 -2.83862e-08)
(88.7299 24.4694 -2.8927e-08)
(98.9291 30.8337 -2.951e-08)
(111.36 38.4929 -3.01201e-08)
(127.427 48.2365 -3.07958e-08)
(149.438 61.6848 -3.15072e-08)
(182.285 78.9863 -3.22205e-08)
(220.441 84.7196 -3.28691e-08)
(259.689 66.4919 -3.37728e-08)
(254.786 60.4472 -3.40204e-08)
(246.368 53.3835 -3.4386e-08)
(251.803 56.0633 -3.43951e-08)
(256.211 56.6906 -3.46396e-08)
(267.566 53.7093 -3.53853e-08)
(271.759 43.0845 -3.55553e-08)
(275.782 36.6796 -3.59233e-08)
(275.79 26.9355 -3.60911e-08)
(275.43 19.8337 -3.63762e-08)
(273.263 14.3847 -3.64768e-08)
(270.017 8.44321 -3.66542e-08)
(266.521 3.74695 -3.68031e-08)
(263.136 -0.00116395 -3.69433e-08)
(260.008 -3.04811 -3.70499e-08)
(257.305 -5.5127 -3.71551e-08)
(255.074 -7.47894 -3.72351e-08)
(253.411 -8.90356 -3.72985e-08)
(252.353 -9.71776 -3.73442e-08)
(252.112 -9.95823 -3.73679e-08)
(221.191 -5.0879 -5.8974e-10)
(221.009 -5.94573 -6.17994e-10)
(220.841 -6.80029 -6.46862e-10)
(220.706 -7.64509 -6.73425e-10)
(220.577 -8.46257 -6.9904e-10)
(220.466 -9.26018 -7.18603e-10)
(220.356 -10.0283 -7.35788e-10)
(220.25 -10.7748 -7.4305e-10)
(220.14 -11.4973 -7.45605e-10)
(220.027 -12.2043 -7.3455e-10)
(219.908 -12.8957 -7.18507e-10)
(219.782 -13.573 -6.87755e-10)
(219.646 -14.2349 -6.47536e-10)
(219.498 -14.8797 -5.90209e-10)
(219.335 -15.507 -5.19783e-10)
(219.154 -16.114 -4.31272e-10)
(218.953 -16.702 -3.28209e-10)
(218.728 -17.2692 -2.08772e-10)
(218.477 -17.8191 -7.68598e-11)
(218.197 -18.3515 6.60547e-11)
(217.882 -18.8697 2.22216e-10)
(217.529 -19.3711 3.85905e-10)
(217.127 -19.8552 5.59899e-10)
(216.671 -20.3192 7.35423e-10)
(216.146 -20.7628 9.17399e-10)
(215.538 -21.1841 1.09053e-09)
(214.826 -21.5814 1.25744e-09)
(213.849 -22.0214 1.41478e-09)
(212.234 -22.4904 1.51292e-09)
(210.279 -22.9014 1.40484e-09)
(208.019 -23.2593 1.20321e-09)
(205.369 -23.5389 6.8502e-10)
(202.471 -23.7666 1.11536e-10)
(199.346 -23.9087 -9.01308e-10)
(196.472 -23.9689 -1.9363e-09)
(193.656 -23.8485 -3.34151e-09)
(191.146 -23.7679 -3.79527e-09)
(188.657 -23.5227 -5.07353e-09)
(186.653 -23.2636 -5.89813e-09)
(184.846 -22.7268 -6.7702e-09)
(183.407 -22.2537 -7.20695e-09)
(183.042 -21.7387 -8.15479e-09)
(184.917 -20.8174 -1.09412e-08)
(190.626 -20.8877 -1.25642e-08)
(204.547 -21.4823 -1.69164e-08)
(229.834 -22.8104 -2.20605e-08)
(255.636 -23.867 -2.6348e-08)
(277.807 -24.7595 -2.96246e-08)
(288.944 -26.5143 -3.09989e-08)
(295.841 -34.6627 -3.23916e-08)
(287.449 -53.5422 -3.27527e-08)
(275.13 -72.0738 -3.32443e-08)
(246.997 -67.1274 -3.26832e-08)
(235.294 -67.3321 -3.25999e-08)
(216.33 -61.472 -3.22346e-08)
(206.916 -58.3939 -3.20979e-08)
(189.502 -52.6491 -3.17859e-08)
(179.974 -48.5889 -3.15809e-08)
(162.665 -42.4782 -3.12953e-08)
(152.775 -37.7518 -3.10348e-08)
(136.166 -31.2762 -3.0777e-08)
(125.728 -26.056 -3.03923e-08)
(113.384 -16.8047 -3.00692e-08)
(111.847 -12.2643 -2.98494e-08)
(107.958 -6.68256 -2.98546e-08)
(105.468 1.30449 -2.93704e-08)
(111.121 3.49159 -2.98193e-08)
(113.938 8.65579 -2.99004e-08)
(116.835 11.7532 -3.0148e-08)
(121.023 15.5199 -3.03234e-08)
(124.798 18.9556 -3.06272e-08)
(130.436 23.1842 -3.0874e-08)
(135.909 27.5026 -3.1228e-08)
(143.594 32.9526 -3.15396e-08)
(151.846 39.109 -3.19455e-08)
(163.024 46.951 -3.23255e-08)
(176.868 56.9037 -3.28047e-08)
(197.309 71.4789 -3.3275e-08)
(221.3 90.2732 -3.38519e-08)
(241.908 94.6581 -3.44564e-08)
(258.387 73.9817 -3.50274e-08)
(263.721 63.9366 -3.5505e-08)
(266.057 61.5186 -3.57035e-08)
(270.263 62.6656 -3.61596e-08)
(272.857 63.466 -3.59414e-08)
(275.839 59.6065 -3.69392e-08)
(277.533 51.0351 -3.65112e-08)
(279.534 43.4011 -3.72374e-08)
(278.851 33.3396 -3.68513e-08)
(278.004 24.7954 -3.75705e-08)
(274.971 16.7012 -3.71506e-08)
(272.278 10.845 -3.76937e-08)
(268.296 5.71674 -3.73655e-08)
(265.214 1.9854 -3.77586e-08)
(261.551 -1.19583 -3.74888e-08)
(258.961 -3.59794 -3.7762e-08)
(256.277 -5.6709 -3.75483e-08)
(254.712 -7.14224 -3.77084e-08)
(253.724 -7.74748 -3.75996e-08)
(253.359 -7.93816 -3.76219e-08)
(219.988 -4.79955 -1.82304e-10)
(219.793 -5.71125 -1.57208e-10)
(219.577 -6.62098 -1.04062e-10)
(219.424 -7.52532 -6.28451e-11)
(219.246 -8.39296 3.77341e-12)
(219.108 -9.24207 6.16793e-11)
(218.938 -10.0544 1.41721e-10)
(218.788 -10.8541 2.16437e-10)
(218.604 -11.6304 3.09265e-10)
(218.424 -12.396 3.98921e-10)
(218.208 -13.1355 5.04593e-10)
(217.982 -13.8554 6.10564e-10)
(217.718 -14.5413 7.26514e-10)
(217.43 -15.1989 8.41048e-10)
(217.094 -15.819 9.56742e-10)
(216.713 -16.4094 1.06472e-09)
(216.263 -16.9672 1.16002e-09)
(215.733 -17.502 1.23293e-09)
(215.087 -18.0149 1.26611e-09)
(214.397 -18.5117 1.2828e-09)
(213.612 -18.9919 1.25241e-09)
(212.77 -19.4574 1.18914e-09)
(211.834 -19.9046 1.06272e-09)
(210.83 -20.3305 9.20423e-10)
(209.73 -20.7366 6.76539e-10)
(208.56 -21.1166 4.14081e-10)
(207.317 -21.4732 2.75355e-11)
(205.833 -21.8559 -4.54908e-10)
(203.894 -22.2597 -1.32121e-09)
(202.309 -22.6013 -2.15632e-09)
(200.521 -22.8638 -3.27211e-09)
(199.025 -23.0901 -3.59832e-09)
(197.415 -23.2614 -4.62343e-09)
(196.137 -23.3987 -5.19785e-09)
(194.946 -23.4174 -5.95161e-09)
(193.889 -23.3378 -6.42702e-09)
(193.274 -23.1709 -7.12847e-09)
(193.117 -22.9855 -8.0761e-09)
(194.531 -22.8286 -1.00614e-08)
(197.554 -23.0408 -1.12222e-08)
(204.156 -23.6031 -1.37608e-08)
(215.884 -24.703 -1.69588e-08)
(233.745 -26.1255 -2.12573e-08)
(253.356 -27.6656 -2.4678e-08)
(273.412 -28.0495 -2.86293e-08)
(287.785 -27.1182 -3.03355e-08)
(299.472 -26.4191 -3.21793e-08)
(305.307 -27.086 -3.26743e-08)
(307.593 -31.1719 -3.32149e-08)
(303.598 -41.4128 -3.32807e-08)
(292.418 -57.7442 -3.32451e-08)
(276.518 -68.0654 -3.30843e-08)
(256.592 -61.9598 -3.29072e-08)
(244.507 -65.3499 -3.2653e-08)
(227.863 -57.5581 -3.24949e-08)
(217.675 -57.0995 -3.22065e-08)
(202.677 -49.8136 -3.20856e-08)
(192.626 -47.5255 -3.17743e-08)
(178.162 -40.712 -3.16913e-08)
(168.183 -37.2399 -3.13584e-08)
(155.111 -30.7833 -3.1309e-08)
(145.973 -26.3742 -3.09574e-08)
(137.71 -18.2056 -3.09168e-08)
(136.059 -13.8374 -3.06455e-08)
(135.387 -5.90471 -3.074e-08)
(132.908 0.995016 -3.04449e-08)
(138.64 4.57928 -3.07958e-08)
(139.529 10.9696 -3.07377e-08)
(143.233 14.6249 -3.10249e-08)
(145.455 19.6312 -3.10685e-08)
(149.132 23.9291 -3.13794e-08)
(152.45 28.994 -3.15079e-08)
(156.904 34.1491 -3.18503e-08)
(162.028 40.1001 -3.20622e-08)
(168.646 46.7089 -3.2453e-08)
(177.393 54.5428 -3.27592e-08)
(189.893 64.2626 -3.32294e-08)
(208.61 76.2671 -3.36598e-08)
(232.075 84.8543 -3.42139e-08)
(250.996 79.659 -3.46671e-08)
(260.317 67.7103 -3.50172e-08)
(265.186 63.5584 -3.52861e-08)
(267.593 61.0895 -3.55825e-08)
(272.03 59.6339 -3.61025e-08)
(274.946 55.1726 -3.59258e-08)
(277.792 48.5679 -3.6751e-08)
(278.733 41.1951 -3.62552e-08)
(280.056 33.9935 -3.69662e-08)
(278.899 26.4906 -3.65761e-08)
(277.593 20.1403 -3.70995e-08)
(274.456 14.266 -3.68292e-08)
(271.703 9.30766 -3.71946e-08)
(267.975 5.10045 -3.69797e-08)
(264.962 1.73823 -3.72367e-08)
(261.557 -1.00203 -3.70574e-08)
(258.988 -3.0732 -3.72311e-08)
(256.461 -4.57347 -3.70814e-08)
(254.881 -5.47512 -3.71843e-08)
(253.926 -5.77581 -3.71093e-08)
(253.57 -5.88515 -3.71215e-08)
(216.943 -4.51606 6.05724e-10)
(216.667 -5.45255 6.62348e-10)
(216.271 -6.37376 6.72545e-10)
(216.012 -7.29296 7.05675e-10)
(215.632 -8.16737 7.03721e-10)
(215.343 -9.02757 7.07406e-10)
(214.929 -9.84959 6.85239e-10)
(214.568 -10.6653 6.52546e-10)
(214.093 -11.4557 5.99555e-10)
(213.657 -12.2357 5.21248e-10)
(213.124 -12.9853 4.2369e-10)
(212.618 -13.7172 2.87785e-10)
(212.028 -14.4179 1.30105e-10)
(211.454 -15.0984 -7.59903e-11)
(210.811 -15.7499 -3.07794e-10)
(210.18 -16.3814 -5.93553e-10)
(209.505 -16.9859 -9.05371e-10)
(208.859 -17.5686 -1.26652e-09)
(208.223 -18.1218 -1.63984e-09)
(207.584 -18.6475 -2.07164e-09)
(206.951 -19.1412 -2.52587e-09)
(206.338 -19.6068 -3.03147e-09)
(205.713 -20.0195 -3.16378e-09)
(205.103 -20.4334 -3.64125e-09)
(204.493 -20.8072 -3.87674e-09)
(203.909 -21.1732 -4.33754e-09)
(203.343 -21.5008 -4.63899e-09)
(202.737 -21.8597 -5.14645e-09)
(202.044 -22.2178 -5.6536e-09)
(201.514 -22.5038 -6.11752e-09)
(200.992 -22.6711 -6.40268e-09)
(200.719 -22.7675 -6.94256e-09)
(200.621 -22.8607 -7.70023e-09)
(201.335 -23.065 -9.16505e-09)
(202.718 -23.2559 -9.89073e-09)
(205.361 -23.7414 -1.14586e-08)
(209.956 -24.507 -1.31908e-08)
(217.061 -25.7165 -1.55836e-08)
(229.129 -27.4875 -1.8741e-08)
(242.034 -29.3751 -2.15378e-08)
(258.046 -31.3144 -2.50933e-08)
(272.301 -32.6021 -2.75551e-08)
(285.72 -33.2321 -2.99946e-08)
(296.952 -33.4719 -3.14365e-08)
(305.755 -33.1011 -3.28272e-08)
(311.08 -32.9131 -3.30315e-08)
(314.259 -33.5224 -3.36194e-08)
(315.309 -35.9812 -3.34166e-08)
(312.889 -41.2706 -3.35963e-08)
(306.176 -50.7481 -3.32304e-08)
(294.206 -61.8915 -3.31129e-08)
(279.335 -67.2207 -3.2596e-08)
(262.275 -65.1722 -3.28094e-08)
(249.867 -65.1664 -3.22625e-08)
(235.469 -59.8277 -3.24086e-08)
(224.749 -57.4533 -3.19116e-08)
(211.732 -51.4211 -3.20309e-08)
(201.411 -47.8926 -3.15914e-08)
(189.023 -41.7755 -3.17061e-08)
(179.179 -37.4836 -3.12978e-08)
(168.459 -31.2252 -3.14015e-08)
(160.276 -25.9414 -3.10489e-08)
(154.009 -18.3002 -3.11584e-08)
(152.301 -12.9599 -3.08677e-08)
(152.213 -5.03761 -3.1019e-08)
(150.306 0.596222 -3.08234e-08)
(154.922 5.91014 -3.10595e-08)
(154.343 11.8018 -3.09794e-08)
(158.262 16.0943 -3.12367e-08)
(158.94 21.0267 -3.12452e-08)
(162.825 25.4655 -3.15282e-08)
(164.794 30.3338 -3.16206e-08)
(169.395 35.4427 -3.19356e-08)
(173.53 41.0822 -3.2115e-08)
(180.515 47.6158 -3.24785e-08)
(189.03 55.3923 -3.27566e-08)
(202.267 65.3123 -3.3193e-08)
(219.259 76.2532 -3.35769e-08)
(237.754 81.7574 -3.40763e-08)
(252.198 74.5074 -3.44183e-08)
(260.429 66.6995 -3.46206e-08)
(265.766 64.3272 -3.48216e-08)
(269.16 61.9005 -3.53319e-08)
(272.983 59.8102 -3.54095e-08)
(274.784 54.6561 -3.56408e-08)
(276.836 47.8173 -3.59787e-08)
(277.628 41.2826 -3.58954e-08)
(278.355 34.4167 -3.62105e-08)
(277.297 27.511 -3.6125e-08)
(275.953 21.1935 -3.63741e-08)
(273.187 15.3352 -3.62452e-08)
(270.511 10.5055 -3.64972e-08)
(267.077 6.3556 -3.63566e-08)
(264.133 3.06835 -3.65309e-08)
(260.949 0.376964 -3.64059e-08)
(258.489 -1.65743 -3.65237e-08)
(256.192 -3.03843 -3.64148e-08)
(254.762 -3.7422 -3.64799e-08)
(253.938 -3.9057 -3.64201e-08)
(253.624 -3.94778 -3.64349e-08)
(212.159 -3.91964 -2.46602e-09)
(211.787 -4.85682 -2.47452e-09)
(211.385 -5.76185 -2.76153e-09)
(211.092 -6.73357 -2.68546e-09)
(210.752 -7.63229 -2.94921e-09)
(210.488 -8.56929 -2.94912e-09)
(210.159 -9.44515 -3.20388e-09)
(209.887 -10.3467 -3.26861e-09)
(209.56 -11.1986 -3.52394e-09)
(209.293 -12.0654 -3.6439e-09)
(208.983 -12.8886 -3.90567e-09)
(208.733 -13.7158 -4.07127e-09)
(208.449 -14.5009 -4.33994e-09)
(208.221 -15.2777 -4.53961e-09)
(207.968 -16.0085 -4.81046e-09)
(207.765 -16.7154 -5.02876e-09)
(207.546 -17.366 -5.29037e-09)
(207.369 -17.9734 -5.50725e-09)
(207.176 -18.5128 -5.74279e-09)
(207.009 -18.9998 -5.93488e-09)
(206.822 -19.423 -6.11858e-09)
(206.639 -19.8027 -6.2492e-09)
(206.515 -20.1634 -6.73664e-09)
(206.486 -20.488 -7.04738e-09)
(206.553 -20.7975 -7.51227e-09)
(206.756 -21.0909 -7.94359e-09)
(207.101 -21.3865 -8.43445e-09)
(207.716 -21.7475 -9.04529e-09)
(208.714 -22.1502 -9.8118e-09)
(210.383 -22.6404 -1.07314e-08)
(212.691 -23.2255 -1.18376e-08)
(216.164 -24.0194 -1.32858e-08)
(220.886 -25.0411 -1.49536e-08)
(227.915 -26.4075 -1.70891e-08)
(236.381 -28.0219 -1.92046e-08)
(246.4 -29.9171 -2.18119e-08)
(257.47 -31.8511 -2.41563e-08)
(268.78 -33.6123 -2.66026e-08)
(278.804 -34.7607 -2.83531e-08)
(289.196 -35.8189 -3.02306e-08)
(298.056 -36.4026 -3.15771e-08)
(305.611 -36.7808 -3.25819e-08)
(311.615 -36.7858 -3.33129e-08)
(315.957 -36.6579 -3.35986e-08)
(318.798 -36.5517 -3.3852e-08)
(320.297 -37.0861 -3.36875e-08)
(320.671 -38.5035 -3.37706e-08)
(319.101 -41.5325 -3.3396e-08)
(314.899 -47.3941 -3.33884e-08)
(307.007 -55.6094 -3.28803e-08)
(295.352 -63.4394 -3.26908e-08)
(281.701 -66.2217 -3.20202e-08)
(266.447 -64.8273 -3.2386e-08)
(254.173 -64.14 -3.17442e-08)
(241.133 -59.1636 -3.20099e-08)
(230.155 -56.7096 -3.14583e-08)
(218.416 -50.6664 -3.16683e-08)
(207.931 -47.1978 -3.12192e-08)
(196.804 -40.9442 -3.14052e-08)
(187.068 -36.6866 -3.10089e-08)
(177.686 -30.2192 -3.11568e-08)
(170.217 -24.9366 -3.08579e-08)
(165.122 -17.4567 -3.10166e-08)
(163.387 -11.6318 -3.07587e-08)
(163.211 -4.12556 -3.09112e-08)
(162.016 1.01011 -3.07981e-08)
(165.117 7.60495 -3.09054e-08)
(164.316 12.9173 -3.08741e-08)
(167.5 18.063 -3.10369e-08)
(167.696 23.0784 -3.1068e-08)
(171.112 27.9678 -3.12774e-08)
(172.538 33.0226 -3.13821e-08)
(176.9 38.3655 -3.16476e-08)
(180.617 44.1487 -3.18363e-08)
(187.63 50.8064 -3.21657e-08)
(196.042 58.4527 -3.24475e-08)
(209.381 67.3725 -3.28575e-08)
(225.223 75.0111 -3.32319e-08)
(241.657 76.275 -3.3648e-08)
(252.951 70.3996 -3.38949e-08)
(260.631 65.5229 -3.40161e-08)
(266.073 62.6768 -3.40891e-08)
(269.843 59.9258 -3.4962e-08)
(273.194 55.7459 -3.47316e-08)
(274.783 49.9371 -3.51952e-08)
(276.234 43.6947 -3.53647e-08)
(276.769 37.6642 -3.53594e-08)
(276.97 31.1405 -3.54344e-08)
(275.795 25.2207 -3.54822e-08)
(274.215 19.5076 -3.55975e-08)
(271.655 14.5163 -3.55201e-08)
(269.066 10.0867 -3.56978e-08)
(265.979 6.44387 -3.56137e-08)
(263.178 3.43752 -3.57331e-08)
(260.286 1.14875 -3.56444e-08)
(257.947 -0.526151 -3.57142e-08)
(255.909 -1.57928 -3.56346e-08)
(254.633 -2.11049 -3.56746e-08)
(253.925 -2.22352 -3.56308e-08)
(253.652 -2.25172 -3.56472e-08)
(212.223 -3.32317 -5.77433e-09)
(211.794 -4.30989 -5.80984e-09)
(211.473 -5.33807 -5.80016e-09)
(211.197 -6.35653 -5.9706e-09)
(210.986 -7.37023 -6.05274e-09)
(210.803 -8.36669 -6.21331e-09)
(210.648 -9.33747 -6.36285e-09)
(210.519 -10.2986 -6.53403e-09)
(210.413 -11.2226 -6.73682e-09)
(210.36 -12.1291 -6.93211e-09)
(210.34 -12.986 -7.18005e-09)
(210.394 -13.8155 -7.40897e-09)
(210.493 -14.5884 -7.69911e-09)
(210.687 -15.3297 -7.97001e-09)
(210.942 -16.0177 -8.30444e-09)
(211.311 -16.6798 -8.62646e-09)
(211.764 -17.3018 -9.01296e-09)
(212.351 -17.9084 -9.39977e-09)
(213.046 -18.4855 -9.85614e-09)
(213.921 -19.0596 -1.03401e-08)
(214.97 -19.6271 -1.09144e-08)
(216.293 -20.2148 -1.15617e-08)
(217.895 -20.8258 -1.23178e-08)
(219.859 -21.4755 -1.30815e-08)
(222.27 -22.1797 -1.40085e-08)
(225.255 -22.9601 -1.49905e-08)
(228.958 -23.8493 -1.61779e-08)
(234.328 -25.0548 -1.77117e-08)
(239.477 -26.2802 -1.91876e-08)
(246.606 -27.8681 -2.10435e-08)
(253.442 -29.4137 -2.27537e-08)
(261.425 -31.1293 -2.46174e-08)
(269.006 -32.7207 -2.62605e-08)
(276.482 -34.1687 -2.77809e-08)
(283.813 -35.4975 -2.91608e-08)
(291.071 -36.6868 -3.04847e-08)
(297.837 -37.6766 -3.15338e-08)
(303.98 -38.4625 -3.24843e-08)
(309.353 -39.0638 -3.3101e-08)
(314.007 -39.4959 -3.36859e-08)
(317.653 -39.7205 -3.39037e-08)
(320.57 -39.7985 -3.41149e-08)
(322.603 -39.8207 -3.40655e-08)
(323.959 -39.9841 -3.40092e-08)
(324.645 -40.4553 -3.38402e-08)
(324.613 -41.5095 -3.36307e-08)
(323.564 -43.4856 -3.34405e-08)
(320.759 -47.1879 -3.31109e-08)
(315.552 -52.7773 -3.28995e-08)
(307.171 -59.4736 -3.24075e-08)
(296.055 -64.9363 -3.21003e-08)
(283.196 -66.6852 -3.14145e-08)
(269.205 -65.33 -3.17978e-08)
(257.357 -63.9534 -3.11674e-08)
(245.12 -59.4788 -3.14457e-08)
(234.335 -56.3246 -3.09192e-08)
(223.217 -50.6289 -3.11421e-08)
(212.947 -46.5936 -3.07387e-08)
(202.441 -40.4926 -3.09368e-08)
(193.063 -35.7298 -3.05804e-08)
(184.39 -29.1379 -3.07305e-08)
(177.555 -23.4467 -3.04887e-08)
(173.002 -16.144 -3.06629e-08)
(171.225 -10.0297 -3.04477e-08)
(170.781 -3.05354 -3.05916e-08)
(170.086 1.94695 -3.05325e-08)
(171.929 8.8614 -3.05495e-08)
(171.411 13.8274 -3.05679e-08)
(173.663 19.3879 -3.06471e-08)
(174.019 24.2364 -3.07114e-08)
(176.894 29.286 -3.08547e-08)
(178.493 34.2403 -3.09866e-08)
(182.68 39.573 -3.1207e-08)
(186.689 45.2741 -3.14136e-08)
(193.906 51.8487 -3.17108e-08)
(202.677 59.286 -3.20033e-08)
(215.656 67.3321 -3.23783e-08)
(229.617 72.9248 -3.27386e-08)
(243.463 72.4297 -3.30942e-08)
(253.075 67.8683 -3.32891e-08)
(260.509 64.4321 -3.33821e-08)
(265.842 61.2143 -3.33785e-08)
(269.456 58.3607 -3.41492e-08)
(271.889 53.3212 -3.41732e-08)
(273.242 47.8194 -3.44056e-08)
(274.316 41.8416 -3.46542e-08)
(274.81 36.1822 -3.44958e-08)
(274.786 30.12 -3.4634e-08)
(273.787 24.6458 -3.46568e-08)
(272.263 19.2628 -3.47743e-08)
(270.006 14.7102 -3.47297e-08)
(267.549 10.5605 -3.48389e-08)
(264.763 7.1985 -3.4799e-08)
(262.126 4.35519 -3.48752e-08)
(259.548 2.23241 -3.48158e-08)
(257.42 0.699567 -3.48537e-08)
(255.657 -0.170956 -3.47962e-08)
(254.53 -0.600817 -3.4818e-08)
(253.913 -0.688082 -3.47877e-08)
(253.672 -0.711091 -3.47954e-08)
(218.381 -2.39077 -1.01363e-08)
(217.831 -3.40166 -1.01181e-08)
(217.746 -4.42396 -1.03056e-08)
(217.564 -5.5072 -1.0403e-08)
(217.728 -6.5665 -1.06317e-08)
(217.84 -7.64775 -1.08243e-08)
(218.2 -8.69265 -1.11101e-08)
(218.563 -9.73716 -1.13865e-08)
(219.152 -10.7427 -1.17397e-08)
(219.825 -11.7527 -1.21e-08)
(220.73 -12.7416 -1.25353e-08)
(221.793 -13.7444 -1.29927e-08)
(223.118 -14.7412 -1.35335e-08)
(224.686 -15.7624 -1.41162e-08)
(226.588 -16.7941 -1.47996e-08)
(228.857 -17.8656 -1.55544e-08)
(231.602 -18.9733 -1.64402e-08)
(234.844 -20.1431 -1.74188e-08)
(238.336 -21.3343 -1.84543e-08)
(242.282 -22.5857 -1.95629e-08)
(246.501 -23.8594 -2.07225e-08)
(251.106 -25.1715 -2.19252e-08)
(255.929 -26.4832 -2.31482e-08)
(261.018 -27.7996 -2.43739e-08)
(266.203 -29.0904 -2.55919e-08)
(271.436 -30.3495 -2.67523e-08)
(276.501 -31.5361 -2.78471e-08)
(281.878 -32.7975 -2.89296e-08)
(286.004 -33.8531 -2.9733e-08)
(291.788 -35.1753 -3.08056e-08)
(295.879 -36.1751 -3.14892e-08)
(301.106 -37.3516 -3.23506e-08)
(304.796 -38.2308 -3.2851e-08)
(309.212 -39.2078 -3.34662e-08)
(312.469 -39.9356 -3.38031e-08)
(316.089 -40.6617 -3.41946e-08)
(318.65 -41.146 -3.43351e-08)
(321.347 -41.6144 -3.45135e-08)
(323.156 -41.9227 -3.44773e-08)
(324.988 -42.2214 -3.44881e-08)
(326.061 -42.3777 -3.43065e-08)
(327.088 -42.5993 -3.42082e-08)
(327.597 -42.8711 -3.39342e-08)
(327.886 -43.3559 -3.37688e-08)
(327.665 -44.1657 -3.34625e-08)
(326.854 -45.5836 -3.32431e-08)
(324.907 -48.0604 -3.29241e-08)
(321.356 -51.8979 -3.26255e-08)
(315.524 -56.9775 -3.22741e-08)
(307.162 -62.2505 -3.18334e-08)
(296.622 -66.1267 -3.1405e-08)
(284.467 -67.1612 -3.07797e-08)
(271.436 -65.6541 -3.11086e-08)
(260.081 -63.7118 -3.05426e-08)
(248.427 -59.3753 -3.07826e-08)
(237.904 -55.8015 -3.03183e-08)
(227.219 -50.1569 -3.05185e-08)
(217.162 -45.7939 -3.01787e-08)
(207.084 -39.6351 -3.03691e-08)
(197.995 -34.5527 -3.00599e-08)
(189.819 -27.767 -3.01984e-08)
(183.4 -21.8492 -3.00088e-08)
(179.157 -14.5953 -3.01829e-08)
(177.254 -8.41463 -3.00082e-08)
(176.595 -1.71458 -3.0139e-08)
(176.13 3.37493 -3.01147e-08)
(177.208 10.2514 -3.00778e-08)
(176.89 15.167 -3.0122e-08)
(178.458 20.9976 -3.01453e-08)
(179.007 25.8186 -3.02259e-08)
(181.385 31.0636 -3.03196e-08)
(183.2 36.0228 -3.04676e-08)
(187.104 41.4281 -3.06513e-08)
(191.374 47.1252 -3.08719e-08)
(198.513 53.5573 -3.1142e-08)
(207.438 60.4399 -3.1445e-08)
(219.773 66.9486 -3.17905e-08)
(232.43 70.337 -3.21305e-08)
(244.363 69.095 -3.24169e-08)
(252.935 65.7134 -3.257e-08)
(260.126 62.6199 -3.26327e-08)
(265.226 58.8998 -3.27834e-08)
(268.567 55.6924 -3.32982e-08)
(270.583 50.1871 -3.35556e-08)
(271.736 45.2235 -3.36115e-08)
(272.61 39.4472 -3.38282e-08)
(273.04 34.272 -3.36921e-08)
(272.883 28.5952 -3.38532e-08)
(271.969 23.6549 -3.37936e-08)
(270.49 18.6672 -3.39429e-08)
(268.447 14.5368 -3.38817e-08)
(266.144 10.6729 -3.39806e-08)
(263.632 7.64464 -3.39506e-08)
(261.204 5.06235 -3.40059e-08)
(258.896 3.23522 -3.3962e-08)
(256.976 1.89501 -3.39825e-08)
(255.442 1.17732 -3.39408e-08)
(254.444 0.809592 -3.3948e-08)
(253.901 0.740269 -3.3928e-08)
(253.686 0.720366 -3.39303e-08)
(237.352 -1.01993 -1.73496e-08)
(237.224 -2.14018 -1.74713e-08)
(237.797 -3.3267 -1.77974e-08)
(238.322 -4.63357 -1.80583e-08)
(239.457 -5.97152 -1.84989e-08)
(240.622 -7.38481 -1.89064e-08)
(242.319 -8.80166 -1.94696e-08)
(244.103 -10.2527 -2.00233e-08)
(246.354 -11.7012 -2.07086e-08)
(248.733 -13.1878 -2.13961e-08)
(251.533 -14.696 -2.21899e-08)
(254.493 -16.2534 -2.29884e-08)
(257.813 -17.8371 -2.3866e-08)
(261.277 -19.4564 -2.47391e-08)
(265.001 -21.0813 -2.56564e-08)
(268.786 -22.7058 -2.65442e-08)
(272.653 -24.2949 -2.74279e-08)
(276.452 -25.8438 -2.82527e-08)
(280.439 -27.363 -2.9106e-08)
(284.347 -28.8285 -2.98977e-08)
(288.321 -30.2406 -3.06856e-08)
(292.179 -31.5864 -3.14053e-08)
(295.999 -32.8641 -3.20961e-08)
(299.658 -34.0701 -3.27127e-08)
(303.195 -35.2031 -3.32843e-08)
(306.533 -36.2652 -3.37777e-08)
(309.694 -37.2548 -3.42195e-08)
(313.014 -38.3084 -3.46328e-08)
(314.433 -38.9682 -3.47125e-08)
(317.504 -39.9327 -3.50392e-08)
(319.001 -40.6042 -3.50518e-08)
(321.398 -41.3657 -3.52372e-08)
(322.619 -41.9437 -3.5152e-08)
(324.493 -42.5524 -3.52259e-08)
(325.485 -43.0419 -3.50639e-08)
(326.907 -43.5119 -3.50468e-08)
(327.644 -43.9 -3.48161e-08)
(328.643 -44.2414 -3.47274e-08)
(329.141 -44.5506 -3.44411e-08)
(329.777 -44.8104 -3.43042e-08)
(330.044 -45.1154 -3.39741e-08)
(330.355 -45.4444 -3.38032e-08)
(330.278 -45.9161 -3.34575e-08)
(330.102 -46.6002 -3.32581e-08)
(329.317 -47.7132 -3.29035e-08)
(327.964 -49.5087 -3.26714e-08)
(325.395 -52.2422 -3.22966e-08)
(321.345 -56.0127 -3.20005e-08)
(315.232 -60.4103 -3.15763e-08)
(307.109 -64.5993 -3.11665e-08)
(297.089 -67.4306 -3.06637e-08)
(285.514 -68.0528 -3.01122e-08)
(273.314 -66.1856 -3.03683e-08)
(262.447 -63.8998 -2.98743e-08)
(251.303 -59.4769 -3.00627e-08)
(241.082 -55.5223 -2.96666e-08)
(230.744 -49.8383 -2.98352e-08)
(220.924 -45.0869 -2.95613e-08)
(211.178 -38.8391 -2.97388e-08)
(202.373 -33.333 -2.94731e-08)
(194.561 -26.3599 -2.95978e-08)
(188.421 -20.1497 -2.94512e-08)
(184.309 -12.9555 -2.96234e-08)
(182.246 -6.74022 -2.948e-08)
(181.403 -0.235383 -2.96004e-08)
(181.002 4.92907 -2.95991e-08)
(181.619 11.6002 -2.95313e-08)
(181.381 16.5628 -2.9586e-08)
(182.5 22.4551 -2.95752e-08)
(183.138 27.2373 -2.96588e-08)
(185.175 32.5479 -2.97198e-08)
(187.154 37.4159 -2.98749e-08)
(190.904 42.7938 -3.00346e-08)
(195.461 48.3362 -3.02651e-08)
(202.598 54.5004 -3.05169e-08)
(211.553 60.7102 -3.08238e-08)
(222.993 65.9067 -3.11412e-08)
(234.305 67.8768 -3.14547e-08)
(244.774 66.5144 -3.1693e-08)
(252.777 63.8007 -3.1836e-08)
(259.642 60.7032 -3.18947e-08)
(264.421 56.7395 -3.20632e-08)
(267.37 53.3143 -3.2619e-08)
(269.122 47.8473 -3.25886e-08)
(270.099 43.252 -3.30097e-08)
(270.898 37.7109 -3.27487e-08)
(271.244 32.9231 -3.30365e-08)
(271.061 27.5763 -3.29461e-08)
(270.208 23.0285 -3.30133e-08)
(268.832 18.3666 -3.30859e-08)
(266.97 14.5701 -3.30538e-08)
(264.86 10.9693 -3.31262e-08)
(262.582 8.21681 -3.31069e-08)
(260.377 5.83523 -3.31465e-08)
(258.314 4.22167 -3.3114e-08)
(256.6 3.04657 -3.31148e-08)
(255.255 2.44727 -3.30916e-08)
(254.37 2.1252 -3.30847e-08)
(253.886 2.06955 -3.30748e-08)
(253.693 2.05183 -3.30712e-08)
(268.096 -0.223209 -2.6255e-08)
(268.888 -1.59344 -2.65917e-08)
(270.058 -3.10189 -2.69991e-08)
(271.414 -4.76356 -2.74139e-08)
(273.122 -6.49627 -2.78953e-08)
(274.977 -8.31348 -2.83771e-08)
(277.134 -10.1494 -2.89181e-08)
(279.382 -12.0134 -2.94493e-08)
(281.862 -13.8602 -3.00254e-08)
(284.371 -15.7027 -3.05795e-08)
(287.046 -17.521 -3.11615e-08)
(289.712 -19.3381 -3.17094e-08)
(292.494 -21.1364 -3.22691e-08)
(295.232 -22.9272 -3.27844e-08)
(298.034 -24.692 -3.32969e-08)
(300.759 -26.4352 -3.37569e-08)
(303.499 -28.1383 -3.42027e-08)
(306.141 -29.7993 -3.45937e-08)
(308.762 -31.3965 -3.49644e-08)
(311.245 -32.925 -3.52739e-08)
(313.671 -34.3717 -3.55577e-08)
(315.931 -35.7327 -3.57783e-08)
(318.104 -37.0019 -3.59711e-08)
(320.096 -38.1782 -3.61015e-08)
(321.98 -39.2605 -3.62034e-08)
(323.682 -40.2504 -3.62486e-08)
(325.259 -41.15 -3.62662e-08)
(326.798 -42.0694 -3.62265e-08)
(327.012 -42.5527 -3.60566e-08)
(328.316 -43.2839 -3.59887e-08)
(328.768 -43.8568 -3.57438e-08)
(329.647 -44.3266 -3.56491e-08)
(329.97 -44.819 -3.53589e-08)
(330.647 -45.195 -3.52364e-08)
(330.882 -45.6447 -3.49181e-08)
(331.433 -45.9861 -3.47708e-08)
(331.59 -46.398 -3.44331e-08)
(332.009 -46.6974 -3.42673e-08)
(332.079 -47.0671 -3.39134e-08)
(332.343 -47.3544 -3.37291e-08)
(332.26 -47.7475 -3.33719e-08)
(332.278 -48.1705 -3.31699e-08)
(331.875 -48.8186 -3.28111e-08)
(331.355 -49.7334 -3.25904e-08)
(330.16 -51.137 -3.22259e-08)
(328.386 -53.1812 -3.19734e-08)
(325.364 -56.031 -3.15827e-08)
(321.019 -59.5409 -3.1275e-08)
(314.863 -63.3277 -3.08308e-08)
(307.046 -66.7144 -3.0431e-08)
(297.526 -68.854 -2.99062e-08)
(286.489 -69.1642 -2.94104e-08)
(275.047 -66.8608 -2.96048e-08)
(264.64 -64.2935 -2.9168e-08)
(253.98 -59.6653 -2.93113e-08)
(244.061 -55.3763 -2.89714e-08)
(234.041 -49.5432 -2.91127e-08)
(224.451 -44.4373 -2.88959e-08)
(214.999 -38.0171 -2.90639e-08)
(206.454 -32.1189 -2.88347e-08)
(198.935 -24.9273 -2.89478e-08)
(192.979 -18.444 -2.88345e-08)
(188.898 -11.2325 -2.90032e-08)
(186.642 -4.95885 -2.88874e-08)
(185.606 1.45407 -2.8999e-08)
(185.163 6.63189 -2.90149e-08)
(185.494 13.1276 -2.89284e-08)
(185.25 18.1802 -2.8987e-08)
(186.057 24.0662 -2.89548e-08)
(186.696 28.8656 -2.90358e-08)
(188.504 34.2122 -2.9076e-08)
(190.567 39.0195 -2.92347e-08)
(194.232 44.3623 -2.93798e-08)
(198.961 49.7069 -2.96169e-08)
(206.02 55.4745 -2.98575e-08)
(214.783 60.7953 -3.01657e-08)
(225.356 64.6674 -3.04577e-08)
(235.624 65.6198 -3.07516e-08)
(245.023 64.3446 -3.0965e-08)
(252.602 61.838 -3.1104e-08)
(259.063 58.5645 -3.11619e-08)
(263.509 54.3918 -3.13238e-08)
(266.148 50.8362 -3.18399e-08)
(267.724 45.5752 -3.16815e-08)
(268.565 41.2759 -3.23888e-08)
(269.303 36.0339 -3.17823e-08)
(269.564 31.5861 -3.23318e-08)
(269.388 26.5825 -3.19657e-08)
(268.574 22.392 -3.2331e-08)
(267.319 18.0625 -3.2146e-08)
(265.606 14.5821 -3.23163e-08)
(263.692 11.263 -3.22466e-08)
(261.622 8.76869 -3.23144e-08)
(259.639 6.61221 -3.22778e-08)
(257.794 5.19043 -3.23002e-08)
(256.275 4.15091 -3.22598e-08)
(255.088 3.64013 -3.22631e-08)
(254.301 3.35388 -3.22476e-08)
(253.869 3.30822 -3.22409e-08)
(253.696 3.29225 -3.22378e-08)
(296.218 0.0228954 -3.3124e-08)
(297.111 -1.45634 -3.34423e-08)
(297.952 -3.11023 -3.37225e-08)
(299.163 -4.9386 -3.40467e-08)
(300.37 -6.86516 -3.43409e-08)
(301.849 -8.89011 -3.46605e-08)
(303.334 -10.9469 -3.49557e-08)
(304.986 -13.0326 -3.52586e-08)
(306.623 -15.099 -3.55386e-08)
(308.329 -17.1504 -3.58111e-08)
(309.993 -19.1592 -3.60598e-08)
(311.663 -21.1453 -3.6289e-08)
(313.298 -23.0985 -3.64934e-08)
(314.911 -25.0273 -3.66704e-08)
(316.495 -26.9164 -3.68215e-08)
(318.035 -28.7662 -3.69392e-08)
(319.545 -30.5597 -3.70328e-08)
(320.993 -32.295 -3.7089e-08)
(322.403 -33.9558 -3.71209e-08)
(323.735 -35.5407 -3.71158e-08)
(325.021 -37.0367 -3.70879e-08)
(326.216 -38.4439 -3.70241e-08)
(327.36 -39.7524 -3.69393e-08)
(328.405 -40.9661 -3.68211e-08)
(329.396 -42.0784 -3.66859e-08)
(330.286 -43.0964 -3.65182e-08)
(331.114 -44.0164 -3.63378e-08)
(331.871 -44.9472 -3.61032e-08)
(331.882 -45.3687 -3.59013e-08)
(332.533 -46.0987 -3.56668e-08)
(332.642 -46.574 -3.53746e-08)
(333.072 -47.0423 -3.51641e-08)
(333.113 -47.4281 -3.48478e-08)
(333.434 -47.7893 -3.46324e-08)