/*--------------------------------*- C++ -*----------------------------------*\
  =========                 |
  \\      /  F ield         | OpenFOAM: The Open Source CFD Toolbox
   \\    /   O peration     | Website:  https://openfoam.org
    \\  /    A nd           | Version:  7
     \\/     M anipulation  |
\*---------------------------------------------------------------------------*/
FoamFile
{
    version     2.0;
    format      ascii;
    class       volScalarField;
    location    "0.1175";
    object      alphat;
}
// * * * * * * * * * * * * * * * * * * * * * * * * * * * * * * * * * * * * * //

dimensions      [1 -1 -1 0 0 0 0];

internalField   nonuniform List<scalar> 
48560
(
0.00510938
0.00505728
0.00500398
0.00495167
0.00490095
0.0048523
0.0048062
0.00476304
0.00472319
0.00468698
0.0046547
0.00462662
0.004603
0.00458408
0.00457009
0.00456124
0.00455777
0.0045599
0.00456787
0.00458193
0.00460233
0.00462936
0.00466333
0.00470456
0.00475345
0.0048104
0.00487578
0.00494969
0.00505956
0.00518422
0.00532272
0.00547361
0.00563421
0.00580103
0.00596935
0.00614118
0.00631573
0.00649732
0.00668971
0.00690642
0.00715044
0.00742032
0.00771508
0.00801525
0.008282
0.00837768
0.00797315
0.00694023
0.00546871
0.00391595
0.00126479
0.000499804
0.00055034
0.000574582
0.000615286
0.000635963
0.0006815
0.000708559
0.000775468
0.000834872
0.000960503
0.00103639
0.00108339
0.00098656
0.00108372
0.000849223
0.000856304
0.000890368
0.000947918
0.00101945
0.00110953
0.00120322
0.00130716
0.00140071
0.00148573
0.00153805
0.00154224
0.0014608
0.00128432
0.0010751
0.000947197
0.000984856
0.00104475
0.00104343
0.00101932
0.000973676
0.000931099
0.000894688
0.000871947
0.000857054
0.000854231
0.000853006
0.000852293
0.000848708
0.000843068
0.000831385
0.000813982
0.000787494
0.000751129
0.00070283
0.0048459
0.00483093
0.00481652
0.00480369
0.00479296
0.00478476
0.00477949
0.00477748
0.00477907
0.00478451
0.00479408
0.00480799
0.0048265
0.0048498
0.00487811
0.00491165
0.00495063
0.00499521
0.00504554
0.00510168
0.0051638
0.00523193
0.0053062
0.00538661
0.00547316
0.00556567
0.00566389
0.00576682
0.00591613
0.00607273
0.00623819
0.00641072
0.00659296
0.00678588
0.00699811
0.00723611
0.00750607
0.00781061
0.00815241
0.00852683
0.00893083
0.00933453
0.00965635
0.00973689
0.00945511
0.00871791
0.00757386
0.00623736
0.00511146
0.00460693
0.00507329
0.0090473
0.00945957
0.0099122
0.0103094
0.01061
0.0102357
0.0103999
0.00971428
0.00989572
0.00897494
0.00868235
0.00777503
0.00820605
0.00716816
0.00711941
0.0069365
0.0069679
0.00676147
0.00672303
0.00669263
0.00676882
0.00685391
0.00699399
0.00712507
0.00718042
0.00700453
0.00648415
0.0067329
0.00642509
0.00704643
0.00995715
0.00904563
0.00847817
0.00819161
0.00817035
0.00856039
0.00958178
0.0107124
0.0121421
0.0136122
0.0151028
0.0167037
0.0185533
0.0205782
0.0229583
0.0258311
0.0300276
0.0369559
0.0528135
0.00520558
0.00522049
0.005238
0.00525822
0.00528153
0.00530823
0.00533859
0.00537274
0.00541086
0.00545299
0.00549923
0.00554959
0.00560421
0.00566309
0.00572632
0.00579385
0.0058657
0.0059417
0.00602178
0.00610642
0.00619541
0.00628904
0.00638738
0.00649072
0.00659925
0.0067134
0.00683359
0.00695969
0.00715463
0.00737083
0.00760874
0.00787351
0.00816575
0.00849004
0.00884815
0.00924137
0.00967014
0.0101217
0.01057
0.0109346
0.0111542
0.0111
0.010737
0.0100238
0.00903426
0.00787473
0.00689144
0.00625216
0.00621197
0.00693547
0.00896763
0.014204
0.0146892
0.0152066
0.0148706
0.0159231
0.0148242
0.0161095
0.0141408
0.0149853
0.0131527
0.0126933
0.0114298
0.0115838
0.0104462
0.010715
0.0108317
0.0114201
0.011223
0.0118133
0.0117094
0.0116265
0.0116034
0.0116001
0.0116406
0.0116795
0.0117036
0.0115213
0.0113873
0.0102252
0.0145453
0.02302
0.0211959
0.020149
0.0198092
0.0165166
0.0190669
0.0195393
0.0258855
0.0318224
0.0386259
0.0429634
0.0475672
0.0529654
0.0592815
0.0672685
0.069777
0.0636187
0.0592189
0.0580421
0.00629862
0.0063283
0.00636175
0.00639984
0.00644181
0.00648891
0.00654034
0.00659699
0.00665798
0.00672401
0.00679462
0.00687053
0.00695147
0.0070381
0.00713034
0.00722883
0.00733372
0.00744573
0.00756534
0.00769291
0.00782882
0.00797358
0.00812746
0.00829109
0.00846514
0.00865044
0.0088476
0.00905759
0.00937547
0.00972073
0.0100927
0.0104921
0.0109129
0.011347
0.0117701
0.0121503
0.0124375
0.0125724
0.0125144
0.0122131
0.0116745
0.0109
0.0100029
0.00909921
0.00828877
0.00771667
0.00754577
0.00789067
0.00883875
0.0105879
0.0138509
0.0181513
0.0194493
0.0206602
0.0196316
0.0210331
0.0191192
0.0200132
0.0179699
0.0183776
0.0164769
0.0156706
0.0145916
0.0145783
0.0144101
0.0144292
0.0154212
0.0164503
0.0168048
0.0170125
0.0173072
0.0176551
0.0180519
0.0184747
0.0185947
0.0167343
0.0139865
0.0134947
0.0149953
0.0173609
0.0297883
0.0434108
0.0412316
0.0402566
0.0324962
0.030083
0.0328658
0.0306777
0.0331761
0.033682
0.037784
0.0409485
0.0464349
0.0509814
0.0565194
0.0610302
0.0641498
0.0647124
0.0641721
0.0638483
0.00814583
0.0081889
0.00824009
0.00829977
0.00836724
0.00844374
0.00852853
0.00862263
0.00872526
0.00883729
0.0089582
0.00908885
0.00922888
0.0093791
0.00953924
0.00970999
0.00989107
0.010083
0.0102855
0.0104989
0.0107228
0.0109573
0.011203
0.0114599
0.0117276
0.012005
0.0122895
0.0125791
0.0129566
0.0133247
0.0136491
0.0139171
0.0140884
0.0141476
0.0140707
0.0138426
0.0134497
0.0128966
0.012195
0.0114627
0.0107007
0.00999377
0.0093936
0.00898912
0.00886955
0.00913352
0.00984339
0.0110332
0.0128053
0.0145266
0.0185546
0.020502
0.0221462
0.0229204
0.0228977
0.0237655
0.0227115
0.0232876
0.0218372
0.0220477
0.0205884
0.0197336
0.0188536
0.0189804
0.0198202
0.0194333
0.0216724
0.0224366
0.024505
0.0253031
0.0265941
0.0270816
0.0270484
0.025898
0.0234249
0.0202022
0.0174896
0.0170815
0.0170714
0.0221088
0.0336045
0.0407553
0.0428448
0.0286381
0.0266608
0.0273297
0.0286564
0.0288288
0.0324393
0.0341972
0.0393584
0.0430438
0.0495122
0.0550697
0.0622132
0.0667029
0.0685925
0.0697147
0.0709072
0.0717008
0.0113631
0.0114119
0.011479
0.0115607
0.0116584
0.0117706
0.0118981
0.0120398
0.0121959
0.0123656
0.0125487
0.0127448
0.0129537
0.0131749
0.0134078
0.0136513
0.0139036
0.0141619
0.014422
0.0146807
0.0149321
0.0151711
0.0153897
0.0155812
0.0157391
0.0158598
0.0159407
0.0159953
0.0159354
0.0158174
0.015573
0.015248
0.0148006
0.0142703
0.0136798
0.0130638
0.0124304
0.0118163
0.0112478
0.010766
0.0104018
0.0102155
0.0102584
0.0105948
0.0112726
0.0123167
0.0137279
0.0155528
0.0156265
0.0173177
0.0204859
0.0222786
0.0242928
0.0255335
0.0261315
0.0263967
0.026361
0.0262243
0.02561
0.0252509
0.0244496
0.0236183
0.0234069
0.0240629
0.025845
0.0253862
0.0284871
0.029009
0.0322178
0.0324189
0.0346493
0.0336118
0.0333112
0.0301689
0.0266213
0.022432
0.0201857
0.0202036
0.0210771
0.0262431
0.0335043
0.0377305
0.0377157
0.0299634
0.0307796
0.0303185
0.0316325
0.0321301
0.0350263
0.0371431
0.0416609
0.045148
0.0508313
0.0561784
0.063155
0.0693889
0.0730203
0.0753359
0.0770306
0.0780992
0.0164159
0.0164099
0.0164373
0.0164845
0.0165596
0.0166514
0.0167645
0.0168882
0.0170235
0.0171615
0.0173017
0.0174364
0.0175636
0.0176761
0.0177714
0.0178434
0.0178908
0.0179093
0.0178935
0.0178419
0.017751
0.0176206
0.0174493
0.0172388
0.0169896
0.0167056
0.0163899
0.0160607
0.0155681
0.0150893
0.0145632
0.0140627
0.0135459
0.0130759
0.0126255
0.0122448
0.0119262
0.0117175
0.0116263
0.0117015
0.0119656
0.012466
0.0132232
0.0142582
0.0155673
0.0171394
0.0189974
0.0189298
0.018437
0.0203957
0.0224523
0.0239233
0.0260084
0.0273756
0.0279916
0.0282543
0.028362
0.0282469
0.0278262
0.0275133
0.027108
0.0268352
0.0272492
0.0286767
0.0308335
0.0307704
0.0338549
0.0345522
0.0376536
0.0380388
0.040129
0.0387584
0.0379092
0.0338296
0.0297644
0.0255256
0.0236306
0.0231697
0.0244189
0.0290098
0.0327359
0.0350722
0.0335574
0.0306312
0.0321505
0.0322162
0.0338247
0.0349212
0.0378832
0.0404928
0.0450398
0.049548
0.056086
0.0627207
0.0693354
0.0747067
0.0781279
0.0809557
0.0828152
0.0840066
0.0219645
0.0217622
0.0215765
0.0213997
0.0212384
0.0210786
0.0209244
0.0207623
0.0205955
0.0204128
0.0202174
0.0200014
0.0197679
0.0195114
0.0192351
0.0189355
0.0186164
0.0182786
0.0179329
0.017575
0.0172123
0.0168435
0.0164747
0.0161062
0.0157429
0.0153863
0.0150405
0.0147154
0.014352
0.0140549
0.0137741
0.0135603
0.0133908
0.0133064
0.0132948
0.0133936
0.0136028
0.0139571
0.0144658
0.015158
0.0160375
0.017116
0.018383
0.0198319
0.0214509
0.023269
0.0230971
0.0210817
0.021182
0.0228002
0.0239304
0.025187
0.0274891
0.0289668
0.0294506
0.0297575
0.0298469
0.0296925
0.0293347
0.0289295
0.0288515
0.029008
0.0301171
0.032126
0.0345879
0.0352149
0.0379908
0.0388993
0.0417748
0.0426552
0.0442916
0.0429774
0.0411165
0.0364432
0.0318884
0.0280287
0.0265498
0.0262178
0.0276738
0.0309503
0.0329553
0.0352374
0.0340836
0.0336402
0.0347208
0.0353358
0.0366746
0.0382458
0.0409587
0.0440937
0.0486076
0.0537847
0.0603504
0.0674876
0.0747174
0.080307
0.0839379
0.0869144
0.0889197
0.0902094
0.0235076
0.0230864
0.0226572
0.022242
0.021833
0.0214336
0.0210395
0.0206514
0.0202683
0.0198902
0.0195181
0.0191514
0.0187924
0.0184403
0.018098
0.0177648
0.017444
0.0171353
0.0168418
0.0165644
0.0163076
0.0160729
0.0158656
0.0156884
0.0155478
0.0154479
0.0153973
0.0154068
0.0154303
0.0155365
0.0156964
0.0159358
0.0162428
0.0166367
0.0171204
0.0177175
0.0184207
0.0192522
0.0202012
0.0212822
0.0224745
0.0237848
0.0251927
0.0267167
0.0283689
0.0279285
0.0248565
0.0235569
0.0236544
0.0248
0.0251948
0.02632
0.0286487
0.0300435
0.0303636
0.0306611
0.0306034
0.0304849
0.0300303
0.029661
0.0297554
0.0303055
0.0318339
0.0342305
0.0369785
0.0383387
0.040562
0.041611
0.0442237
0.0453914
0.0465793
0.045442
0.0429672
0.0384842
0.0341577
0.0309381
0.0294897
0.0291055
0.0303195
0.0321993
0.0332388
0.0353657
0.0350005
0.0358101
0.0368512
0.0378796
0.039282
0.0413299
0.0442421
0.0479712
0.0528798
0.0587245
0.0658695
0.0732563
0.0804825
0.0860838
0.0900456
0.093033
0.0952299
0.0965956
0.0214524
0.021101
0.0207435
0.0204091
0.0200816
0.0197727
0.0194724
0.0191894
0.0189185
0.0186665
0.0184315
0.0182177
0.0180242
0.0178539
0.0177076
0.0175881
0.0174981
0.017441
0.0174214
0.0174443
0.0175164
0.0176445
0.017838
0.0181062
0.0184617
0.0189175
0.0194916
0.0202015
0.0206411
0.0211493
0.0217002
0.0223115
0.0229565
0.0236509
0.0244038
0.0252355
0.026123
0.0270865
0.028104
0.0291931
0.030333
0.0315436
0.0328166
0.0341885
0.0328512
0.029273
0.0269316
0.0257491
0.0257151
0.0263747
0.0262431
0.0272326
0.0294313
0.0306963
0.0308616
0.0311002
0.0308869
0.0307612
0.0301768
0.0298166
0.0300085
0.0308069
0.0325648
0.0351695
0.0381928
0.0401384
0.0418667
0.0430256
0.0454253
0.0468002
0.0478788
0.0470124
0.044424
0.0403483
0.0364412
0.0337639
0.0323305
0.0318354
0.0323821
0.0332618
0.0339652
0.0363994
0.0367993
0.0382462
0.0393428
0.0405858
0.0421548
0.0445097
0.0477932
0.051934
0.057465
0.0638431
0.0717087
0.0793209
0.0868536
0.092146
0.0963933
0.099233
0.101679
0.103093
0.0199065
0.019775
0.0196422
0.0195326
0.0194284
0.0193451
0.0192709
0.0192199
0.0191853
0.0191795
0.0191995
0.0192556
0.019345
0.0194757
0.0196473
0.0198679
0.0201401
0.0204728
0.0208717
0.0213472
0.0219079
0.0225654
0.023331
0.0242183
0.0252404
0.0264117
0.0277474
0.0292541
0.0298531
0.0304736
0.031101
0.0317461
0.0323839
0.0330249
0.0336955
0.0344078
0.0351422
0.0359116
0.0367022
0.0375293
0.0383874
0.0392996
0.0402722
0.0368735
0.0337262
0.0307536
0.0287754
0.0275194
0.0273423
0.027558
0.0271004
0.0279323
0.0298716
0.03096
0.030956
0.0310874
0.0307424
0.0305781
0.0298747
0.0295263
0.0297544
0.0306751
0.0324702
0.0351416
0.0383349
0.0406884
0.0421469
0.0434531
0.0456329
0.0472764
0.0485015
0.0481285
0.0459334
0.0425694
0.0392035
0.0367893
0.0350443
0.0341726
0.0340056
0.0341648
0.0347619
0.0374439
0.0385249
0.0404535
0.0418035
0.0432607
0.0451164
0.0478119
0.0516318
0.0562425
0.0625866
0.0694454
0.078115
0.0856687
0.093521
0.0984471
0.102958
0.1056
0.108287
0.109741
0.0206825
0.0207841
0.0208936
0.0210272
0.0211697
0.0213368
0.0215184
0.0217303
0.0219671
0.0222449
0.0225614
0.0229318
0.0233539
0.023838
0.0243819
0.0249959
0.0256814
0.0264486
0.0273005
0.0282473
0.029293
0.0304454
0.0317104
0.0330919
0.0345914
0.0362063
0.0379311
0.0397447
0.0401643
0.0405709
0.0409659
0.0413588
0.0417344
0.0420952
0.0424748
0.0428753
0.0432831
0.043704
0.0441354
0.0434462
0.0424486
0.0409394
0.0392494
0.0368889
0.0345224
0.031968
0.0301142
0.0288867
0.0284821
0.0283582
0.0276912
0.0284326
0.0299888
0.0308788
0.0306954
0.0307025
0.030266
0.030046
0.0292646
0.0289228
0.0291614
0.0301036
0.0318176
0.0344299
0.0376756
0.0403244
0.0418817
0.0433568
0.0453706
0.0474442
0.049042
0.049433
0.0479234
0.0453257
0.0423472
0.0398972
0.0376297
0.0362326
0.0353722
0.0350717
0.0357029
0.0386887
0.0403552
0.042735
0.0444148
0.0460871
0.0482459
0.0513437
0.0557588
0.060945
0.0681474
0.0755111
0.0849223
0.0923911
0.100389
0.104978
0.109644
0.112162
0.115006
0.116515
0.0238712
0.0242049
0.0245583
0.0249385
0.0253323
0.0257531
0.0261919
0.0266634
0.0271633
0.0277076
0.028296
0.0289446
0.0296546
0.030436
0.0312827
0.0322
0.0331818
0.0342323
0.0353456
0.0365237
0.0377614
0.0390587
0.0404016
0.0417811
0.0431778
0.0445727
0.0459421
0.0472665
0.0473761
0.0471225
0.0461416
0.0443655
0.0434733
0.0423931
0.0416368
0.0408709
0.0402286
0.0394752
0.0388762
0.0382212
0.0377283
0.0371159
0.0365246
0.0355494
0.0342096
0.0325824
0.0311482
0.0298541
0.0292335
0.0288352
0.0280507
0.0288192
0.029866
0.03051
0.0301185
0.0299923
0.0295006
0.029228
0.0284113
0.0280815
0.0283278
0.0292364
0.030797
0.0332499
0.0364358
0.0393587
0.0413179
0.0429588
0.0448726
0.0475118
0.0496521
0.0511121
0.0505477
0.0487645
0.0459096
0.043028
0.0401107
0.0380845
0.0365703
0.0359377
0.0365946
0.0398317
0.0420612
0.0449362
0.047084
0.0490502
0.051543
0.0551649
0.06024
0.0661651
0.0742291
0.0821442
0.0920936
0.0995068
0.107436
0.11173
0.116377
0.118838
0.121751
0.123327
0.0286393
0.0291863
0.0297623
0.0303646
0.0309801
0.0316179
0.0322674
0.0329376
0.0336217
0.0343308
0.0350631
0.0358319
0.0366385
0.0374943
0.0383903
0.039321
0.04027
0.0412281
0.0421789
0.0431109
0.044006
0.0448459
0.0456057
0.0462641
0.0467949
0.0471772
0.0460306
0.0442005
0.0438362
0.0411329
0.0406509
0.0390291
0.038438
0.037359
0.0367194
0.0360285
0.0354532
0.0349236
0.0343464
0.0338515
0.0333571
0.0329388
0.0325814
0.0323028
0.0321216
0.0318053
0.0311662
0.0303066
0.0297255
0.0291333
0.0283762
0.0290923
0.0295543
0.0298657
0.0292439
0.0289935
0.0284861
0.028201
0.0274179
0.0271257
0.0273766
0.0282177
0.0295756
0.0317917
0.03482
0.0379726
0.0405093
0.0423689
0.0442644
0.0475954
0.0504614
0.0532983
0.053878
0.0528072
0.0496829
0.0460174
0.042397
0.0396904
0.0376654
0.0367379
0.0374123
0.0408376
0.0435782
0.0470394
0.0498159
0.0521626
0.0550356
0.0593111
0.0651269
0.0719512
0.0808754
0.0894152
0.0996949
0.107021
0.114663
0.11866
0.123099
0.125537
0.128436
0.130081
0.0335052
0.0341771
0.034878
0.0355983
0.0363241
0.0370601
0.0377925
0.0385228
0.0392383
0.03994
0.040619
0.0412797
0.0419195
0.0425468
0.0431622
0.0437585
0.0443127
0.0448042
0.0452074
0.0455016
0.045049
0.0440952
0.0432666
0.0423679
0.0413867
0.0402417
0.0392734
0.0381806
0.0380432
0.0358512
0.0358011
0.0343874
0.034189
0.0332989
0.0329709
0.0325035
0.0320658
0.0317902
0.031331
0.0309566
0.0305544
0.0302438
0.0299479
0.0297886
0.0297271
0.0297556
0.0298593
0.0300509
0.0298865
0.0296174
0.0288645
0.029411
0.0292745
0.0290912
0.0281346
0.0277141
0.0271988
0.0269286
0.0262072
0.0259618
0.0262379
0.0270311
0.028202
0.0301752
0.0329854
0.0362543
0.0392774
0.041488
0.0436906
0.0475835
0.0514783
0.0558741
0.05784
0.0572721
0.0534516
0.0487839
0.0443782
0.0410321
0.038634
0.0374332
0.0380819
0.0415951
0.04482
0.0490015
0.0524958
0.0554802
0.0588744
0.0638806
0.0705877
0.0784323
0.0882381
0.0973458
0.107738
0.114879
0.122068
0.125723
0.129757
0.132136
0.134948
0.136651
0.0368341
0.0374727
0.0381273
0.0387878
0.0394406
0.0400881
0.0407161
0.0413217
0.0418885
0.0424096
0.0428683
0.0432573
0.0435652
0.0437918
0.0439366
0.0440076
0.0433603
0.0419399
0.0402491
0.0386216
0.0371364
0.0359138
0.0349346
0.0341643
0.0334904
0.0328336
0.0323333
0.0319302
0.0320046
0.0304089
0.0307633
0.0295353
0.0297415
0.0290728
0.0290807
0.0288148
0.028579
0.0284516
0.0281833
0.0280758
0.0279684
0.0279746
0.0279885
0.0280473
0.0280975
0.0282106
0.0285112
0.0289491
0.0294195
0.0298428
0.0294224
0.0296611
0.0288495
0.0279766
0.0266585
0.0260974
0.0256345
0.0254789
0.0249538
0.0248241
0.0251388
0.0258789
0.0268376
0.0285202
0.03097
0.0341473
0.0373836
0.0402093
0.0432878
0.0472602
0.0526663
0.0585404
0.0621429
0.0617391
0.0568435
0.0511786
0.0461129
0.0422644
0.0395554
0.0381215
0.0386769
0.0422119
0.0459639
0.0509237
0.0552497
0.0593513
0.063488
0.0692273
0.0770672
0.0859673
0.0966833
0.106076
0.116202
0.122869
0.129454
0.132756
0.136226
0.138425
0.141069
0.142811
0.0375261
0.0379743
0.0384181
0.0388527
0.0392661
0.0396613
0.040028
0.0403626
0.0406488
0.0408809
0.041041
0.0411163
0.0410872
0.0409422
0.0406704
0.0377865
0.0359856
0.0349069
0.0335776
0.0318961
0.030182
0.028662
0.0274108
0.0264917
0.0258648
0.0254606
0.0253129
0.0254192
0.0258365
0.0252158
0.0261046
0.0250474
0.025619
0.025077
0.0253658
0.0251352
0.0251519
0.0249722
0.0249375
0.0249716
0.025061
0.0252051
0.0255027
0.0258353
0.0263305
0.0267945
0.0273333
0.0278355
0.0285971
0.0294844
0.0300616
0.030226
0.0291268
0.0273341
0.0252421
0.0242288
0.0237211
0.0236664
0.0233442
0.0232917
0.0236552
0.0244143
0.0252225
0.026729
0.0288037
0.0318315
0.0350961
0.0385717
0.0426298
0.0465956
0.053648
0.0608996
0.0661516
0.0655962
0.0596078
0.0530394
0.0475035
0.0433689
0.0404267
0.0388133
0.0392062
0.0427108
0.0470498
0.0528701
0.0584562
0.0643208
0.0695722
0.0762621
0.0855943
0.0955317
0.106999
0.116039
0.125097
0.130595
0.136282
0.139396
0.142346
0.144187
0.146441
0.148167
0.0353973
0.0355756
0.0357322
0.0358693
0.035978
0.0360625
0.0361174
0.0361393
0.036116
0.0360453
0.0359176
0.0357232
0.0354458
0.0350706
0.0345798
0.033962
0.032431
0.0296378
0.0280232
0.0264765
0.0245936
0.0226435
0.0210197
0.0197774
0.0190171
0.0186527
0.0185866
0.0174831
0.0179497
0.0184121
0.0188578
0.0193701
0.0199299
0.0205997
0.0212888
0.0217871
0.0221395
0.0220599
0.0223024
0.0223811
0.0226135
0.0227472
0.0231035
0.0234078
0.0239813
0.0246233
0.0254937
0.0263779
0.0274009
0.0286031
0.0296242
0.0301396
0.0282867
0.0255443
0.0230039
0.0217298
0.0212632
0.021485
0.0216966
0.0219912
0.0223907
0.0233203
0.0238754
0.0252172
0.0266641
0.0293117
0.0323953
0.0361461
0.0406819
0.0461364
0.0535624
0.0627027
0.0689708
0.0679803
0.0611853
0.0542128
0.0485459
0.0443842
0.0413642
0.0396377
0.0398143
0.0431759
0.0478999
0.0546339
0.0619221
0.0701912
0.077488
0.0860829
0.0973704
0.108542
0.119938
0.127576
0.134374
0.138112
0.142392
0.145524
0.148248
0.149648
0.150974
0.152393
0.0310513
0.0309797
0.0308792
0.030758
0.0306109
0.0304408
0.0302429
0.0300162
0.0297557
0.0294622
0.0291303
0.0287583
0.0283376
0.0278606
0.0273131
0.0266811
0.0259474
0.0251024
0.0241466
0.0218634
0.0199686
0.0179872
0.0160841
0.0145502
0.0134772
0.0128496
0.0126082
0.0113173
0.0117069
0.0120794
0.0124333
0.0128595
0.0133127
0.0138744
0.0144512
0.0150951
0.0157719
0.0165099
0.0172943
0.0181528
0.0190881
0.0201286
0.0206333
0.020936
0.0214857
0.0221566
0.0231723
0.0243625
0.0259014
0.027741
0.0296832
0.0324049
0.03207
0.0279284
0.022944
0.0201023
0.0189297
0.0189787
0.0192449
0.0200105
0.0202416
0.0214603
0.0217339
0.0231824
0.024198
0.0268612
0.0298309
0.0335964
0.0378694
0.0452925
0.052846
0.0637086
0.0705872
0.0688231
0.0616023
0.0545904
0.0490236
0.044919
0.0419394
0.040067
0.0397874
0.0423755
0.0475244
0.0549687
0.0639349
0.0748166
0.0856434
0.0966632
0.109305
0.12161
0.129054
0.133022
0.137076
0.141118
0.145053
0.148741
0.15202
0.153949
0.154688
0.155554
0.0254659
0.0252313
0.02497
0.0246927
0.024397
0.0240835
0.0237495
0.0233953
0.0230192
0.0226223
0.0222025
0.02176
0.0212918
0.020796
0.0202669
0.0196978
0.0190767
0.0183899
0.0176219
0.0167628
0.0158201
0.0148046
0.0134787
0.0111377
0.00943154
0.00846333
0.00826025
0.0073058
0.00752614
0.00774871
0.0079503
0.00822034
0.00850534
0.00888156
0.00927056
0.00972525
0.0102084
0.0107533
0.011334
0.0119861
0.0127048
0.0135247
0.0144466
0.0155014
0.0166938
0.0180409
0.0195316
0.0209281
0.0225596
0.0244744
0.0262336
0.0277692
0.0287831
0.0254617
0.0197714
0.0176465
0.0171577
0.0173055
0.0177632
0.019229
0.0192851
0.0207562
0.020903
0.0223476
0.0228709
0.0249311
0.0268262
0.0301928
0.0341524
0.0405086
0.0501125
0.0582597
0.0646084
0.0631948
0.0580022
0.0523314
0.0478861
0.044458
0.0417645
0.0398839
0.0393499
0.0417036
0.0464092
0.0532178
0.062735
0.074106
0.0874878
0.0952922
0.0989343
0.102936
0.107319
0.112105
0.117307
0.122913
0.128866
0.135074
0.141342
0.147345
0.152581
0.156372
0.0196243
0.0193298
0.0190162
0.0186922
0.0183588
0.0180141
0.0176584
0.017291
0.0169117
0.0165206
0.0161172
0.0157017
0.0152734
0.0148325
0.014378
0.0139096
0.0134246
0.0129192
0.0123846
0.0118082
0.0111735
0.0104687
0.00969968
0.00887375
0.00735149
0.00587813
0.005462
0.00512531
0.00517018
0.00523536
0.00529704
0.00541065
0.00553605
0.00572243
0.00591712
0.00616131
0.00642393
0.00673473
0.00706802
0.00745631
0.0078892
0.00839365
0.00898485
0.00968234
0.0104959
0.0114407
0.0125162
0.0137155
0.0150063
0.0163421
0.0176415
0.0188366
0.019447
0.0198792
0.0203855
0.0211832
0.0188643
0.0172731
0.017091
0.0190854
0.0185988
0.0204973
0.020427
0.0212729
0.0217456
0.0227809
0.0257279
0.029791
0.034848
0.0402153
0.0534665
0.056802
0.0565168
0.0564345
0.0552674
0.0490671
0.0445175
0.0414808
0.0392294
0.0376137
0.0363603
0.0364191
0.0390693
0.0450336
0.0544758
0.0605342
0.0627889
0.0656887
0.0687375
0.0722294
0.0762277
0.0808179
0.0860641
0.0921109
0.0990872
0.107189
0.116556
0.127251
0.138942
0.150368
0.0143738
0.0141081
0.0138313
0.013549
0.0132641
0.0129733
0.0126789
0.0123786
0.012074
0.0117637
0.0114487
0.0111282
0.0108027
0.0104719
0.0101362
0.00979569
0.00945033
0.00909974
0.00874237
0.00837576
0.00799102
0.00757469
0.00711184
0.00660386
0.00605137
0.00493553
0.00384245
0.00403847
0.00405206
0.00402227
0.00399671
0.0040094
0.00403114
0.00408816
0.00415066
0.00424159
0.00434079
0.00446705
0.00460186
0.00476544
0.00494936
0.00517001
0.00543386
0.00576088
0.00615691
0.00663619
0.00720085
0.00785609
0.00858488
0.00936573
0.0101539
0.010913
0.0112649
0.0114578
0.011595
0.0118088
0.00946818
0.00959909
0.0147003
0.0206133
0.0225668
0.0255821
0.0264289
0.028042
0.0290674
0.0290952
0.0308665
0.0292781
0.0287869
0.028926
0.031652
0.0334643
0.0330736
0.0328267
0.0326492
0.0324683
0.0322728
0.0320552
0.0315152
0.0301561
0.0290852
0.0296072
0.0308564
0.0313192
0.0317294
0.0322984
0.0333938
0.0350793
0.0368734
0.03899
0.0414666
0.0443941
0.0478316
0.0519971
0.0571063
0.0636071
0.0721156
0.0837675
0.100424
0.125293
0.0103886
0.0102091
0.0100248
0.00983709
0.0096504
0.00946039
0.0092703
0.00907701
0.00888277
0.00868541
0.00848633
0.008284
0.00807902
0.00787027
0.00765783
0.00744142
0.00722156
0.00699918
0.00677522
0.00655014
0.00632311
0.00609114
0.00583872
0.00553629
0.00515633
0.00451196
0.00270571
0.00298452
0.00347694
0.00345339
0.0033959
0.00338094
0.00335788
0.00336393
0.00336461
0.00338402
0.00340099
0.00343
0.0034557
0.00349186
0.00353199
0.00358761
0.00365877
0.00375324
0.00387456
0.00403185
0.00422859
0.00446616
0.00474144
0.00504137
0.00534684
0.00563552
0.00576287
0.00579737
0.00576181
0.0057318
0.0057823
0.00628958
0.00861143
0.010947
0.011477
0.0119758
0.0127212
0.013532
0.0141801
0.015059
0.0157902
0.016334
0.0168691
0.0167817
0.0153313
0.0156792
0.0154197
0.0147451
0.0143863
0.014075
0.0137924
0.0135798
0.01327
0.0130256
0.0127614
0.0127778
0.0129699
0.0130033
0.0128001
0.0126728
0.0129073
0.0133885
0.013862
0.0144561
0.0151923
0.016089
0.0171315
0.0184127
0.0199876
0.0220596
0.0249074
0.0292281
0.0366542
0.0539218
0.00750337
0.00740225
0.00729585
0.00718519
0.00707334
0.00695688
0.00683861
0.0067153
0.00658945
0.00645807
0.00632327
0.0061823
0.00603671
0.00588404
0.00572544
0.00555899
0.00538523
0.00520186
0.00500845
0.00480321
0.00458761
0.00436153
0.00412228
0.00385871
0.00354932
0.00318458
0.00275579
0.000638863
0.000618594
0.000613326
0.000606696
0.00060737
0.000609442
0.000614674
0.000620269
0.000626354
0.000632417
0.000637502
0.00064109
0.000642459
0.00064246
0.000641156
0.000639431
0.000638107
0.000638146
0.000640109
0.000644179
0.000651017
0.000660489
0.000672945
0.000687144
0.00069938
0.0007048
0.00070511
0.000701671
0.000695769
0.000683673
0.000649545
0.000672563
0.000733416
0.000780286
0.000824325
0.000858456
0.000891227
0.000918741
0.000946411
0.000971186
0.00100788
0.00104763
0.00109388
0.00114319
0.00118108
0.00121331
0.00123602
0.00124349
0.00124205
0.00123294
0.00121667
0.00119516
0.00117003
0.00114484
0.00113424
0.00112301
0.00110729
0.00108731
0.00106339
0.0010385
0.00101774
0.000999782
0.000984183
0.000969963
0.000956388
0.0009417
0.000925
0.000904903
0.000880375
0.000850296
0.000813765
0.000769872
0.000717689
0.000376875
0.0196669
0.0223962
0.0224854
0.0224883
0.022488
0.0224875
0.0224869
0.0224863
0.0224858
0.0224854
0.0224854
0.0224856
0.0224862
0.0224867
0.0224873
0.0224877
0.0224881
0.0224884
0.0224887
0.000403023
0.0176242
0.022216
0.0224617
0.0224721
0.0224721
0.0224717
0.0224711
0.0224707
0.0224702
0.0224701
0.0224704
0.0224714
0.0224729
0.0224745
0.0224759
0.0224772
0.0224782
0.022479
0.0224795
0.000427821
0.0161198
0.0219891
0.0224322
0.0224558
0.0224567
0.0224564
0.0224559
0.0224556
0.0224552
0.0224553
0.0224561
0.0224578
0.0224604
0.022463
0.0224653
0.0224674
0.022469
0.0224703
0.0224712
0.000451214
0.0149563
0.0217302
0.0223967
0.0224395
0.0224417
0.0224416
0.0224412
0.022441
0.0224407
0.022441
0.0224422
0.0224447
0.0224482
0.0224519
0.0224552
0.022458
0.0224603
0.022462
0.0224632
0.000473212
0.0140185
0.0214488
0.0223546
0.0224227
0.0224269
0.022427
0.0224268
0.0224266
0.0224266
0.022427
0.0224287
0.022432
0.0224365
0.0224412
0.0224454
0.022449
0.0224519
0.0224541
0.0224557
0.000493888
0.0132074
0.0211481
0.0223057
0.0224051
0.0224122
0.0224127
0.0224126
0.0224126
0.0224127
0.0224134
0.0224156
0.0224197
0.0224251
0.0224309
0.022436
0.0224405
0.022444
0.0224466
0.0224485
0.000513248
0.0124531
0.0208272
0.0222496
0.0223866
0.0223975
0.0223984
0.0223985
0.0223987
0.0223991
0.0224001
0.0224028
0.0224076
0.0224141
0.0224209
0.022427
0.0224322
0.0224364
0.0224396
0.0224417
0.000531398
0.0117425
0.0204879
0.0221863
0.022367
0.0223828
0.0223843
0.0223847
0.0223851
0.0223857
0.022387
0.0223903
0.022396
0.0224034
0.0224112
0.0224184
0.0224244
0.0224293
0.0224329
0.0224352
0.000548359
0.0110855
0.0201344
0.0221158
0.0223462
0.022368
0.0223703
0.0223711
0.0223717
0.0223726
0.0223743
0.0223781
0.0223847
0.0223931
0.022402
0.0224101
0.022417
0.0224225
0.0224266
0.0224292
0.000564247
0.0104897
0.0197712
0.0220382
0.0223241
0.0223533
0.0223566
0.0223577
0.0223586
0.0223597
0.0223619
0.0223663
0.0223737
0.0223832
0.0223932
0.0224022
0.0224099
0.0224161
0.0224207
0.0224236
0.000579066
0.00995637
0.0194033
0.0219539
0.0223007
0.0223385
0.022343
0.0223445
0.0223458
0.0223473
0.0223498
0.0223549
0.0223632
0.0223737
0.0223848
0.0223948
0.0224034
0.0224102
0.0224153
0.0224185
0.000592928
0.00948183
0.0190352
0.0218632
0.0222759
0.0223238
0.0223297
0.0223317
0.0223333
0.0223352
0.0223382
0.0223439
0.022353
0.0223647
0.0223768
0.0223878
0.0223972
0.0224048
0.0224104
0.0224138
0.000605821
0.00906096
0.0186707
0.0217668
0.0222497
0.022309
0.0223167
0.0223191
0.0223211
0.0223235
0.022327
0.0223334
0.0223434
0.0223561
0.0223693
0.0223814
0.0223916
0.0223998
0.0224059
0.0224097
0.000617848
0.00868768
0.0183128
0.0216653
0.0222221
0.0222943
0.022304
0.022307
0.0223094
0.0223123
0.0223164
0.0223234
0.0223344
0.0223481
0.0223624
0.0223754
0.0223866
0.0223955
0.0224021
0.0224061
0.000628972
0.00835541
0.0179641
0.0215595
0.0221932
0.0222797
0.0222917
0.0222953
0.0222982
0.0223016
0.0223062
0.022314
0.0223259
0.0223407
0.022356
0.0223702
0.0223822
0.0223918
0.022399
0.0224032
0.000639224
0.0080546
0.0176262
0.0214501
0.0221632
0.0222652
0.0222799
0.0222842
0.0222876
0.0222915
0.0222968
0.0223053
0.0223181
0.022334
0.0223505
0.0223656
0.0223785
0.0223888
0.0223965
0.0224011
0.000648554
0.00778228
0.0173008
0.0213381
0.0221322
0.0222511
0.0222687
0.0222737
0.0222777
0.0222822
0.0222881
0.0222974
0.0223111
0.0223282
0.0223458
0.022362
0.0223757
0.0223867
0.0223949
0.0223998
0.000657007
0.00753563
0.016989
0.0212245
0.0221005
0.0222375
0.0222582
0.022264
0.0222687
0.0222738
0.0222803
0.0222904
0.0223051
0.0223233
0.0223421
0.0223593
0.0223739
0.0223856
0.0223943
0.0223994
0.000664452
0.00731243
0.0166922
0.0211104
0.0220684
0.0222245
0.0222486
0.0222553
0.0222608
0.0222664
0.0222737
0.0222845
0.0223003
0.0223195
0.0223395
0.0223577
0.0223733
0.0223856
0.0223949
0.0224003
0.000671126
0.00711074
0.0164115
0.020997
0.0220363
0.0222124
0.02224
0.0222479
0.0222541
0.0222604
0.0222683
0.02228
0.0222967
0.0223171
0.0223382
0.0223575
0.022374
0.0223871
0.0223969
0.0224026
0.000676554
0.00692914
0.0161483
0.020886
0.0220049
0.0222016
0.0222329
0.0222422
0.022249
0.0222559
0.0222645
0.022277
0.0222947
0.0223162
0.0223385
0.0223589
0.0223762
0.02239
0.0224004
0.0224064
0.000681134
0.00676657
0.0159041
0.0207791
0.0219745
0.0221925
0.0222276
0.0222384
0.0222458
0.0222534
0.0222626
0.0222759
0.0222946
0.0223172
0.0223406
0.0223621
0.0223803
0.0223948
0.0224058
0.022412
0.000684668
0.00662212
0.0156803
0.0206782
0.0219459
0.0221856
0.0222248
0.022237
0.022245
0.0222532
0.022263
0.022277
0.0222967
0.0223204
0.0223449
0.0223674
0.0223866
0.0224018
0.0224132
0.0224198
0.000686676
0.00648863
0.015471
0.0205835
0.0219194
0.0221815
0.0222253
0.0222389
0.0222472
0.0222558
0.0222661
0.0222807
0.0223013
0.0223261
0.0223516
0.0223752
0.0223953
0.0224111
0.0224231
0.02243
0.00068963
0.00634956
0.0152565
0.0204903
0.0218947
0.0221813
0.0222298
0.0222446
0.022253
0.0222618
0.0222723
0.0222875
0.0223089
0.0223346
0.0223613
0.0223858
0.0224068
0.0224233
0.0224357
0.0224431
0.00069602
0.00620448
0.0150323
0.020135
0.0218728
0.0221863
0.0222396
0.022255