/*--------------------------------*- C++ -*----------------------------------*\
  =========                 |
  \\      /  F ield         | OpenFOAM: The Open Source CFD Toolbox
   \\    /   O peration     | Website:  https://openfoam.org
    \\  /    A nd           | Version:  7
     \\/     M anipulation  |
\*---------------------------------------------------------------------------*/
FoamFile
{
    version     2.0;
    format      ascii;
    class       volScalarField;
    location    "0.1175";
    object      k;
}
// * * * * * * * * * * * * * * * * * * * * * * * * * * * * * * * * * * * * * //

dimensions      [0 2 -2 0 0 0 0];

internalField   nonuniform List<scalar> 
48560
(
21.169
21.5347
21.9462
22.3964
22.8892
23.4282
24.0175
24.6615
25.365
26.1336
26.9731
27.8903
28.8926
29.9886
31.1876
32.5005
33.9394
35.5182
37.2526
39.1605
41.2628
43.583
46.1489
48.9925
52.1513
55.6696
59.5992
64.0042
70.6865
78.4099
87.3167
97.5668
109.309
122.71
137.932
155.341
175.379
198.794
226.598
260.614
303.437
358.017
429.205
523.104
647.791
802.776
932.715
951.146
822.335
606.412
353.877
314.348
296.604
279.682
263.891
249.97
236.391
224.399
211.249
200.846
188.875
174.527
147.051
126.297
124.754
91.8051
95.4675
101.077
109.004
120.582
136.201
156.287
181.335
211.788
247.943
289.696
336.038
383.602
423.503
439.309
435.083
424.829
452.783
469.048
475.124
471.176
459.413
446.186
431.448
417.564
404.539
391.654
378.694
365.505
351.845
337.392
321.794
304.646
285.464
263.738
27.1612
27.7843
28.4866
29.2546
30.0954
31.0134
32.0162
33.1094
34.3015
35.5998
37.0141
38.5544
40.2326
42.0614
44.0556
46.2314
48.6072
51.2028
54.0399
57.1411
60.5344
64.2483
68.3169
72.775
77.6623
83.0191
88.8898
95.3278
105.252
116.466
129.221
143.725
160.372
179.622
202.325
229.686
263.089
304.465
356.142
421.174
503.93
607.282
728.656
846.415
923.814
911.938
801
622.426
456.399
347.841
295.396
297.308
316.996
330.705
344.644
356.543
369.08
380.878
394.385
405.585
418.357
426.147
432.62
423.935
416.753
400.47
385.603
377.336
366.137
356.221
348.56
342.605
338.307
335.143
332.489
329.345
324.126
313.983
296.745
282.518
269.849
233.354
237.311
238.27
239.845
243.232
243.479
238.064
235.354
233.736
234.02
235.477
237.296
238.91
240.374
241.484
242.289
242.683
242.754
242.195
39.9838
41.0553
42.2689
43.5957
45.0512
46.6371
48.3676
50.2456
52.2854
54.4925
56.8837
59.4677
62.2635
65.2832
68.5473
72.071
75.8762
79.9816
84.4127
89.1984
94.3714
99.9681
106.034
112.617
119.777
127.579
136.106
145.477
160.393
177.674
197.905
221.739
250.081
284.033
325.105
375.041
435.997
509.976
597.64
693.892
789.422
859.994
884.784
845.639
745.044
607.533
478.136
376.976
317.38
290.748
286.496
299.229
312.087
323.098
334.394
342.171
351.436
357.553
364.836
368.901
373.346
374.297
374.054
367.32
358.84
349.602
337.444
325.97
317.791
309.133
303.005
296.42
293.09
289.498
287.736
285.048
281.465
273.408
263.056
252.714
240.946
233.072
232.49
232.982
234.204
234.432
233.524
232.5
232.063
232.583
233.723
235.181
236.65
238.096
239.407
240.544
241.421
241.906
242.045
241.797
64.4473
66.1523
68.0842
70.2015
72.5238
75.0551
77.8129
80.8013
84.0392
87.5371
91.3217
95.4102
99.8337
104.615
109.792
115.394
121.468
128.058
135.226
143.037
151.562
160.885
171.105
182.327
194.691
208.351
223.491
240.374
267.138
298.376
334.955
377.847
428.035
486.214
552.384
624.693
698.18
764.374
811.194
830.056
810.478
752.768
667.362
570.538
474.454
392.991
334.252
299.1
283.804
281.081
286.993
299.866
309.591
319.151
327.092
333.352
338.991
342.703
346.099
347.417
348.114
346.092
342.167
335.447
328.117
321.018
312.393
305.362
300.232
295.769
293.599
291.747
291.421
290.495
289.507
285.862
279.764
269.898
259.032
250.255
244.096
242.574
240.237
239.267
238.872
238.513
238.034
237.826
237.65
237.831
238.185
238.83
239.565
240.367
241.09
241.67
242.037
242.149
242.065
241.77
105.594
108.417
111.643
115.213
119.154
123.483
128.23
133.419
139.089
145.273
152.02
159.375
167.396
176.14
185.68
196.086
207.446
219.847
233.393
248.195
264.377
282.077
301.469
322.729
346.056
371.635
399.624
430.195
474.587
523.428
574.889
627.6
677.712
721.267
754.392
772.068
769.921
746.062
701.388
644.535
577.764
508.926
442.397
384.064
337.48
305.184
286.364
278.529
278.315
283.037
292.356
305.407
314.104
322.191
328.914
334.16
338.394
340.946
342.633
342.842
342.206
339.295
334.434
328.354
322.481
316.722
311.668
308.41
305.736
304.314
303.217
302.489
301.341
299.54
296.513
291.538
284.035
274.094
263.991
255.912
251.924
250.862
247.971
246.228
244.675
243.503
242.496
241.699
240.98
240.666
240.546
240.708
240.981
241.363
241.733
242.041
242.184
242.137
241.973
241.697
184.481
189.19
194.747
201.003
208.021
215.804
224.421
233.894
244.308
255.699
268.168
281.769
296.614
312.773
330.363
349.453
370.129
392.389
416.197
441.487
468.08
495.719
523.992
552.442
580.492
607.567
633.053
656.613
681.398
700.871
711.176
712.599
702.44
682.255
652.953
616.766
574.671
529.484
483.002
437.633
394.88
357.28
326.222
302.941
287.481
279.135
276.517
277.972
282.182
289.252
299.519
312.391
320.63
328.268
334.601
339.757
343.573
346.029
347.185
347.303
346.321
343.334
338.403
332.897
327.882
322.97
319.867
317.967
316.168
315.39
314.315
313.346
311.422
308.791
304.484
298.199
289.352
279.01
269.355
262.019
258.12
255.751
252.551
250.451
248.433
246.833
245.325
244.041
242.935
242.231
241.801
241.684
241.711
241.857
242.001
242.111
242.13
242.035
241.875
241.645
334.619
341.131
349.247
358.634
369.422
381.462
394.836
409.371
425.092
441.803
459.48
477.872
496.854
516.082
535.316
554.131
572.221
589.171
604.662
618.139
629.274
637.603
642.889
644.862
643.456
638.705
630.847
620.369
603.92
584.243
561.134
535.804
508.447
480.382
451.419
422.754
394.846
368.753
344.836
323.908
306.488
293.093
283.798
278.392
276.318
276.934
279.514
283.502
289.089
296.856
307.121
319.458
327.585
335.086
341.455
346.672
350.562
353.147
354.346
354.523
353.48
350.563
345.924
340.862
336.31
331.867
329.31
327.422
325.529
324.216
322.47
320.562
317.617
313.882
308.471
301.327
292.214
282.344
273.199
266.137
261.567
257.859
254.476
251.979
249.782
247.928
246.159
244.641
243.406
242.576
242.053
241.828
241.777
241.849
241.954
242.025
242.02
241.93
241.797
241.613
535.841
539.637
544.389
550.046
556.302
563.003
569.82
576.461
582.615
587.983
592.338
595.419
597.055
597.021
595.22
591.526
585.974
578.626
569.707
559.181
547.256
533.995
519.615
504.225
488.026
471.133
453.686
435.838
418.824
401.839
385.209
369.054
353.826
339.66
326.46
314.412
303.795
294.758
287.421
281.886
278.246
276.398
276.178
277.327
279.557
282.592
286.241
290.676
296.47
304.034
313.602
324.827
332.9
340.339
346.834
352.201
356.309
359.168
360.622
360.955
359.895
357.085
352.744
347.971
343.556
339.303
336.501
334.051
331.552
329.329
326.742
323.859
320.109
315.53
309.445
301.819
292.752
283.393
274.792
267.837
262.529
257.977
254.609
252.072
249.939
248.032
246.229
244.677
243.448
242.602
242.072
241.817
241.741
241.778
241.851
241.906
241.904
241.834
241.732
241.59
588.951
582.719
576.068
569.706
563.021
556.297
549.079
541.528
533.365
524.721
515.474
505.757
495.535
484.902
473.858
462.472
450.758
438.754
426.471
413.99
401.356
388.645
375.92
363.252
350.708
338.355
326.264
314.577
307.369
300.767
294.939
289.789
285.51
282.041
279.25
277.113
275.705
274.992
274.994
275.663
276.959
278.799
281.092
283.735
286.641
289.752
293.23
297.478
302.871
309.749
318.245
328.116
336.061
343.437
350.002
355.488
359.816
362.935
364.7
365.149
364.062
361.323
357.233
352.607
348.132
343.891
340.544
337.348
334.072
330.911
327.467
323.712
319.284
314.073
307.641
300.006
291.429
282.741
274.702
267.879
262.177
257.329
254.039
251.567
249.524
247.67
245.921
244.425
243.255
242.447
241.947
241.705
241.633
241.669
241.737
241.791
241.799
241.753
241.68
241.575
467.223
459.239
451.152
443.421
435.714
428.155
420.51
412.88
405.13
397.359
389.508
381.667
373.805
365.976
358.157
350.385
342.655
335.005
327.454
320.053
312.844
305.883
299.224
292.929
287.057
281.674
276.842
272.67
271.771
271.264
271.135
271.336
271.873
272.723
273.791
275.074
276.554
278.225
280.061
282.055
284.173
286.399
288.694
291.044
293.443
296.028
299.059
302.792
307.524
313.511
320.825
329.343
337.047
344.288
350.829
356.372
360.861
364.196
366.244
366.772
365.635
362.931
359.013
354.437
349.82
345.496
341.558
337.644
333.639
329.678
325.519
321.139
316.287
310.788
304.349
297.006
289.048
281.066
273.599
266.985
261.21
256.382
253.223
250.866
248.929
247.174
245.519
244.115
243.018
242.267
241.801
241.581
241.517
241.557
241.625
241.687
241.707
241.684
241.638
241.565
346.212
342.486
338.83
335.346
331.918
328.519
325.077
321.599
318.062
314.499
310.921
307.37
303.86
300.417
297.048
293.779
290.625
287.616
284.784
282.165
279.799
277.725
275.98
274.603
273.624
273.074
272.978
273.373
274.444
275.643
276.928
278.292
279.71
281.182
282.685
284.223
285.765
287.312
288.847
290.386
291.926
293.486
295.052
296.635
298.396
300.46
302.966
306.133
310.169
315.27
321.493
328.834
336.202
343.221
349.639
355.165
359.731
363.213
365.477
366.037
364.833
362.135
358.32
353.743
348.97
344.525
340.063
335.567
330.993
326.428
321.764
317.014
311.988
306.493
300.325
293.506
286.258
278.967
272.039
265.71
260.069
255.398
252.355
250.102
248.27
246.627
245.081
243.78
242.761
242.072
241.645
241.453
241.402
241.451
241.523
241.593
241.627
241.625
241.602
241.557
282.199
281.852
281.571
281.331
281.093
280.81
280.463
280.043
279.561
279.036
278.503
277.994
277.54
277.158
276.856
276.643
276.535
276.549
276.704
277.018
277.509
278.188
279.072
280.17
281.486
283.019
284.762
286.709
287.636
288.552
289.433
290.306
291.147
291.964
292.771
293.567
294.322
295.032
295.689
296.32
296.976
297.717
298.588
299.658
300.98
302.649
304.757
307.456
310.898
315.244
320.569
326.966
333.927
340.645
346.857
352.294
356.859
360.419
362.82
363.374
362.088
359.375
355.612
351.013
346.107
341.534
336.673
331.786
326.844
321.9
316.969
312.099
307.139
301.887
296.17
289.967
283.418
276.767
270.342
264.338
258.923
254.447
251.503
249.335
247.603
246.076
244.645
243.444
242.505
241.878
241.493
241.33
241.294
241.353
241.431
241.51
241.556
241.574
241.572
241.551
259.239
260.713
262.251
263.795
265.319
266.787
268.179
269.484
270.706
271.864
272.988
274.115
275.284
276.518
277.817
279.175
280.582
282.03
283.518
285.038
286.592
288.19
289.832
291.495
293.173
294.838
296.474
298.074
298.244
298.355
298.358
298.365
298.359
298.356
298.369
298.395
298.414
298.419
298.422
298.469
298.604
298.89
299.381
300.14
301.214
302.667
304.551
306.956
309.977
313.756
318.4
324.074
330.588
336.949
342.897
348.189
352.696
356.279
358.757
359.275
357.903
355.162
351.42
346.801
341.798
337.11
331.998
326.92
321.805
316.689
311.7
306.905
302.188
297.33
292.161
286.595
280.695
274.632
268.675
263.007
257.843
253.551
250.677
248.57
246.926
245.514
244.201
243.099
242.243
241.678
241.339
241.206
241.189
241.26
241.347
241.436
241.495
241.529
241.545
241.545
256.161
258.597
261.108
263.618
266.107
268.541
270.892
273.133
275.245
277.226
279.089
280.869
282.607
284.352
286.121
287.893
289.63
291.303
292.882
294.348
295.686
296.889
297.922
298.763
299.38
299.74
299.808
299.661
299.24
298.836
298.405
298.062
297.757
297.546
297.356
297.202
297.05
296.891
296.739
296.644
296.665
296.866
297.315
298.078
299.197
300.696
302.573
304.859
307.655
311.068
315.229
320.357
326.421
332.395
338.045
343.156
347.579
351.164
353.69
354.164
352.72
349.962
346.237
341.617
336.564
331.79
326.56
321.453
316.327
311.206
306.318
301.74
297.385
293.013
288.425
283.47
278.15
272.618
267.085
261.743
256.82
252.685
249.857
247.784
246.212
244.916
243.727
242.728
241.958
241.459
241.173
241.076
241.084
241.17
241.269
241.368
241.44
241.489
241.521
241.539
259.87
262.771
265.754
268.735
271.699
274.618
277.461
280.187
282.755
285.124
287.269
289.186
290.899
292.461
293.933
295.347
296.671
297.843
298.803
299.504
299.899
299.964
299.685
299.042
298.019
296.612
294.827
292.791
292.288
291.862
291.415
291.118
290.881
290.799
290.738
290.745
290.769
290.793
290.831
290.928
291.15
291.566
292.245
293.249
294.628
296.41
298.59
301.133
303.984
307.24
311.104
315.839
321.494
327.091
332.435
337.356
341.705
345.32
347.939
348.399
346.904
344.145
340.45
335.86
330.81
325.99
320.742
315.694
310.667
305.674
300.985
296.717
292.789
288.944
284.934
280.546
275.747
270.682
265.53
260.492
255.784
251.773
248.974
246.916
245.4
244.218
243.17
242.288
241.619
241.199
240.978
240.927
240.969
241.075
241.19
241.302
241.388
241.452
241.499
241.532
263.434
266.428
269.498
272.556
275.597
278.599
281.542
284.388
287.092
289.596
291.84
293.765
295.335
296.548
297.449
298.118
298.604
298.891
298.91
298.581
297.844
296.649
294.968
292.784
290.098
286.927
283.308
279.42
279.138
278.962
278.747
278.747
278.807
279.096
279.386
279.772
280.18
280.601
281.033
281.521
282.139
282.964
284.071
285.525
287.364
289.606
292.233
295.213
298.487
301.999
305.782
310.281
315.601
320.857
325.906
330.646
334.961
338.686
341.495
342.006
340.525
337.832
334.233
329.741
324.767
319.957
314.746
309.775
304.912
300.145
295.7
291.796
288.317
284.999
281.53
277.647
273.318
268.671
263.874
259.119
254.604
250.694
247.914
245.86
244.39
243.322
242.441
241.708
241.166
240.853
240.72
240.736
240.826
240.963
241.102
241.232
241.336
241.415
241.476
241.522
263.613
266.426
269.291
272.133
274.947
277.723
280.452
283.109
285.657
288.05
290.228
292.109
293.599
294.61
295.089
295.037
294.635
293.977
293.039
291.733
289.958
287.627
284.672
281.053
276.763
271.832
266.32
260.459
260.602
260.911
261.12
261.62
262.15
262.994
263.812
264.753
265.695
266.674
267.648
268.668
269.8
271.143
272.767
274.752
277.133
279.94
283.139
286.678
290.464
294.439
298.607
303.125
308.239
313.277
318.104
322.703
327.058
331.063
334.347
335.071
333.662
331.08
327.634
323.28
318.438
313.69
308.566
303.682
299.023
294.519
290.348
286.823
283.793
280.975
277.998
274.571
270.665
266.401
261.943
257.46
253.137
249.325
246.566
244.51
243.075
242.12
241.433
240.896
240.523
240.359
240.349
240.463
240.627
240.814
240.988
241.144
241.271
241.371
241.449
241.508
259.102
261.542
264.006
266.43
268.811
271.143
273.427
275.651
277.785
279.799
281.662
283.32
284.689
285.664
286.124
285.96
285.129
283.694
281.871
279.687
277.037
273.771
269.748
264.867
259.076
252.394
244.896
236.836
237.363
238.352
239.081
240.402
241.6
243.28
244.794
246.452
248.01
249.608
251.17
252.765
254.45
256.339
258.501
261.026
263.944
267.295
271.048
275.154
279.5
283.98
288.529
293.354
298.334
303.236
307.909
312.432
316.945
321.456
325.559
326.687
325.527
323.219
320.139
316.1
311.575
307.018
302.069
297.315
292.856
288.573
284.736
281.576
278.987
276.625
274.076
271.061
267.548
263.66
259.551
255.367
251.271
247.594
244.879
242.824
241.415
240.567
240.084
239.789
239.632
239.656
239.812
240.059
240.328
240.59
240.819
241.016
241.178
241.308
241.41
241.485
249.616
251.593
253.564
255.487
257.354
259.165
260.914
262.595
264.193
265.7
267.099
268.37
269.473
270.347
270.898
270.993
270.472
269.185
267.073
264.179
260.768
256.828
252.159
246.556
239.852
231.982
223.035
213.374
213.247
214.263
215.134
216.931
218.669
221.028
223.235
225.662
227.966
230.326
232.568
234.814
237.07
239.47
242.025
244.919
248.203
251.933
256.083
260.612
265.392
270.292
275.164
280.102
284.731
289.471
294.112
298.62
303.399
308.757
314.477
316.551
315.884
314.034
311.52
307.888
303.753
299.487
294.87
290.39
286.192
282.144
278.668
275.915
273.755
271.801
269.628
266.993
263.864
260.366
256.636
252.798
248.992
245.511
242.873
240.836
239.452
238.706
238.423
238.394
238.486
238.72
239.055
239.457
239.862
240.235
240.552
240.814
241.029
241.202
241.342
241.443
235.622
237.168
238.691
240.163
241.577
242.933
244.221
245.443
246.593
247.671
248.667
249.579
250.39
251.081
251.611
251.917
251.889
251.369
250.156
248.07
245.101
241.369
236.952
231.62
225.316
217.893
209.523
201.048
197.838
197.28
197.331
198.561
200.054
202.236
204.448
206.954
209.397
211.942
214.346
216.764
219.148
221.687
224.391
227.422
230.819
234.661
238.923
243.577
248.517
253.6
258.594
263.457
267.411
271.14
274.846
278.885
283.855
290.011
297.302
300.708
301.153
300.432
299.123
296.676
293.646
290.353
286.521
282.599
278.843
275.181
272.024
269.796
268.05
266.442
264.575
262.28
259.521
256.425
253.108
249.673
246.233
243.041
240.569
238.582
237.214
236.559
236.45
236.642
236.948
237.386
237.924
238.519
239.105
239.64
240.094
240.466
240.767
241.011
241.21
241.359
218.525
219.823
221.099
222.342
223.541
224.704
225.822
226.905
227.947
228.956
229.927
230.869
231.778
232.662
233.519
234.348
235.128
235.82
236.317
236.427
235.876
234.408
232.096
229.219
225.725
221.833
218.409
217.025
205.93
200.472
197.921
196.619
196.481
196.771
197.625
198.701
199.974
201.337
202.705
204.115
205.577
207.194
209.062
211.241
213.808
216.837
220.366
224.369
228.771
233.414
238.041
242.465
245.715
248.686
252.235
256.737
261.673
267.109
274.519
279.336
281.058
281.882
282.426
281.907
280.517
278.807
276.137
273.537
270.843
267.991
265.316
263.522
262.159
261.136
259.762
257.751
255.299
252.527
249.563
246.497
243.431
240.518
238.134
236.124
234.679
233.983
233.938
234.33
234.868
235.541
236.314
237.144
237.961
238.715
239.371
239.915
240.354
240.704
240.989
241.205
201.36
202.825
204.308
205.809
207.316
208.851
210.404
212
213.632
215.323
217.071
218.904
220.824
222.862
225.031
227.369
229.902
232.674
235.703
239.003
242.481
245.939
249.139
252.3
256.191
261.308
268.423
284.381
260.66
247.46
240.843
235.226
232.086
228.78
226.824
224.721
223.17
221.369
219.82
218.137
216.715
215.467
214.352
213.361
212.633
212.319
212.507
213.268
214.635
216.612
219.143
222.209
225.581
229.158
233.193
237.786
241.005
243.773
246.901
251.322
253.934
256.641
259.087
261.139
262.713
264.4
265.408
266.18
265.956
264.755
262.877
261.084
259.972
258.884
257.6
255.783
253.591
251.073
248.321
245.339
242.318
239.35
236.637
234.251
232.431
231.602
231.561
232.062
232.807
233.688
234.661
235.692
236.718
237.687
238.559
239.302
239.909
240.38
240.741
241.003
189.025
191.326
193.75
196.28
198.924
201.711
204.646
207.767
211.082
214.639
218.451
222.581
227.049
231.941
237.311
243.297
250.013
257.666
266.448
276.654
288.472
302.061
316.997
332.478
348.382
365.558
381.51
427.18
399.991
384.117
371.137
361.636
353.011
345.694
338.728
332.596
326.177
319.823
312.83
305.647
298.117
290.754
283.472
276.774
269.883
262.89
256.263
250.099
244.658
239.856
235.793
232.359
232.134
232.774
233.459
235.262
239.91
242.571
230.376
226.394
229.675
233.687
237.045
240.811
245.316
250.221
256.082
262.9
270.465
276.263
279.263
279.651
279.885
279.308
277.679
275.299
272.469
269.315
266.069
262.765
259.419
255.851
251.637
247.625
244.084
241.833
240.56
239.879
240.021
240.258
240.52
240.895
241.336
241.713
242.024
242.182
242.196
242.037
241.743
241.313
176.411
179.204
182.108
185.066
188.132
191.285
194.573
197.983
201.554
205.283
209.207
213.337
217.716
222.375
227.366
232.728
238.496
244.725
251.499
258.975
267.427
277.235
288.994
303.441
322.239
348.686
395.288
510.398
557.696
583.257
604.277
617.536
630.387
638.178
645.464
648.919
651.875
651.653
650.277
645.346
638.401
627.908
615.428
600.201
583.791
566.403
548.471
530.533
513.012
496.561
481.304
467.554
456.35
445.107
435.049
425.323
411.457
389.063
368.64
355.766
346.349
336.648
328.191
320.812
314.344
308.763
304.395
301.692
301.277
303.888
308.019
314.42
321.167
328.568
336.162
343.673
351.118
358.21
365.153
372.222
379.248
385.971
389.985
393.406
396.557
397.882
397.044
395.049
392.039
387.984
382.924
376.584
368.965
359.949
349.339
336.914
322.441
305.686
286.4
264.316
110.534
102.555
102.457
102.442
102.443
102.439
102.434
102.429
102.423
102.419
102.415
102.412
102.41
102.408
102.407
102.406
102.405
102.405
102.405
102.406
118.156
102.378
102.049
102.025
102.025
102.021
102.017
102.012
102.007
102.003
102
101.998
101.996
101.995
101.994
101.994
101.994
101.994
101.995
101.996
125.332
102.272
101.657
101.617
101.615
101.612
101.608
101.603
101.599
101.595
101.593
101.591
101.59
101.59
101.59
101.59
101.591
101.592
101.593
101.595
132.081
102.22
101.281
101.218
101.214
101.211
101.208
101.203
101.199
101.196
101.194
101.193
101.193
101.194
101.194
101.195
101.197
101.198
101.2
101.202
138.422
102.206
100.919
100.828
100.821
100.818
100.815
100.811
100.807
100.805
100.803
100.803
100.804
100.805
100.806
100.808
100.81
100.812
100.815
100.817
144.37
102.222
100.571
100.446
100.435
100.432
100.429
100.425
100.422
100.42
100.419
100.42
100.421
100.423
100.426
100.428
100.431
100.434
100.437
100.44
149.943
102.255
100.233
100.07
100.055
100.053
100.05
100.046
100.043
100.042
100.042
100.043
100.045
100.048
100.051
100.055
100.059
100.062
100.066
100.069
155.162
102.293
99.904
99.702
99.6818
99.6791
99.676
99.6728
99.6702
99.6694
99.6702
99.6724
99.6754
99.6793
99.6836
99.6883
99.6926
99.6969
99.7014
99.7054
160.051
102.324
99.5823
99.3402
99.3146
99.3116
99.3086
99.3056
99.3033
99.3031
99.3047
99.3078
99.3119
99.317
99.3223
99.3278
99.333
99.3381
99.3433
99.3478
164.628
102.337
99.266
98.9849
98.9538
98.9502
98.9474
98.9444
98.9424
98.9429
98.9454
98.9494
98.9547
98.9608
98.9673
98.9737
98.9799
98.9857
98.9915
98.9966
168.918
102.325
98.9532
98.6359
98.5993
98.5951
98.5922
98.5892
98.5875
98.5887
98.5921
98.5972
98.6036
98.6108
98.6185
98.6259
98.633
98.6396
98.6461
98.6518
172.934
102.284
98.6426
98.2931
98.2514
98.2466
98.2434
98.2401
98.2388
98.2407
98.245
98.2512
98.2587
98.2672
98.276
98.2845
98.2926
98.2999
98.3072
98.3134
176.698
102.208
98.333
97.9563
97.9103
97.9047
97.9011
97.8974
97.8964
97.8991
97.9044
97.9117
97.9204
97.9301
97.9399
97.9496
97.9586
97.9668
97.9748
97.9816
180.221
102.096
98.0236
97.6258
97.5765
97.5701
97.5656
97.5614
97.5608
97.5642
97.5704
97.5788
97.5888
97.5996
97.6106
97.6214
97.6313
97.6403
97.6492
97.6566
183.52
101.947
97.714
97.3019
97.2505
97.2431
97.2374
97.2324
97.2321
97.2363
97.2435
97.253
97.2641
97.2761
97.2883
97.3002
97.3111
97.3208
97.3305
97.3385
186.587
101.776
97.4045
96.9854
96.9331
96.9246
96.917
96.911
96.9111
96.9159
96.9241
96.9346
96.9469
96.9601
96.9734
96.9863
96.9982
97.0088
97.0191
97.0277
189.435
101.58
97.0958
96.6773
96.6253
96.6154
96.6051
96.5979
96.5984
96.6039
96.6128
96.6244
96.6377
96.6521
96.6666
96.6804
96.6932
96.7046
96.7156
96.7248
192.07
101.359
96.7892
96.3794
96.3288
96.3168
96.3028
96.2942
96.295
96.3009
96.3106
96.3231
96.3374
96.3529
96.3684
96.3832
96.3969
96.4089
96.4207
96.4305
194.497
101.112
96.486
96.0941
96.0451
96.0303
96.0111
96.0012
96.0021
96.0083
96.0185
96.0317
96.0469
96.0633
96.0799
96.0955
96.11
96.1226
96.1352
96.1456
196.711
100.84
96.1893
95.8251
95.7768
95.7577
95.7318
95.7209
95.7213
95.7274
95.7378
95.7516
95.7676
95.7847
95.802
95.8185
95.8336
95.8467
95.8602
95.8711
198.706
100.539
95.9022
95.5776
95.5263
95.5012
95.4673
95.4556
95.4547
95.4601
95.4705
95.4843
95.5008
95.5184
95.5363
95.5534
95.5691
95.5825
95.5967
95.6083
200.467
100.208
95.6302
95.3588
95.2967
95.264
95.2208
95.208
95.2048
95.2089
95.2185
95.232
95.2484
95.2663
95.2845
95.3019
95.318
95.3315
95.3464
95.3586
201.989
99.8389
95.3775
95.1789
95.0906
95.0504
94.9971
94.982
94.9748
94.9765
94.9844
94.9969
95.0126
95.0303
95.0484
95.0658
95.082
95.0955
95.1108
95.1237
203.45
99.4387
95.1476
95.051
94.912
94.8668
94.8021
94.7823
94.7687
94.7666
94.7715
94.7818
94.7962
94.8129
94.8304
94.8474
94.8632
94.8764
94.8919
94.9055
205.337
99.0535
94.9391
94.9888
94.7678
94.7224
94.6432
94.6146
94.5915
94.5834
94.5834
94.5903
94.6019
94.6167
94.6328
94.6487
94.6637
94.6762
94.6917
94.7061
207.702
98.7046
94.756
94.9905
94.6686
94.6285
94.528
94.4856
94.4487
94.4315
94.4241
94.4256
94.433
94.4447
94.4583
94.4725
94.486
94.4972
94.5126
94.5277
210.19
98.4987
94.6158
95.0202
94.6281
94.597
94.4653
94.403
94.3466
94.3161
94.2982
94.2917
94.293
94.2999
94.3099
94.3211
94.3325
94.3418
94.3569
94.3728
212.607
98.4454
94.5409
95.0693
94.656
94.6309
94.4645
94.3745
94.2923
94.2433
94.2107
94.193
94.1855
94.1858
94.1906
94.1976
94.2061
94.2126
94.2273
94.2437
214.907
98.5068
94.5295
95.1423
94.7362
94.7099
94.52
94.4042
94.2926
94.2192
94.1671
94.1343
94.115
94.1062
94.1038
94.1052
94.1096
94.1123
94.1264
94.1432
217.06
98.6725
94.5905
95.2585
94.8757
94.8364
94.6166
94.4774
94.347
94.2477
94.1728
94.1204
94.086
94.065
94.0532
94.0471
94.0461
94.044
94.0568
94.0739
219.072
98.9426
94.7367
95.435
95.077
95.0113
94.7579
94.5896
94.4358
94.3189
94.2276
94.1537
94.1019
94.0656
94.042
94.0266
94.0184
94.0105
94.0213
94.0386
220.914
99.3069
94.9701
95.6756
95.3407
95.2355
94.9459
94.7429
94.5613
94.4223
94.313
94.2254
94.1614
94.1088
94.0722
94.0459
94.0291
94.0142
94.0223
94.0396
222.52
99.7506
95.2941
95.9751
95.6668
95.5093
95.1819
94.9383
94.7247
94.5597
94.4291
94.3247
94.2467
94.184
94.139
94.1035
94.0778
94.0562
94.0615
94.0786
223.796
100.264
95.6976
96.3252
96.0533
95.8323
95.4662
95.1761
94.9265
94.7315
94.5765
94.4525
94.3583
94.2832
94.2283
94.1858
94.1558
94.1323
94.1363
94.1539
224.669
100.867
96.1679
96.7193
96.4969
96.2028
95.7982
95.4557
95.1668
94.9373
94.755
94.6085
94.4961
94.4068
94.3405
94.2897
94.2543
94.2281
94.2332
94.2535
225.085
101.558
96.6915
97.1525
96.9919
96.6182
96.1762
95.7755
95.4446
95.1767
94.9641
94.7925
94.6595
94.5541
94.4749
94.4147
94.3732
94.3437
94.3497
94.3726
225.017
102.305
97.2578
97.6216
97.5317
97.0758
96.5973
96.1334
95.758
95.448
95.2026
95.0031
94.8475
94.7241
94.6307
94.5601
94.5115
94.4781
94.4847
94.5104
224.446
103.113
97.8591
98.1232
98.1095
97.5725
97.0577
96.5267
96.1051
95.7495
95.4687
95.2388
95.0587
94.9156
94.8067
94.7246
94.6682
94.6305
94.6376
94.6665
223.375
103.981
98.4916
98.6541
98.7191
98.1052
97.5534
96.9528
96.4831
96.0789
95.7605
95.4978
95.2914
95.127
95.0012
94.9066
94.842
94.7996
94.8071
94.8393
221.796
104.916
99.1514
99.2121
99.355
98.671
98.0802
97.4087
96.889
96.4336
96.0755
95.7779
95.5434
95.3561
95.2123
95.1043
95.0309
94.9835
94.9914
95.0271
219.717
105.918
99.8402
99.7953
100.012
99.2669
98.6346
97.8918
97.3199
96.8111
96.411
96.0766
95.8125
95.6008
95.4379
95.3157
95.2327
95.1799
95.188
95.2272
217.135
106.997
100.554
100.404
100.686
99.8898
99.2131
98.3993
97.7724
97.2084
96.7642
96.3915
96.0959
95.8587
95.6757
95.5385
95.4456
95.387
95.3952
95.4383
214.06
108.147
101.295
101.038
101.373
100.537
99.8125
98.9281
98.2437
97.6228
97.1324
96.7196
96.3912
96.1272
95.9231
95.7701
95.6668
95.6023
95.6106
95.6576
210.493
109.37
102.061
101.695
102.07
101.205
100.429
99.4759
98.7305
98.0514
97.5126
97.0583
96.6954
96.4034
96.1773
96.0078
95.8933
95.8228
95.831
95.8824
206.449
110.667
102.858
102.372
102.772
101.893
101.059
100.041
99.2292
98.4916
97.9015
97.4041
97.0054
96.6844
96.4353
96.2487
96.1228
96.0462
96.0544
96.1093
201.93
112.05
103.688
103.071
103.478
102.596
101.699
100.62
99.7371
98.9398
98.2959
97.754
97.318
96.967
96.6942
96.4901
96.3527
96.2699
96.278
96.3364
196.952
113.56
104.556
103.789
104.187
103.307
102.351
101.207
100.252
99.3928
98.6934
98.1054
97.6308
97.2487
96.9516
96.7295
96.5803
96.4911
96.4992
96.5608
191.498
115.172
105.47
104.523
104.897
104.02
103.01
101.801
100.773
99.8486
99.0918
98.4559
97.9415
97.5273
97.2051
96.9642
96.8027
96.7071
96.7148
96.7789
185.579
116.936
106.446
105.269
105.603
104.729
103.673
102.399
101.297
100.305
99.4891
98.8036
98.248
97.8006
97.4522
97.1922
97.018
96.9159
96.9229
96.9892
179.158
118.834
107.489
106.036
106.3
105.435
104.336
102.999
101.822
100.761
99.8836
99.1465
98.5481
98.0663
97.691
97.411
97.2238
97.1148
97.1209
97.189
172.232
120.873
108.608
106.827
106.985
106.133
104.996
103.598
102.346
101.215
100.273
99.4825
98.8397
98.3223
97.9192
97.6185
97.4176
97.3014
97.3063
97.3754
164.76
123.007
109.793
107.644
107.656
106.82
105.648
104.193
102.866
101.662
100.655
99.8093
99.1207
98.5664
98.1346
97.8123
97.5971
97.4733
97.476
97.5452
156.758
124.899
110.86
108.465
108.315
107.492
106.282
104.773
103.371
102.096
101.023
100.121
99.3867
98.7951
98.334
97.9902
97.7605
97.6288
97.6291
97.6977
148.461
126.287
111.72
109.255
108.953
108.144
106.892
105.33
103.855
102.509
101.371
100.415
99.634
99.0055
98.5156
98.1502
97.906
97.7663
97.7633
97.8292
140.162
127.257
112.385
109.989
109.56
108.77
107.472
105.86
104.313
102.898
101.697
100.686
99.861
99.196
98.6775
98.2907
98.0317
97.8824
97.8727
97.9295
132.064
127.923
112.882
110.647
110.128
109.365
108.018
106.359
104.743
103.261
101.999
100.935
100.066
99.3651
98.8185
98.4098
98.1338
97.9695
97.942
97.9848
124.312
128.359
113.232
111.221
110.65
109.921
108.527
106.825
105.142
103.596
102.274
101.159
100.247
99.5112
98.9363
98.5035
98.2021
98.0108
97.9667
97.997
116.982
128.646
113.454
111.708
111.123
110.433
108.994
107.254
105.506
103.901
102.521
101.357
100.403
99.6326
99.0273
98.5595
98.2242
98.0085
97.948
97.9662
110.137
128.854
113.543
112.109
111.545
110.898
109.417
107.642
105.832
104.171
102.737
101.525
100.532
99.7257
99.0794
98.5693
98.2024
97.9633
97.8866
97.8935
103.818
129.002
113.537
112.431
111.918
111.313
109.796
107.99
106.121
104.407
102.921
101.665
100.632
99.7823
99.0849
98.5352
98.1381
97.8765
97.7838
97.7801
98.0314
129.134
113.45
112.682
112.243
111.679
110.132
108.295
106.372
104.61
103.073
101.775
100.7
99.7919
99.0469
98.4593
98.0331
97.7502
97.6419
97.6281
92.759
129.302
113.297
112.872
112.522
111.997
110.424
108.559
106.585
104.777
103.194
101.854
100.722
99.7584
98.9681
98.3443
97.8903
97.5869
97.4636
97.4401
87.9956
129.528
113.087
113.009
112.76
112.267
110.674
108.783
106.762
104.912
103.284
101.897
100.701
99.6854
98.852
98.1936
97.7129
97.39
97.252
97.2193
83.8228
129.724
112.869
113.086
112.96
112.487
110.884
108.968
106.906
105.016
103.345
101.898
100.642
99.5775
98.7028
98.0115
97.5053
97.1637
97.0112
96.9698
80.2909
129.826
112.665
113.106
113.123
112.663
111.056
109.115
107.018
105.09
103.373
101.864
100.551
99.439
98.5252
97.8026
97.2717
96.9122
96.7453
96.6955
77.3738
129.853
112.484
113.086
113.252
112.799
111.192
109.228
107.1
105.138
103.365
101.798
100.432
99.2752