/*--------------------------------*- C++ -*----------------------------------*\
  =========                 |
  \\      /  F ield         | OpenFOAM: The Open Source CFD Toolbox
   \\    /   O peration     | Website:  https://openfoam.org
    \\  /    A nd           | Version:  7
     \\/     M anipulation  |
\*---------------------------------------------------------------------------*/
FoamFile
{
    version     2.0;
    format      ascii;
    class       volScalarField;
    location    "0.1175";
    object      omega;
}
// * * * * * * * * * * * * * * * * * * * * * * * * * * * * * * * * * * * * * //

dimensions      [0 0 -1 0 0 0 0];

internalField   nonuniform List<scalar> 
48560
(
1929.06
1983.1
2042.87
2107.04
2175.81
2249.41
2328.08
2412.08
2501.68
2597.21
2699
2807.43
2922.93
3045.97
3177.04
3316.75
3465.71
3624.64
3794.34
3975.68
4169.68
4377.47
4600.31
4839.69
5097.3
5375.09
5675.37
6001.02
6479.2
7009.05
7595.61
8245
8963.13
9757.39
10635.9
11615
12714.7
13967.1
15414.6
17127.3
19204
21761.8
24993.4
29167
34719.9
42162.9
51013.5
59567.4
65747.4
68708.3
65886.3
60630.2
58974.4
57345.7
55779.5
54362.8
52938.1
51649.1
49788.8
47568.5
44816.3
41667.8
36303.2
32309.7
31213.4
25921.8
25960.7
26228.9
26741.3
27642.7
28985.9
30800.9
33091.4
35861.3
39124
42880.1
47099.2
51636.1
56030.6
59348.6
59434.2
55502.9
57819.7
59634.6
60967.1
61610.7
61472.3
60926.9
60067.5
59127.4
58129.6
57033
55834.6
54538
53139.5
51627.1
49982.6
48179.2
46177.9
43928.8
2609.37
2678.17
2754.48
2836.51
2924.57
3018.84
3119.61
3227.12
3341.72
3463.69
3593.45
3731.4
3878.03
4033.86
4199.48
4375.52
4562.7
4761.8
4973.64
5199.08
5439.17
5694.98
5967.76
6258.77
6569.41
6901.09
7255.35
7634.11
8202.3
8824.97
9510.84
10267.7
11109.6
12052.7
13124.9
14363.8
15810.5
17521.2
19562
22021
25028.9
28698.2
33082.7
37899.9
42535.8
45815.2
46719
44565.9
40205.4
34788.2
28320.7
17708.5
18883.6
19866.4
20595.9
21417.1
22245.2
23250.7
24463.8
25647
27061.5
28517.6
30376.6
30928.3
31387.4
31867
31377.6
30982.7
30687.5
30318.6
30067.3
29875.2
29811.6
29824.5
29903.1
29969.2
29869.6
29349.9
28247.9
27247.1
23600.7
14359.8
15980.1
17000.9
17587.5
17869.9
17075.9
14965
13303.2
11769.3
10616.4
9751.64
8989.69
8247.52
7556.87
6867.81
6166.16
5341.3
4355.22
3043.75
3569.93
3656.03
3751.79
3854.74
3965.42
4083.78
4210.28
4344.9
4488.1
4639.98
4801.09
4971.66
5152.29
5343.33
5545.4
5758.93
5984.59
6222.89
6474.6
6740.59
7021.86
7319.51
7634.94
7969.62
8325.3
8703.96
9108
9541.02
10205.8
10946.5
11778.1
12716.9
13784.8
15007.9
16420.5
18061.2
19978.8
22221
24819.5
27720.5
30812.6
33713.2
36005.1
37131.6
36691.7
34596.2
31377.9
27465.7
23590.4
19900.2
16014.5
11375.4
12048.1
12694.2
13252.2
13819
14435.9
15112.8
15932.9
16682.6
17508.1
18403.5
19517.8
20091.5
20280.5
20970.5
20496.4
19861.9
19657
19262.9
19007.2
18663.8
18407.5
18069.8
17733.2
17274.9
16671.1
15818
14841.1
13528.2
10277.2
6242.56
6702.65
7010.2
7119.81
6938.33
6246.97
5332.32
4644.88
4122.05
3750.73
3433.49
3155.5
2883.28
2615.66
2336.91
2040.7
1737.43
1458.84
1210.45
4732.74
4836.14
4950.67
5073.49
5205.2
5345.74
5495.55
5654.59
5823.34
6001.96
6191.15
6391.27
6603.1
6827.12
7064.21
7315.02
7580.61
7861.96
8160.49
8477.65
8815.03
9174.49
9558.22
9968.51
10408.4
10881.2
11390.9
11943.4
12784.8
13728.8
14791.7
15992.1
17349.3
18879.8
20591.9
22470.4
24457.2
26441.6
28241.2
29686.4
30513.7
30547.4
29733.8
28143.6
25849.7
23095.3
20196.2
17422.5
15000.7
12786.9
10545
8296.74
8726.41
9153.42
9522.62
9917.55
10325.6
10796.7
11338.5
11837.3
12322.1
12872.4
13531.4
13891.2
13984.4
14480.2
13991.1
13510.7
13225.3
12830.3
12493.8
12114.9
11777.5
11381
10964.4
10449.8
9834.52
9074.4
8241.15
7126.29
5125.68
3465.09
3582.06
3636.06
3564.67
3349.37
2973.48
2584.53
2296.32
2084.63
1927.75
1795.27
1677.84
1566
1457.07
1349.68
1244.35
1151.55
1082.9
1037.16
5939.5
6066.35
6206.47
6356.6
6517.32
6688.9
6871.91
7066.68
7273.95
7494.26
7728.49
7977.36
8241.91
8523.05
8822.03
9139.97
9478.33
9838.5
10222.2
10631.2
11067.5
11533.3
12031.7
12565.7
13138.7
13754.4
14416.1
15128.4
16149.8
17264.4
18452.6
19704.7
20977.4
22224
23386.9
24381.7
25112.4
25492.4
25451.5
25025.6
24159.9
22898.3
21264.1
19354.5
17287.1
15236.7
13343.8
11704.1
10284.9
8954.27
7646.21
6425.69
6711.37
6984.95
7227.55
7487.38
7750.48
8063.35
8417.47
8732.74
9010.37
9342.1
9741.36
9962.1
10015.5
10313.2
9870.28
9499.62
9163.51
8782.17
8406.77
8031.98
7672.49
7291.15
6892.75
6448.67
5962.12
5432.07
4852.54
4070.03
2974.47
2237.07
2245.66
2221.62
2136.85
1995.08
1801.53
1621.38
1485.27
1388.9
1317.92
1261.79
1214.2
1171.48
1132.71
1097.6
1067.4
1043.93
1028.06
1018.33
7356.28
7511.1
7684.07
7870.46
8071.29
8286.43
8516.92
8762.93
9025.67
9305.55
9603.94
9921.51
10259.8
10619.8
11003
11410.6
11843.9
12303.3
12788.7
13300.1
13836.2
14395
14972.8
15565.8
16168.3
16775
17379.7
17979.9
18716.4
19417.9
20031.3
20547.2
20913.8
21124.5
21155.1
21001
20639.3
20074
19298.5
18325.3
17155.4
15838.9
14427.8
12999.8
11627.5
10376.4
9291.85
8356.07
7504.59
6681.25
5895.64
5164.98
5353.75
5533.96
5697.21
5870.12
6043.53
6252.09
6485.06
6680.18
6830.27
7015.66
7241.54
7356.24
7364.33
7512.15
7142.45
6832.05
6505.67
6160.1
5809.08
5478.69
5163.61
4851.77
4537.09
4209.02
3857.39
3485.91
3081.13
2583.04
2003.15
1653.16
1629.77
1593.84
1539.57
1459.99
1363.81
1279.98
1214.98
1168.95
1134.35
1108.1
1086.44
1068.56
1053.44
1040.99
1031.23
1024
1019.02
1015.57
9132.72
9310.16
9511.77
9731.02
9969.68
10226.3
10502
10795.1
11106.3
11433.7
11777.6
12135.8
12507.6
12889.9
13280.6
13675.7
14072.2
14465.9
14853.2
15227.5
15584.3
15916.8
16220.4
16489.3
16719.3
16906.9
17050.4
17151.6
17236
17253.3
17189
17046.5
16815.4
16501.2
16082.7
15564.9
14944.1
14230.3
13424.8
12546.9
11619.9
10680.8
9764.24
8902.93
8119.42
7431.96
6830.59
6282.23
5753.34
5244.66
4763.8
4312.56
4438.78
4559.46
4669.23
4781.59
4894.54
5027.26
5176.65
5285.43
5352.24
5437.19
5548.74
5587.59
5557.16
5605.75
5306.56
5039.94
4752.16
4455.77
4159.8
3891.78
3644.77
3411.36
3183.26
2953.57
2712.3
2461.28
2186.93
1882.65
1580.66
1407.53
1377.49
1344.5
1304.5
1255.51
1202.68
1157.66
1121.81
1095.6
1075.34
1060.17
1048.21
1039.15
1032.14
1026.71
1022.49
1019.22
1016.76
1014.79
10849.2
11024.7
11216.3
11419.9
11633
11854.6
12081.8
12311.9
12541.6
12767.9
12987.9
13198.2
13396
13577.7
13740.5
13881.4
13998.5
14090.1
14156.2
14193.9
14202.9
14181.2
14128.5
14043.3
13925.2
13772.8
13584.9
13361.6
13159.3
12918
12636.8
12315.7
11957.6
11564.9
11126.5
10646.4
10130.5
9587.34
9023.22
8452.54
7891.6
7354.97
6853.24
6396.33
5985.18
5615.47
5272.14
4938.22
4612.4
4302.72
4006.09
3725.5
3809.9
3890.28
3962.94
4034.09
4103.86
4183.6
4272.19
4321.98
4332.55
4350.21
4383.36
4370.44
4313.3
4303.8
4066.16
3844.34
3607.95
3370.86
3140.96
2940.82
2762.1
2598.04
2438.51
2276.6
2105.33
1928.9
1744.09
1559.35
1395.09
1297.03
1266.32
1236.61
1205.5
1172.08
1138.62
1109.75
1086.15
1068.03
1053.89
1043.24
1035.15
1029.22
1024.85
1021.65
1019.19
1017.21
1015.65
1014.33
11166.8
11263.5
11358.3
11452.5
11540.4
11623.8
11697.9
11763.3
11816.4
11857.5
11884.1
11896.4
11892.7
11872.7
11835
11778.9
11703
11606.2
11487
11344.8
11178.4
10987.2
10770.5
10527.6
10258.2
9961.81
9638.39
9290.17
9053.81
8804.52
8542.88
8270.91
7993.05
7711.98
7419.06
7116.88
6810.18
6502.35
6198.43
5902.56
5619.95
5353.72
5105.96
4876.21
4661.93
4456.13
4252.19
4051.62
3859.23
3674.27
3495.19
3325.73
3382.75
3436.49
3483.61
3526.4
3565.6
3607.29
3651.7
3659.93
3633.03
3605.77
3587.29
3540.68
3468.46
3427.87
3241.99
3063.47
2877.88
2695.97
2524.54
2379.36
2251.76
2135.28
2020.83
1903.61
1780.32
1653.93
1526.92
1408.73
1308.22
1241.19
1210.97
1183.75
1157.82
1132.12
1107.29
1085.6
1067.58
1053.45
1042.48
1034.31
1028.27
1024.02
1020.99
1018.83
1017.19
1015.88
1014.85
1013.98
9820.28
9839.1
9853.1
9863.3
9865.96
9861.68
9847.36
9823.24
9787.08
9739.06
9677.66
9603.01
9513.84
9409.84
9289.82
9153.25
8999.19
8827.24
8636.9
8428.18
8201.12
7956.19
7694.03
7415.64
7122.27
6815.5
6497.24
6171.81
6013.53
5857.85
5702.94
5550.98
5403.88
5262.58
5119.42
4975.28
4831.91
4689.97
4551.06
4415.9
4285.72
4160.7
4040.97
3925.69
3811.63
3697.02
3582.65
3471.08
3362.92
3257.02
3154.49
3058.15
3096.99
3132.95
3162.75
3186.24
3204.1
3219.07
3231.77
3211.51
3159.88
3103.29
3051.18
2983.41
2903.5
2847.4
2701.9
2560.19
2416.49
2278.22
2151.05
2044.96
1952.24
1866.87
1781.62
1693.27
1600.82
1506.83
1415.04
1331.22
1258.96
1205.12
1176.28
1151.65
1129.37
1108.11
1087.87
1070.14
1055.31
1043.71
1034.75
1028.25
1023.56
1020.41
1018.23
1016.77
1015.68
1014.85
1014.21
1013.7
7947.43
7940.6
7928.94
7911.77
7887.04
7853.72
7810.16
7755.73
7689.39
7610.93
7519.85
7416.19
7299.68
7170.29
7027.8
6872.31
6703.96
6523.22
6330.7
6127.37
5914.37
5693.09
5465.12
5232.22
4996.33
4759.51
4523.89
4293.64
4218.2
4148.13
4080.08
4015.71
3954.95
3898.52
3840.78
3782.33
3723.36
3664.36
3605.66
3547.75
3490.72
3434.66
3379.26
3323.84
3267.85
3211.88
3155.96
3099.76
3043.17
2987.47
2934.31
2885.52
2912.16
2936.05
2953.92
2964.02
2966.7
2962.62
2952.48
2912.56
2844.66
2769.04
2695.31
2613.97
2529.77
2465.82
2349.28
2235.38
2122.23
2014.67
1917.47
1836.61
1765.93
1700.25
1634.44
1566.25
1495.02
1422.1
1350.96
1284.87
1225.81
1178.71
1151.16
1128.57
1108.88
1090.6
1073.35
1058.31
1045.75
1036.07
1028.68
1023.51
1019.87
1017.57
1016.05
1015.12
1014.46
1014
1013.69
1013.48
6296.1
6280.86
6260.16
6233.4
6199.28
6156.74
6104.83
6043
5970.87
5888.46
5795.9
5693.62
5582.05
5461.68
5332.94
5196.36
5052.58
4902.54
4747.2
4587.75
4425.47
4261.73
4097.88
3935.45
3775.93
3620.93
3471.97
3331.96
3301.75
3275.51
3250.11
3226.79
3205.06
3185.74
3165.4
3144.53
3122.97
3101.06
3078.75
3056.42
3034.14
3012.14
2990.15
2967.91
2945.73
2923.19
2899.54
2874.71
2849.11
2824.32
2801.88
2782.97
2800.89
2815.97
2824.98
2825.01
2815.95
2797.31
2769.73
2715.63
2636.53
2548.15
2460.02
2369.18
2281.49
2212.68
2115
2020.36
1927.75
1840.25
1762.28
1697.36
1640.99
1588.72
1536.78
1482.99
1426.41
1367.36
1308.72
1252.42
1200.45
1157.58
1131.2
1110.25
1092.6
1076.62
1061.67
1048.73
1038
1029.89
1023.8
1019.7
1016.91
1015.29
1014.27
1013.76
1013.44
1013.3
1013.25
1013.29
5042.61
5021.89
4996.48
4966.52
4931.18
4889.76
4841.6
4786.35
4723.79
4654.09
4577.54
4494.76
4406.4
4313.24
4215.84
4114.8
4010.75
3904.46
3796.7
3688.35
3580.38
3473.96
3370.12
3269.96
3174.69
3085.39
3003.07
2929.17
2916.91
2906.85
2896.6
2887.28
2878.54
2870.93
2862.96
2854.83
2846.29
2837.44
2828.21
2818.94
2809.82
2801.22
2793.17
2785.77
2778.67
2771.64
2764.32
2756.6
2748.62
2741.77
2737.38
2736.41
2747.45
2755.38
2756.9
2748.13
2728.5
2696.92
2654.13
2588.57
2500.83
2402.98
2304.27
2205.67
2113.84
2040.45
1953.9
1871.91
1792.57
1717.78
1652.09
1597.59
1551.15
1508.77
1467.33
1424.22
1378.03
1328.64
1278.19
1228.11
1180.86
1141.1
1115.44
1095.64
1079.55
1065.44
1052.38
1041.15
1031.94
1025.08
1020.05
1016.78
1014.64
1013.5
1012.88
1012.67
1012.62
1012.71
1012.88
1013.13
4172.03
4151.39
4127.69
4101.56
4072.56
4040.28
4004.26
3964.2
3919.84
3871.23
3818.54
3762.31
3703.14
3641.85
3579.15
3515.59
3451.71
3388.08
3325.33
3264.23
3205.67
3150.67
3100.19
3055.35
3017.16
2986.56
2964.43
2951.68
2939.54
2927.35
2914.54
2901.07
2886.71
2871.36
2856.42
2841.73
2827.14
2812.49
2797.95
2783.71
2770.18
2757.71
2746.77
2737.77
2731.08
2726.71
2724.41
2723.92
2724.48
2726.91
2732.11
2741.24
2746.19
2747.59
2741.86
2724.02
2693
2647.37
2588.38
2511.75
2416.34
2310.38
2202.71
2096.67
1999.51
1920.49
1839.5
1765.57
1694.9
1628.46
1571.26
1524.33
1485.54
1450.97
1417.6
1382.38
1343.59
1301.17
1256.48
1211.04
1167.47
1130.24
1104.73
1085.5
1070.46
1057.79
1046.23
1036.31
1028.24
1022.25
1017.91
1015.11
1013.32
1012.39
1011.94
1011.88
1011.99
1012.24
1012.58
1012.99
3631.26
3616.99
3601.24
3584.71
3567.22
3548.62
3528.63
3507.03
3483.58
3458.15
3430.75
3401.65
3371.3
3340.47
3310.05
3280.9
3253.57
3228.53
3206.32
3187.6
3173.09
3163.6
3160.02
3163.28
3174.31
3194.07
3223.51
3262.9
3236.02
3208.29
3180.4
3151.36
3121.13
3089
3058.17
3028.2
2998.97
2970
2941.52
2913.67
2887.01
2861.88
2838.9
2818.55
2801.46
2788.08
2778.72
2773.54
2773.77
2778.89
2788.07
2801.95
2801.21
2796.46
2783.28
2755.16
2710.32
2647.17
2568.16
2479.01
2375.31
2260.73
2143.8
2029.49
1925.6
1839.23
1759.83
1690.47
1625.74
1565.75
1515.16
1474.46
1441.83
1413.37
1385.97
1356.38
1322.89
1285.47
1245.13
1203.54
1163.27
1128.31
1102.19
1082.83
1068.2
1056.35
1045.77
1036.58
1029.02
1023.24
1018.9
1015.9
1013.83
1012.59
1011.88
1011.64
1011.68
1011.94
1012.36
1012.88
3359.35
3356.47
3353.46
3350.75
3348.33
3346.18
3344.26
3342.48
3340.74
3338.93
3336.98
3334.93
3333.01
3331.76
3331.99
3334.84
3341.63
3353.02
3369.35
3391.03
3418.68
3453.05
3495.2
3546.51
3608.5
3682.83
3771.37
3874.9
3819.08
3763.14
3709.1
3653.59
3597.24
3537.72
3480.92
3425.61
3371.79
3318.81
3266.7
3215.51
3166.25
3119.37
3075.73
3035.87
3000.57
2970.3
2945.69
2927.22
2915.38
2911.67
2919.25
2933.38
2927.09
2916.38
2895.27
2854.79
2791.76
2704.06
2596.06
2490.51
2377.71
2253.73
2126.87
2003.36
1891.53
1795.53
1714.34
1646.32
1585.99
1532.32
1487.67
1452.62
1424.76
1400.45
1376.69
1350.46
1320.47
1286.61
1249.85
1211.87
1175.13
1142.59
1115
1094.65
1079.62
1067.7
1057.16
1047.68
1039.47
1032.58
1026.85
1022.26
1018.61
1015.87
1013.93
1012.73
1012.12
1012.01
1012.29
1012.81
3309.23
3322.06
3336.12
3351.33
3367.77
3385.52
3404.71
3425.37
3447.55
3471.3
3496.67
3523.68
3552.42
3583.1
3616.25
3652.82
3694.55
3743.22
3800.19
3865.7
3940.27
4024.99
4121.56
4232.43
4360.84
4510.66
4686.35
4891.14
4782.57
4679.43
4584.27
4488.46
4393.37
4293.37
4198.17
4104.94
4013.54
3923.23
3834.15
3746.4
3661.29
3579.56
3502.41
3430.71
3365.62
3307.89
3258.42
3217.75
3186.62
3165.76
3155.94
3162.62
3150.82
3135.6
3107.89
3053.95
2967.36
2845.08
2695.19
2567.79
2443.07
2306.11
2166.18
2030.09
1908.01
1799.01
1713.27
1644.01
1587.56
1541.03
1502.98
1473.42
1448.86
1426.23
1403.33
1377.98
1349.53
1317.85
1284.1
1249.86
1217.42
1187.96
1157.81
1135.38
1118.87
1105.55
1093.36
1081.61
1070.49
1059.98
1050.14
1041.22
1033.37
1026.75
1021.43
1017.44
1014.72
1013.18
1012.64
1012.84
3456.81
3489.85
3525.66
3563.53
3603.63
3646.11
3691.21
3739.08
3789.86
3843.76
3901.09
3962.08
4027
4096.1
4169.81
4248.81
4333.83
4427.28
4532.51
4652.01
4788.14
4942.23
5116.75
5315.71
5545.38
5814.89
6135.85
6518.77
6311.06
6125.76
5965.04
5805.23
5652.2
5490.93
5339.02
5189.44
5042.97
4897.26
4752.49
4609.41
4469.46
4333.68
4203.61
4081.03
3967.93
3865.39
3775.16
3698.15
3635.59
3588.12
3556.91
3542.36
3525.36
3505.43
3470.95
3401.86
3283.66
3108.58
2888.82
2727.42
2590.35
2438.21
2284.61
2134.6
2002.63
1877.48
1784.88
1711.93
1658.44
1620.33
1592.02
1568.3
1545.6
1521.44
1495.62
1467.61
1437.91
1406.5
1374.87
1344.54
1317.5
1292.07
1257.69
1231.45
1211.73
1194.75
1177.76
1159.86
1141.65
1123.15
1104.59
1086.75
1070.28
1055.49
1042.61
1031.92
1023.61
1017.82
1014.49
1013.23
3803.94
3862.76
3926.32
3993.15
4063.52
4137.66
4215.93
4298.67
4386.18
4478.84
4577.18
4681.73
4793.13
4912.02
5039.23
5175.63
5322.51
5481.49
5655.42
5850.43
6073.58
6330.5
6626.15
6968.11
7369.33
7846.79
8426.72
9141.52
8751.33
8421.4
8161.06
7899.44
7662
7405.96
7169.51
6932.14
6701.49
6469.53
6238.41
6007.23
5779.55
5556.24
5341
5135.63
4943.6
4766.03
4606.27
4466.12
4348.29
4253.45
4182.93
4137.52
4117.49
4100.06
4069.81
3994.13
3839.67
3588.74
3262.34
3054.29
2903.65
2729.28
2555.91
2382.23
2233.91
2084.73
1983.24
1905.09
1854.19
1827.79
1815.12
1798.78
1777.38
1749.13
1716.45
1680.93
1645.74
1611.09
1579.14
1551.65
1530.08
1508.26
1464.91
1430.62
1403.63
1377.81
1349.55
1317.54
1284.33
1251.05
1217.91
1185.31
1153.97
1124.28
1096.63
1071.74
1050.42
1033.5
1021.67
1015.16
4384.34
4477.02
4577.1
4682.23
4792.8
4909.23
5032.12
5162.06
5299.68
5445.63
5600.77
5766.04
5942.6
6131.75
6335.06
6554.35
6791.94
7050.68
7334.66
7650.29
8007.06
8420.99
8908.55
9486.37
10176.1
11015.2
12063.9
13418.5
12693.2
12110.2
11715.4
11306.5
10961
10570.4
10219.2
9851.75
9495.64
9127.1
8761.04
8387.73
8016.95
7646.19
7285.56
6935.38
6603.3
6291.9
6007.93
5755.1
5538.77
5360.55
5223.35
5128.26
5110.86
5112.2
5104.19
5024.25
4811.51
4423.8
3873.16
3583.95
3434.67
3245.4
3056
2865.14
2708.74
2539.32
2432.69
2347.07
2297.49
2289.02
2300.9
2294.33
2273.03
2241.46
2199.4
2148.83
2100.74
2055.91
2017.76
1988.51
1968.79
1946.4
1883.63
1832.72
1789.66
1742.73
1689.43
1631.8
1574.21
1516.83
1459.61
1402.48
1345.29
1288.38
1232.54
1178.77
1128.7
1084.36
1048.42
1023.82
5278.58
5418.18
5569.1
5727.95
5895.41
6072.3
6259.58
6458.27
6669.52
6894.63
7135.14
7392.88
7669.98
7968.92
8292.64
8644.56
9028.85
9450.5
9915.95
10433.6
11015.7
11683.1
12473.2
13433.5
14615.3
16098.1
18026.2
20657.7
19258.9
18195
17603.7
16965.6
16488.9
15910.2
15425.1
14881.5
14365.9
13803.8
13249.8
12663.5
12083.1
11488
10890.9
10292.7
9711.3
9153.63
8636.29
8167.44
7759.94
7418.51
7150.44
6957.92
6946.98
6986.72
7021.53
7005.94
6766.67
6139.24
5088.68
4643.19
4509.69
4310.34
4102.64
3885.57
3703.7
3491.27
3356.71
3251.87
3197.9
3217.51
3269.26
3292.74
3282.48
3258.74
3218.06
3160.67
3101.98
3044.33
2995.07
2959.13
2937.74
2908.02
2798.73
2706.44
2628.49
2545.88
2452.72
2348.07
2249.31
2147.66
2043.29
1935.95
1826.22
1713.56
1598.82
1482.47
1366.62
1254.12
1150.33
1064.04
6627.11
6835.16
7060.76
7299.29
7551.89
7820.17
8105.67
8410.36
8736.26
9085.93
9462.17
9868.45
10308.7
10787.6
11310.8
11884.9
12518.1
13220
14002.8
14881.7
15876.7
17016.6
18350.2
19973
22035.4
24731
28340.2
33647.3
31008.5
29079.9
28190.8
27189.7
26539.6
25699.2
25051
24274.4
23564
22736
21935.8
21050.6
20186
19289
18363.4
17384.3
16385.4
15384.7
14418.9
13506.8
12688.1
11981.2
11408.4
10969.4
10949.5
11068.9
11238.1
11381.2
11333.7
10315.9
7764.63
6700.89
6597.15
6418.58
6171.92
5924.7
5750.96
5521.28
5404.14
5314.21
5261.91
5335.23
5451.67
5541.53
5570.87
5566.24
5538.76
5494.44
5442.72
5386.99
5342.52
5319.5
5317.93
5299.26
5116.08
4963.75
4842
4728.42
4568.75
4357.8
4159.34
3949.82
3732.04
3504.47
3270.24
3023.65
2765.77
2492.63
2205.29
1902.97
1590.17
1276.09
8525.84
8824.92
9150.37
9495.94
9863.99
10257.1
10678.1
11130.6
11618.4
12146.2
12719.4
13344.9
14030.4
14786
15624
16560.2
17613.9
18809.9
20178.9
21761.1
23601.8
25754.8
28285
31317.3
35149.7
40357.2
47629.4
58822.7
54745.1
51919.2
50419.5
48892
47800.8
46560.4
45558.4
44475.1
43452.7
42310.6
41152.3
39870.9
38557.3
37180.6
35787.8
34353.5
32817.9
31146.2
29432
27706.1
26055.4
24536.5
23225.8
22162.4
22012.8
22230.1
22662.9
23215.3
23840.7
22685.4
16212.3
12879.5
12776
12676
12301.4
11890.1
11700.6
11353.4
11206.7
11238.9
11316.9
11669.6
12091.6
12363.9
12515.9
12591.1
12603.2
12574.4
12558.1
12550.8
12586
12687.4
12834.6
12959.9
12760.5
12640
12604.7
12576.2
12269.5
11792.9
11398.9
10945.6
10435
9878.59
9305.32
8681.12
8015.8
7273.81
6446.74
5492.51
4375.82
2969.71
10640.2
11008.2
11406.9
11827.5
12274.8
12750
13258.1
13801.8
14386.7
15017.3
15701.1
16445
17259.6
18156.2
19150.1
20258.8
21505.3
22919.5
24543.4
26434.6
28674.9
31376.2
34725.9
39046.4
45026.4
54105.4
70069.7
104579
108456
109931
110775
110716
110428
109587
108719
107547
106357
104933
103442
101695
99817
97690.2
95436.3
92994.7
90484.6
87918.8
85328.2
82752
80221.4
77785.6
75453.3
73825.9
73041.2
72239.9
71522.2
70820.4
69757.1
67930.1
63716.7
60515.4
57917.7
55282.3
52974.9
51165.8
49537.8
48313.5
47564.7
46930.2
46574.7
45994.2
45193.6
44732.2
44563.9
44641.6
44937.2
45458.3
46174.6
47114.8
48298.8
49752.2
51338.8
52316.1
52714.1
53310.9
54095.2
54932.5
55687.6
56255.8
56533.7
56508.7
56209.2
55652.5
54874
53894.4
52721.8
51355.8
49789.5
48009.7
45995.2
43714.9
14636.1
1508.92
1323.75
1318.31
1318.15
1318.12
1318.1
1318.06
1318.03
1318
1317.97
1317.94
1317.89
1317.84
1317.79
1317.75
1317.72
1317.69
1317.68
1317.67
15132.3
1680.88
1329.16
1314.33
1313.71
1313.67
1313.64
1313.61
1313.58
1313.56
1313.53
1313.49
1313.41
1313.31
1313.21
1313.12
1313.05
1313
1312.96
1312.94
15585.1
1835.8
1337.69
1310.77
1309.37
1309.29
1309.26
1309.24
1309.21
1309.2
1309.17
1309.11
1309
1308.85
1308.7
1308.57
1308.47
1308.38
1308.33
1308.3
15999.2
1977.55
1348.6
1307.68
1305.14
1304.98
1304.96
1304.94
1304.92
1304.9
1304.87
1304.8
1304.66
1304.47
1304.27
1304.1
1303.96
1303.85
1303.77
1303.73
16378.7
2109.51
1361.38
1305.07
1301.03
1300.76
1300.73
1300.71
1300.7
1300.68
1300.66
1300.57
1300.4
1300.16
1299.92
1299.71
1299.53
1299.4
1299.31
1299.25
16726.9
2239.31
1375.93
1302.94
1297.04
1296.62
1296.58
1296.56
1296.54
1296.54
1296.51
1296.4
1296.2
1295.93
1295.64
1295.39
1295.18
1295.02
1294.91
1294.85
17046.7
2375.6
1392.39
1301.31
1293.17
1292.55
1292.49
1292.47
1292.46
1292.45
1292.42
1292.31
1292.08
1291.77
1291.44
1291.15
1290.91
1290.72
1290.6
1290.53
17340.8
2520.16
1410.75
1300.17
1289.44
1288.54
1288.46
1288.44
1288.43
1288.43
1288.4
1288.28
1288.02
1287.67
1287.3
1286.98
1286.7
1286.49
1286.35
1286.27
17611.9
2670.14
1430.82
1299.53
1285.85
1284.61
1284.5
1284.48
1284.47
1284.47
1284.44
1284.31
1284.02
1283.64
1283.23
1282.87
1282.56
1282.33
1282.17
1282.09
17862
2821.93
1452.39
1299.38
1282.4
1280.75
1280.6
1280.57
1280.56
1280.57
1280.54
1280.4
1280.09
1279.67
1279.22
1278.82
1278.49
1278.23
1278.06
1277.97
18093.2
2972.49
1475.16
1299.7
1279.09
1276.96
1276.76
1276.73
1276.72
1276.73
1276.7
1276.54
1276.22
1275.76
1275.28
1274.84
1274.48
1274.2
1274.01
1273.91
18307
3119.68
1498.85
1300.47
1275.94
1273.25
1272.98
1272.94
1272.93
1272.94
1272.92
1272.75
1272.4
1271.92
1271.4
1270.93
1270.54
1270.24
1270.03
1269.92
18505.2
3261.8
1523.18
1301.66
1272.95
1269.62
1269.27
1269.22
1269.21
1269.22
1269.19
1269.02
1268.65
1268.13
1267.58
1267.08
1266.66
1266.33
1266.11
1266
18688.8
3397.79
1547.9
1303.25
1270.11
1266.08
1265.63
1265.56
1265.55
1265.56
1265.53
1265.35
1264.96
1264.41
1263.83
1263.29
1262.84
1262.5
1262.26
1262.14
18859
3527.26
1572.79
1305.19
1267.44
1262.62
1262.05
1261.96
1261.95
1261.97
1261.94
1261.75
1261.34
1260.76
1260.14
1259.57
1259.09
1258.72
1258.47
1258.35
19016
3652.25
1597.65
1307.45
1264.93
1259.26
1258.55
1258.43
1258.42
1258.44
1258.41
1258.21
1257.78
1257.17
1256.52
1255.91
1255.41
1255.02
1254.75
1254.62
19160.5
3772.11
1622.31
1310.01
1262.6
1255.99
1255.12
1254.98
1254.96
1254.98
1254.95
1254.75
1254.29
1253.65
1252.96
1252.33
1251.79
1251.38
1251.1
1250.97
19293.3
3886.32
1646.6
1312.81
1260.44
1252.84
1251.78
1251.6
1251.59
1251.61
1251.57
1251.35
1250.88
1250.21
1249.48
1248.82
1248.25
1247.82
1247.52
1247.38
19414.8
3994.26
1670.32
1315.85
1258.46
1249.81
1248.54
1248.32
1248.3
1248.31
1248.27
1248.04
1247.55
1246.84
1246.08
1245.38
1244.79
1244.33
1244.02
1243.87
19525
4095.44
1693.31
1319.08
1256.67
1246.91
1245.39
1245.14
1245.11
1245.12
1245.07
1244.83
1244.3
1243.57
1242.77
1242.03
1241.41
1240.92
1240.59
1240.45
19623.8
4189
1715.37
1322.49
1255.08
1244.15
1242.37
1242.07
1242.03
1242.03
1241.97
1241.71
1241.16
1240.39
1239.55
1238.77
1238.12
1237.61
1237.26
1237.11
19710.6
4274.17
1736.3
1326.09
1253.71
1241.56
1239.49
1239.15
1239.08
1239.06
1238.99
1238.71
1238.13
1237.32
1236.44
1235.62
1234.93
1234.39
1234.03
1233.87
19785.3
4349.78
1755.88
1329.89
1252.54
1239.17
1236.78
1236.39
1236.28
1236.24
1236.15
1235.84
1235.22
1234.36
1233.44
1232.58
1231.85
1231.28
1230.9
1230.73
19856.9
4419.88
1774.73
1334.09
1251.63
1237.03
1234.3
1233.83
1233.67
1233.59
1233.46
1233.12
1232.45
1231.55
1230.57
1229.66
1228.89
1228.29
1227.89
1227.71
19949.4
4497.69
1795.06
1339.19
1251.08
1235.2
1232.09
1231.51
1231.26
1231.14
1230.97
1230.58
1229.86
1228.89
1227.85
1226.89
1226.07
1225.43
1225
1224.82
20060.3
4585.32
1817.64
1345.31
1250.98
1233.78
1230.2
1229.47
1229.12
1228.92
1228.68
1228.23
1227.45
1226.41
1225.3
1224.27
1223.4
1222.7
1222.25
1222.06
20170.4
4696.02
1843.33
1352.12
1251.39
1232.87
1228.71
1227.78
1227.27
1226.97
1226.65
1226.11
1225.25
1224.12
1222.92
1221.82
1220.89
1220.14
1219.66
1219.46
20270.2
4825.16
1877.57
1361.04
1252.7
1232.59
1227.69
1226.48
1225.77
1225.33
1224.89
1224.25
1223.28
1222.05
1220.75
1219.56
1218.55
1217.75
1217.23
1217.03
20357.8
4965.37
1920.32
1372.51
1255.22
1233.04
1227.22
1225.63
1224.66
1224.05
1223.45
1222.68
1221.58
1220.22
1218.8
1217.51
1216.42
1215.54
1214.99
1214.77
20431.9
5114.34
1971.42
1386.83
1259.16
1234.35
1227.4
1225.29
1223.99
1223.15
1222.37
1221.43
1220.17
1218.66
1217.1
1215.68
1214.5
1213.54
1212.95
1212.71
20492.9
5270.23
2029.48
1404.02
1264.68
1236.62
1228.32
1225.55
1223.82
1222.68
1221.67
1220.53
1219.09
1217.39
1215.66
1214.1
1212.81
1211.76
1211.11
1210.85
20539.9
5429.25
2092.82
1423.91
1271.92
1239.92
1230.09
1226.48
1224.21
1222.69
1221.38
1220
1218.33
1216.43
1214.51
1212.79
1211.36
1210.21
1209.5
1209.22
20570
5586.81
2160.54
1446.39
1281.02
1244.34
1232.8
1228.16
1225.23
1223.22
1221.54
1219.85
1217.91
1215.77
1213.64
1211.74
1210.16
1208.9
1208.13
1207.82
20579
5740.28
2232.19
1471.39
1292.07
1249.96
1236.51
1230.63
1226.92
1224.33
1222.21
1220.14
1217.87
1215.44
1213.06
1210.95
1209.22
1207.83
1206.98
1206.65
20565.6
5891.46
2308.55
1499.15
1305.19
1256.8
1241.29
1233.94
1229.34
1226.04
1223.39
1220.89
1218.23
1215.46
1212.79
1210.45
1208.52
1206.98
1206.07
1205.7
20526.5
6040.2
2389.96
1529.9
1320.41
1264.91
1247.15
1238.1
1232.49
1228.38
1225.12
1222.1
1219
1215.84
1212.85
1210.23
1208.09
1206.38
1205.38
1204.97
20459
6183
2475.77
1563.73
1337.67
1274.28
1254.09
1243.09
1236.38
1231.33
1227.39
1223.78
1220.18
1216.58
1213.21
1210.29
1207.91
1206.03
1204.93
1204.48
20364.3
6320.87
2566.31
1600.93
1356.98
1284.91
1262.05
1248.9
1240.99
1234.89
1230.19
1225.91
1221.75
1217.66
1213.88
1210.63
1207.99
1205.91
1204.69
1204.21
20242.9
6452.98
2661.76
1641.83
1378.33
1296.82
1270.99
1255.48
1246.29
1239.03
1233.49
1228.48
1223.69
1219.06
1214.83
1211.22
1208.3
1206
1204.67
1204.14
20094.8
6582.61
2762.6
1686.79
1401.8
1310.03
1280.82
1262.79
1252.21
1243.7
1237.26
1231.44
1225.98
1220.77
1216.06
1212.05
1208.82
1206.29
1204.83
1204.26
19920.6
6714.04
2869.67
1736.28
1427.45
1324.56
1291.5
1270.78
1258.71
1248.86
1241.45
1234.76
1228.58
1222.74
1217.5
1213.07
1209.53
1206.76
1205.15
1204.54
19720.2
6852.18
2983.77
1790.8
1455.45
1340.45
1302.97
1279.39
1265.71
1254.45
1245.99
1238.39
1231.43
1224.92
1219.14
1214.27
1210.39
1207.36
1205.61
1204.94
19494.5
6999.01
3105.95
1851.03
1486.02
1357.77
1315.18
1288.57
1273.14
1260.41
1250.84
1242.27
1234.49
1227.27
1220.91
1215.58
1211.36
1208.06
1206.15
1205.43
19243.3
7155.64
3237.15
1917.64
1519.47
1376.61
1328.09
1298.27
1280.93
1266.67
1255.92
1246.33
1237.68
1229.74
1222.78
1216.99
1212.39
1208.82
1206.75
1205.97
18967.6
7322.21
3378.73
1991.57
1556.21
1397.16
1341.66
1308.48
1288.99
1273.16
1261.16
1250.51
1240.97
1232.28
1224.7
1218.42
1213.45
1209.59
1207.36
1206.52
18667.1
7500.51
3531.72
2073.75
1596.78
1419.6
1355.96
1319.12
1297.25
1279.81
1266.47
1254.74
1244.28
1234.81
1226.61
1219.83
1214.48
1210.34
1207.94
1207.03
18342.6
7696.45
3698.03
2165.55
1641.93
1444.06
1371.09
1330.1
1305.68
1286.53
1271.82
1258.96
1247.55
1237.3
1228.46
1221.17
1215.45
1211.02
1208.45
1207.47
17993
7906.35
3879.21
2268.76
1692.54
1470.77
1387.13
1341.43
1314.25
1293.28
1277.14
1263.12
1250.75
1239.7
1230.22
1222.43
1216.31
1211.6
1208.86
1207.8
17626
8138.2
4080.27
2385.61
1749.95
1500.31
1404.27
1353.13
1322.94
1300.03
1282.4
1267.19
1253.82
1241.99
1231.86
1223.55
1217.05
1212.05
1209.12
1207.99
17225.7
8386.68
4300.73
2517.22
1815.07
1533.27
1422.69
1365.26
1331.73
1306.75
1287.56
1271.13
1256.76
1244.12
1233.33
1224.51
1217.61
1212.33
1209.22
1207.99
16794.8
8654.46
4542.58
2665.66
1889.22
1570.37
1442.66
1377.88
1340.62
1313.41
1292.6
1274.9
1259.51
1246.05
1234.61
1225.27
1217.98
1212.41
1209.12
1207.79
16307.8
8926.64
4800.24
2829.14
1972.32
1611.84
1464.29
1391.04
1349.57
1319.97
1297.46
1278.46
1262.05
1247.76
1235.67
1225.82
1218.13
1212.28
1208.8
1207.37
15648.4
9136.89
5030.83
2986.17
2055.42
1654.28
1486.34
1404.18
1358.29
1326.22
1301.98
1281.69
1264.26
1249.18
1236.45
1226.1
1218.03
1211.91
1208.24
1206.72
14915.5
9266.25
5213.57
3122.88
2131.52
1694.67
1507.56
1416.77
1366.52
1332
1306.07
1284.5
1266.09
1250.24
1236.91
1226.08
1217.65
1211.27
1207.43
1205.8
14207.7
9331.34
5352.53
3237.66
2198.71
1731.81
1527.37
1428.55
1374.12
1337.22
1309.65
1286.87
1267.51
1250.92
1237.02
1225.74
1216.98
1210.37
1206.35
1204.62
13547.8
9350.4
5455.57
3332.24
2256.91
1765.21
1545.46
1439.37
1380.99
1341.85
1312.71
1288.75
1268.5
1251.22
1236.79
1225.1
1216.02
1209.17
1205
1203.17
12937.5
9335.75
5529.05
3408.5
2306.39
1794.62
1561.61
1449.1
1387.07
1345.83
1315.21
1290.14
1269.05
1251.14
1236.21
1224.13
1214.75
1207.69
1203.37
1201.47
12375.1
9296.46
5576.77
3467.8
2347.32
1819.79
1575.64
1457.62
1392.29
1349.13
1317.11
1291.02
1269.16
1250.66
1235.27
1222.83
1213.18
1205.94
1201.5
1199.52
11854
9234.66
5596.97
3508.54
2378.49
1839.96
1587.17
1464.71
1396.54
1351.69
1318.39
1291.37
1268.8
1249.77
1233.97
1221.21
1211.33
1203.92
1199.37
1197.33
11392.8
9159.85
5598.97
3535.84
2402.19
1856.02
1596.53
1470.49
1399.87
1353.53
1319.08
1291.22
1268.01
1248.5
1232.33
1219.29
1209.19
1201.65
1196.99
1194.91
10978
9076.74
5584.86
3550.93
2418.79
1868.12
1603.79
1474.98
1402.31
1354.68
1319.19
1290.58
1266.81
1246.87
1230.38
1217.09
1206.81
1199.14
1194.39
1192.26
10607.1
8989.33
5556.31
3554.79
2428.9
1876.47
1609
1478.2
1403.89
1355.16
1318.75
1289.48
1265.21
1244.91
1228.14
1214.63
1204.18
1196.4
1191.58
1189.42
10278.9
8898.82
5514.03
3548.27
2433.16
1881.75
1612.56
1480.34
1404.7
1355.03
1317.81
1287.97
1263.28
1242.65
1225.63
1211.93
1201.34
1193.47
1188.59
1186.39
9997.74
8801.57
5460.66
3535.19
2434
1884.98
1614.98
1481.64
1404.89
1354.39
1316.47
1286.13
1261.05
1240.14
1222.89
1209.03
1198.31
1190.37
1185.42
1183.2
9767.01
8694.08
5400.77
3516.21
2431.47
1886.26
1616.32
1482.16
1404.51
1353.3
1314.78
1284.01
1258.58
1237.41
1219.97
1205.96
1195.14
1187.13
1182.13
1179.88
9585.84
8578.79
5334.77
3491.76
2425.7
1885.72
1616.64
1481.96
1403.63
1351.82
1312.79
1281.65
1255.91
1234.51
1216.9
1202.76
1191.84
1183.77
1178.72
1176.46
9459.14
8451.89
5261.86
3461.59
2416.53
1883.3
1615.93