/*--------------------------------*- C++ -*----------------------------------*\
  =========                 |
  \\      /  F ield         | OpenFOAM: The Open Source CFD Toolbox
   \\    /   O peration     | Website:  https://openfoam.org
    \\  /    A nd           | Version:  7
     \\/     M anipulation  |
\*---------------------------------------------------------------------------*/
FoamFile
{
    version     2.0;
    format      ascii;
    class       surfaceScalarField;
    location    "0.1175";
    object      phi;
}
// * * * * * * * * * * * * * * * * * * * * * * * * * * * * * * * * * * * * * //

dimensions      [1 0 -1 0 0 0 0];

internalField   nonuniform List<scalar> 
96484
(
-0.00143596
-0.00141421
-0.00139337
-0.00137345
-0.00135435
-0.00133602
-0.00131836
-0.00130133
-0.00128485
-0.00126889
-0.00125342
-0.0012384
-0.00122379
-0.00120954
-0.00119562
-0.00118196
-0.00116852
-0.00115525
-0.0011421
-0.00112905
-0.00111605
-0.00110309
-0.00109012
-0.00107711
-0.00106404
-0.00105087
-0.00103759
-0.00103258
-0.00102654
-0.00101923
-0.00101024
-0.000999035
-0.000984994
-0.000967865
-0.000947685
-0.000924487
-0.000899233
-0.000872728
-0.000847585
-0.000824172
-0.000800835
-0.000777618
-0.000753533
-0.000731157
-0.000714195
-0.000721289
-0.000771233
-0.000863301
-0.000997981
-0.00121566
-0.00164751
-0.00154508
-0.00142836
-0.00138104
-0.00130641
-0.00124785
-0.00116709
-0.00108331
-0.000994341
-0.000901582
-0.000788817
-0.000657825
-0.00057266
-0.000548863
-0.000463551
-0.000478938
-0.000516768
-0.000538103
-0.000569269
-0.000607686
-0.000654801
-0.000707472
-0.000767333
-0.000831989
-0.000901417
-0.000976396
-0.00105579
-0.00113009
-0.00120497
-0.00145101
-0.0019222
-0.00163042
-0.00151396
-0.00146335
-0.00145717
-0.00150283
-0.00159733
-0.00165963
-0.00170834
-0.00173316
-0.00174215
-0.0017459
-0.00174919
-0.00175103
-0.00175367
-0.00175621
-0.00175928
-0.00175964
-0.0017492
0.000140346
0.000150679
-0.0014886
0.00015643
-0.00146858
0.00016179
-0.0014494
0.00016671
-0.00143107
0.000171252
-0.00141345
0.00017542
-0.00139652
0.000179275
-0.00138017
0.000182858
-0.00136441
0.000186229
-0.00134919
0.000189434
-0.00133454
0.000192495
-0.0013204
0.000195454
-0.00130679
0.000198316
-0.00129361
0.00020112
-0.00128084
0.000203863
-0.00126835
0.000206579
-0.00125606
0.000209267
-0.00124388
0.000211962
-0.00123174
0.000214671
-0.00121954
0.000217422
-0.00120726
0.000220212
-0.00119485
0.000223053
-0.0011823
0.000225945
-0.00116958
0.000228895
-0.00115661
0.000231903
-0.00114331
0.000234801
-0.00112957
0.000337727
-0.00111526
0.00034262
-0.00110076
0.000346521
-0.00108391
0.000349689
-0.0010649
0.000351732
-0.00104354
0.000352746
-0.00102009
0.000352884
-0.000994949
0.000352058
-0.000969983
0.000349802
-0.000945757
0.000346687
-0.000923405
0.000342266
-0.00090202
0.000338297
-0.000881253
0.000334462
-0.000861578
0.000326484
-0.000842538
0.000317972
-0.000828195
0.000304433
-0.000822117
0.000290775
-0.000831887
0.00028029
-0.00086756
0.000276241
-0.000936301
0.000270313
-0.00102516
0.000258454
-0.00112304
0.000263978
-0.00122516
0.000309775
-0.00134289
0.000530789
-0.00150772
-0.000102426
-0.00167139
-0.000116724
-0.00159265
-4.73236e-05
-0.00154073
-7.46268e-05
-0.00149445
-5.85565e-05
-0.00144657
-8.07674e-05
-0.00139876
-8.37796e-05
-0.00134043
-8.89651e-05
-0.00127853
-9.27587e-05
-0.00122007
-0.000112765
-0.00116984
-0.000130992
-0.0011061
-8.51653e-05
-0.00102951
-2.37968e-05
-0.000983226
-8.53121e-05
-0.000972768
1.53877e-05
-0.000907369
3.78291e-05
-0.000949912
2.13351e-05
-0.000999899
3.11664e-05
-0.00103321
3.84165e-05
-0.00108244
4.71155e-05
-0.00112606
5.26713e-05
-0.00117203
5.98604e-05
-0.00121406
6.46561e-05
-0.00125562
6.9428e-05
-0.00129445
7.49788e-05
-0.00133137
7.93926e-05
-0.00136378
7.43005e-05
-0.00138897
7.48836e-05
-0.00141529
0.000246034
-0.00148139
0.000471195
-0.00161438
-0.00029178
-0.00164571
-0.000116461
-0.00164446
-5.06114e-05
-0.00160676
-6.17372e-06
-0.00159326
4.56521e-05
-0.0016148
9.45018e-05
-0.00165906
6.23002e-05
-0.00168681
4.87118e-05
-0.00171719
2.48202e-05
-0.00173319
8.99502e-06
-0.0017413
3.7435e-06
-0.00175091
3.28749e-06
-0.00175376
1.84054e-06
-0.00175477
2.64512e-06
-0.00175347
2.54122e-06
-0.00175159
3.06953e-06
-0.00174789
3.62085e-07
-0.0017417
-1.04449e-05
-0.00173171
-2.55788e-05
-0.00171751
0.000120009
0.000130662
-0.00157444
0.000137246
-0.00155742
0.000143466
-0.00154103
0.000149087
-0.00152529
0.000154325
-0.00151008
0.000159062
-0.00149538
0.000163519
-0.00148109
0.00016764
-0.00146723
0.000171576
-0.0014538
0.000175296
-0.00144084
0.00017888
-0.00142828
0.000182281
-0.00141607
0.000185541
-0.00140411
0.000188628
-0.00139234
0.000191582
-0.00138064
0.000194399
-0.00136899
0.000197121
-0.00135727
0.000199768
-0.00134544
0.000202389
-0.00133343
0.000205011
-0.00132118
0.000207665
-0.00130859
0.000210327
-0.00129562
0.000212975
-0.00128205
0.000215599
-0.00126801
0.000218161
-0.00125343
0.000220494
-0.00123847
0.000323221
-0.0012232
0.000325779
-0.00119781
0.000327507
-0.00117212
0.000328328
-0.00114645
0.000328284
-0.00112095
0.000327604
-0.00109531
0.000327918
-0.00106899
0.000327831
-0.00104399
0.00032745
-0.00102008
0.000325302
-0.000997615
0.000321499
-0.000978922
0.000318622
-0.000965793
0.000315422
-0.000961449
0.000312141
-0.000970921
0.000311895
-0.00099986
0.000314203
-0.00105196
0.000326448
-0.00112535
0.000349032
-0.00120692
0.000365101
-0.00127613
0.000368191
-0.00132722
0.000360575
-0.00137316
0.000381707
-0.00142558
0.00047461
-0.00149888
0.000694458
-0.00158818
-0.00018117
-0.00164612
-0.000168638
-0.00160773
-9.36091e-05
-0.0015817
-0.000122502
-0.00154542
-0.000106371
-0.00150618
-0.000139097
-0.0014682
-0.000145675
-0.00141915
-0.00014743
-0.00137024
-0.000142985
-0.0013268
-0.000176504
-0.00129606
-0.000207583
-0.00125536
-0.000131452
-0.00120966
-3.42543e-05
-0.00118415
-0.000150712
-0.00117354
5.79309e-05
-0.00114267
8.78168e-05
-0.00118982
5.46493e-05
-0.00122212
8.03882e-05
-0.00125928
8.20423e-05
-0.00130273
9.30799e-05
-0.00133985
9.47013e-05
-0.0013735
0.000101429
-0.00139805
0.000103477
-0.00141917
0.00010635
-0.00143391
0.000107389
-0.00144475
0.000104588
-0.00145043
0.000100613
-0.00145459
0.000140985
-0.00147534
0.000379032
-0.00154905
0.000502524
-0.00164234
-0.000293039
-0.00162536
-0.00015416
-0.00161757
-6.41045e-05
-0.00159582
1.53615e-05
-0.00159296
8.99168e-05
-0.00162485
0.000122244
-0.00165976
9.26802e-05
-0.00167737
6.47178e-05
-0.00169807
3.2929e-05
-0.00170883
1.86073e-05
-0.00171677
6.59382e-06
-0.00171886
4.29455e-06
-0.00172103
5.35687e-07
-0.0017207
7.72079e-07
-0.0017213
-1.16593e-06
-0.00172048
-3.11766e-06
-0.0017179
-9.62397e-06
-0.00171103
-2.46454e-05
-0.00169949
-4.19952e-05
-0.00168658
0.000102781
0.000113644
-0.00163002
0.00012085
-0.00161503
0.000127734
-0.00160015
0.000133871
-0.0015857
0.000139629
-0.00157145
0.000144768
-0.00155767
0.000149663
-0.00154421
0.000154204
-0.00153128
0.000158621
-0.00151869
0.000162732
-0.00150649
0.000166676
-0.00149454
0.000170316
-0.0014829
0.000173767
-0.0014715
0.000176937
-0.00146042
0.000179924
-0.00144964
0.000182678
-0.00143924
0.00018529
-0.00142919
0.000187761
-0.00141951
0.000190144
-0.00141008
0.000192422
-0.00140081
0.000194694
-0.00139155
0.00019676
-0.00138224
0.000198926
-0.00137287
0.000201023
-0.00136332
0.000203201
-0.0013536
0.000205227
-0.00134373
0.000297828
-0.00133378
0.000300093
-0.00130688
0.000301836
-0.00127964
0.000302821
-0.00125257
0.000302649
-0.0012262
0.000301283
-0.001202
0.000302914
-0.0011807
0.000303929
-0.00116327
0.000304981
-0.00115213
0.000306609
-0.00115089
0.000308369
-0.00116193
0.000314279
-0.00118877
0.000324894
-0.00123019
0.00034108
-0.00128157
0.000363999
-0.00134086
0.000387589
-0.00139327
0.000408012
-0.00143309
0.000418249
-0.00145797
0.000416186
-0.00147087
0.000414136
-0.00148124
0.000412993
-0.00149086
0.000455012
-0.00152206
0.000563904
-0.00156874
0.0007524
-0.0016158
-0.000219555
-0.00162482
-0.000194669
-0.00160274
-0.000129891
-0.00159227
-0.000161745
-0.00156018
-0.000144354
-0.00153661
-0.000188144
-0.00150196
-0.000194579
-0.0014668
-0.000190879
-0.00142427
-0.00017372
-0.00139573
-0.000217207
-0.00137657
-0.000253277
-0.00135407
-0.000156969
-0.00132685
-4.4864e-05
-0.0013104
-0.000181576
-0.00129319
0.000105073
-0.00128852
0.000120118
-0.00132665
9.18172e-05
-0.00134327
0.000123832
-0.00138003
0.000119162
-0.00141163
0.000126732
-0.00144369
0.000119247
-0.00146787
0.000122557
-0.00148493
0.000118218
-0.001497
0.000117189
-0.00150342
0.000113063
-0.00150621
0.000108749
-0.00150526
0.000121368
-0.00150822
0.000214696
-0.00153167
0.00047232
-0.00158588
0.000485538
-0.00161869
-0.00030082
-0.00159645
-0.000175912
-0.00160599
-6.69651e-05
-0.00161003
4.72491e-05
-0.00162814
0.000124829
-0.00164764
0.000139854
-0.00166219
0.000113383
-0.00167033
7.54786e-05
-0.00167868
4.08668e-05
-0.00168283
2.06906e-05
-0.00168803
8.76737e-06
-0.00169036
3.96902e-06
-0.00169144
1.13305e-06
-0.00169056
-4.99048e-08
-0.00168864
-3.74142e-06
-0.00168522
-9.99252e-06
-0.00168089
-2.11589e-05
-0.00167427
-3.75623e-05
-0.00166538
-5.40665e-05
-0.00165597
8.79401e-05
9.86566e-05
-0.00164897
0.000105967
-0.0016368
0.000113289
-0.00162516
0.000119621
-0.00161392
0.000125845
-0.00160333
0.00013131
-0.00159332
0.00013673
-0.00158396
0.000141615
-0.00157518
0.000146427
-0.00156692
0.000150783
-0.00155913
0.000155036
-0.00155176
0.000158914
-0.00154477
0.000162686
-0.0015381
0.000166156
-0.00153173
0.000169523
-0.00152559
0.000172633
-0.00151969
0.000175612
-0.00151398
0.000178329
-0.00150848
0.000180871
-0.00150318
0.000183162
-0.00149811
0.00018539
-0.00149328
0.00018739
-0.00148872
0.000189372
-0.00148461
0.000191306
-0.00148108
0.000193325
-0.00147849
0.000195282
-0.001477
0.000270923
-0.00147709
0.000272858
-0.00145712
0.000274764
-0.00143991
0.000276455
-0.00142725
0.000278442
-0.00141962
0.000279989
-0.0014187
0.000285477
-0.00142596
0.000292794
-0.00144281
0.000303737
-0.00146843
0.000317647
-0.00150069
0.000335217
-0.00153662
0.000355697
-0.00157143
0.000376266
-0.00159955
0.000400371
-0.00162456
0.000416409
-0.00163496
0.000427411
-0.00163497
0.000432898
-0.00162544
0.000431142
-0.00160989
0.000426562
-0.00159424
0.000423749
-0.00158021
0.0004442
-0.00157972
0.00050169
-0.0015916
0.000610965
-0.00161157
0.000761413
-0.00162322
-0.000241628
-0.00160438
-0.000205146
-0.0015983
-0.000161973
-0.00159206
-0.000185318
-0.00157016
-0.000179008
-0.00155087
-0.000223296
-0.00152314
-0.000237112
-0.00149392
-0.000219423
-0.00145812
-0.000192874
-0.00143699
-0.000239714
-0.00142514
-0.000280493
-0.00141208
-0.000173418
-0.00139759
-6.20761e-05
-0.00138699
-0.00018624
-0.00137564
0.000143198
-0.00138284
0.000136741
-0.00140473
0.000128575
-0.00141731
0.000155436
-0.00144823
0.000151219
-0.00147239
0.000150909
-0.00149975
0.000136306
-0.0015167
0.000134634
-0.00152853
0.000124636
-0.00153403
0.000119973
-0.00153496
0.000112113
-0.00153189
0.000111711
-0.00152769
0.000144821
-0.00153173
0.000268906
-0.00155852
0.00050513
-0.00159905
0.000463296
-0.0016
-0.000291284
-0.00157209
-0.000171864
-0.00159133
-4.88576e-05
-0.00160423
6.67488e-05
-0.00162877
0.000139381
-0.00164397
0.000147989
-0.00164912
0.000121735
-0.00165108
7.96283e-05
-0.00165392
4.60633e-05
-0.00165496
2.30234e-05
-0.00165632
9.84787e-06
-0.00165614
3.08801e-06
-0.00165677
-7.83686e-07
-0.00165629
-3.47484e-06
-0.00165571
-8.07117e-06
-0.00165257
-1.66118e-05
-0.00164741
-3.00507e-05
-0.00164022
-4.69684e-05
-0.0016327
-6.27756e-05
-0.00162583
7.59538e-05
8.64883e-05
-0.00168818
9.43298e-05
-0.00167945
0.000102051
-0.00167123
0.000109033
-0.00166348
0.000115829
-0.00165646
0.000121954
-0.00165001
0.000127947
-0.00164423
0.000133357
-0.00163897
0.000138637
-0.00163432
0.00014341
-0.00163022
0.000148047
-0.00162679
0.000152246
-0.00162401
0.000156314
-0.00162196
0.00016002
-0.00162066
0.000163616
-0.00162022
0.000166923
-0.00162072
0.000170118
-0.00162241
0.000173023
-0.00162565
0.0001758
-0.00163074
0.000178339
-0.00163814
0.000180829
-0.0016483
0.000183276
-0.00166166
0.000185847
-0.00167854
0.00018871
-0.00169917
0.000191842
-0.00172358
0.000195372
-0.001752
0.00025095
-0.00178442
0.000255651
-0.00179245
0.0002621
-0.00180323
0.000268828
-0.00181806
0.000277516
-0.00183487
0.000287253
-0.00185322
0.000302329
-0.00186992
0.000318408
-0.00188427
0.000336002
-0.00189434
0.000353578
-0.00189852
0.000370022
-0.00189549
0.000383826
-0.00188744
0.000401275
-0.00187459
0.000410767
-0.00185065
0.000416414
-0.0018203
0.00041789
-0.00178581
0.000417348
-0.00175006
0.000415486
-0.00171519
0.000412538
-0.00168133
0.000423259
-0.00165826
0.000456074
-0.00164521
0.000521659
-0.00164044
0.000622616
-0.00163654
0.000742575
-0.00162085
-0.000247708
-0.00158218
-0.000211384
-0.0015856
-0.00018388
-0.00158214
-0.000204608
-0.00156732
-0.000206732
-0.00155329
-0.000252517
-0.00153006
-0.000272912
-0.00150665
-0.000240558
-0.00147508
-0.000204719
-0.00146003
-0.00025278
-0.00145262
-0.000294977
-0.00144656
-0.000184018
-0.00143972
-7.34322e-05
-0.0014339
-0.000179041
-0.00142805
0.000165097
-0.00143894
0.00014932
-0.00144807
0.00015949
-0.00146041
0.000179598
-0.00148351
0.000178578
-0.00150361
0.000167857
-0.00152689
0.00014814
-0.00154001
0.000140128
-0.0015494
0.000125572
-0.00155187
0.000116905
-0.00155103
0.00010791
-0.00154648
0.000115754
-0.0015439
0.000171604
-0.00155111
0.000309437
-0.00157336
0.000506078
-0.0015937
0.000435388
-0.00157893
-0.000272043
-0.00155361
-0.000158963
-0.00157989
-2.43183e-05
-0.00160061
8.19498e-05
-0.00162121
0.000144531
-0.00162765
0.00014995
-0.00162796
0.000124576
-0.00162555
8.06678e-05
-0.00162376
4.7424e-05
-0.00162267
2.2846e-05
-0.00162293
1.04719e-05
-0.00162271
2.60506e-06
-0.00162302
-1.35704e-06
-0.00162178
-6.62116e-06
-0.00161994
-1.3223e-05
-0.00161682
-2.38101e-05
-0.00161241
-3.75686e-05
-0.00160667
-5.38357e-05
-0.00160099
-6.87423e-05
-0.00159621
6.72228e-05
7.77604e-05
-0.00175927
8.61109e-05
-0.00175342
9.43037e-05
-0.00174807
0.000102007
-0.00174372
0.000109382
-0.00174053
0.000116171
-0.00173885
0.000122686
-0.00173887
0.000128708
-0.00174064
0.000134544
-0.00174418
0.000139976
-0.00174957
0.000145261
-0.00175703
0.0001502
-0.00176677
0.00015502
-0.00177916
0.000159576
-0.00179448
0.000164117
-0.00181311
0.000168617
-0.00183528
0.000173351
-0.00186114
0.000178113
-0.00189066
0.000183205
-0.00192385
0.000188496
-0.0019606
0.000194189
-0.00200078
0.000200161
-0.00204417
0.000206478
-0.00209048
0.000213115
-0.00213944
0.000220262
-0.00219066
0.00022779
-0.00224361
0.000258978
-0.00229743
0.000266431
-0.00230365
0.000276937
-0.00230592
0.000285635
-0.00230358
0.00029587
-0.00229517
0.000303951
-0.00228058
0.000316681
-0.00225938
0.000328478
-0.00223427
0.000340177
-0.00220443
0.000350552
-0.00217013
0.000361973
-0.00213127
0.000370977
-0.00208824
0.000377336
-0.00204128
0.000380409
-0.0019914
0.000381928
-0.00194065
0.00038214
-0.00189052
0.000382478
-0.00184068
0.000381627
-0.00179338
0.000389472
-0.00175389
0.000410205
-0.00172153
0.000451304
-0.00169608
0.000517755
-0.00167438
0.000606935
-0.00164971
0.000703906
-0.00161341
-0.000244288
-0.00156064
-0.000214852
-0.00156957
-0.000198693
-0.00156915
-0.000218645
-0.00156038
-0.000229953
-0.00154968
-0.000275932
-0.00153143
-0.000304479
-0.00151152
-0.000255611
-0.0014843
-0.000212126
-0.00147265
-0.000258839
-0.00146886
-0.000301821
-0.00146708
-0.000189836
-0.00146607
-7.92845e-05
-0.00146397
-0.000168152
-0.00146226
0.000174228
-0.00147395
0.000161661
-0.00147646
0.00018259
-0.00148752
0.000199696
-0.00150427
0.000201859
-0.00152202
0.000180975
-0.00154133
0.000157531
-0.00155177
0.0001426
-0.00155834
0.000124729
-0.00155816
0.000112363
-0.00155524
0.000105324
-0.00154955
0.00012297
-0.0015483
0.000193848
-0.00155727
0.000329783
-0.00157411
0.000491309
-0.00157946
0.000410067
-0.00155724
-0.000245771
-0.00153494
-0.000138234
-0.00156382
-3.72313e-06
-0.00158735
8.83893e-05
-0.00160332
0.000144841
-0.00160599
0.000147538
-0.00160288
0.000122786
-0.00159696
7.95845e-05
-0.00159284
4.7685e-05
-0.00159013
2.26255e-05
-0.0015892
1.07829e-05
-0.00158862
1.36181e-06
-0.00158819
-3.19894e-06
-0.00158732
-9.74055e-06
-0.00158559
-1.76362e-05
-0.00158229
-2.95505e-05
-0.00157834
-4.32415e-05
-0.00157391
-5.86147e-05
-0.00156996
-7.25528e-05
-0.00156694
6.11318e-05
7.19013e-05
-0.00192986
8.07617e-05
-0.00193273
8.99559e-05
-0.00193747
9.88174e-05
-0.00194441
0.000107708
-0.00195387
0.000116184
-0.001966
0.000124454
-0.00198094
0.000132253
-0.00199874
0.000139936
-0.00201953
0.000147429
-0.00204325
0.000155007
-0.0020699
0.000162583
-0.00209935
0.000170349
-0.00213153
0.000178206
-0.00216624
0.000186284
-0.00220328
0.000194479
-0.00224232
0.000202867
-0.00228302
0.000211301
-0.002325
0.000219957
-0.00236811
0.000228682
-0.0024119
0.000237575
-0.00245609
0.000246469
-0.00250024
0.000255437
-0.00254411
0.000264342
-0.00258733
0.000273204
-0.00262972
0.000281615
-0.00267107
0.000265195
-0.00271133
0.000268704
-0.00268344
0.000274595
-0.00265186
0.000277229
-0.00261619
0.000281279
-0.00257723
0.00028275
-0.00253319
0.000291573
-0.00248548
0.000298637
-0.00243409
0.000305879
-0.00238065
0.000311686
-0.00232454
0.000318942
-0.00226734
0.000324022
-0.00220702
0.000327454
-0.00214593
0.000329655
-0.00208472
0.000331798
-0.00202453
0.000332304
-0.00196502
0.000335172
-0.00190929
0.000342142
-0.00185753
0.000357114
-0.00181092
0.000384757
-0.00176946
0.000429602
-0.00173208
0.000493087
-0.0016953
0.000570636
-0.00165368
0.000651135
-0.0016021
-0.000235359
-0.00153889
-0.000215277
-0.00155049
-0.000207457
-0.0015531
-0.000229353
-0.0015495
-0.000248203
-0.0015421
-0.00029584
-0.00152825
-0.000331698
-0.00151165
-0.000267255
-0.00148815
-0.000215921
-0.00147944
-0.000260621
-0.00147855
-0.000302832
-0.00148021
-0.000191932
-0.0014833
-8.09984e-05
-0.00148395
-0.000156454
-0.0014838
0.000176736
-0.0014948
0.000172716
-0.00149428
0.000199341
-0.00150313
0.000217443
-0.00151516
0.000221174
-0.00153072
0.000191409
-0.00154624
0.000164109
-0.00155441
0.000142421
-0.00155839
0.000121807
-0.00155654
0.000106676
-0.00155284
0.000104065
-0.00154804
0.000131941
-0.00154893
0.000210691
-0.00155746
0.000335134
-0.00156618
0.000469087
-0.00156146
0.00038777
-0.00153733
-0.000216896
-0.00151787
-0.000114697
-0.0015475
1.22445e-05
-0.0015704
9.10607e-05
-0.00158094
0.000141728
-0.00158108
0.000141618
-0.00157525
0.000118668
-0.00156736
7.68685e-05
-0.00156141
4.67535e-05
-0.00155759
2.20481e-05
-0.00155572
1.03589e-05
-0.00155469
4.86557e-07
-0.00155399
-4.93077e-06
-0.00155278
-1.30412e-05
-0.001551
-2.15778e-05
-0.00154827
-3.3985e-05
-0.00154509
-4.71873e-05
-0.00154191
-6.16376e-05
-0.00153943
-7.46026e-05
-0.0015379
6.26161e-05
7.47744e-05
-0.00220501
8.55019e-05
-0.00222018
9.68927e-05
-0.00223671
0.000108281
-0.00225484
0.000119841
-0.00227474
0.000131121
-0.00229649
0.000142252
-0.00232011
0.000153045
-0.00234557
0.000163659
-0.00237272
0.000174071
-0.00240136
0.000184456
-0.00243118
0.000194766
-0.00246188
0.00020506
-0.00249322
0.000215249
-0.00252496
0.000225323
-0.00255694
0.000235182
-0.00258904
0.000244843
-0.00262118
0.000254415
-0.00265327
0.000263739
-0.00268508
0.000272876
-0.0027165
0.000281728
-0.00274736
0.000290337
-0.00277757
0.000298658
-0.00280704
0.000306731
-0.0028357
0.000314551
-0.0028635
0.00032188
-0.00289042
0.000237303
-0.00291644
0.000237119
-0.00286757
0.000238929
-0.00281647
0.000238267
-0.00276287
0.000237244
-0.00270722
0.000235038
-0.002649
0.00024018
-0.00258891
0.000245197
-0.0025277
0.000249772
-0.00246578
0.000254485
-0.00240277
0.000258624
-0.00233915
0.00026293
-0.00227475
0.000266249
-0.00220994
0.000269464
-0.00214512
0.000272286
-0.00208124
0.000276574
-0.0020191
0.000283413
-0.00195958
0.000295529
-0.00190321
0.000315656
-0.00185052
0.000347383
-0.00180109
0.00039282
-0.0017534
0.000451464
-0.00170419
0.000519053
-0.0016499
0.000587925
-0.00158736
-0.000223758
-0.00151651
-0.000212662
-0.00153001
-0.000211062
-0.00153575
-0.000236755
-0.00153636
-0.000262048
-0.0015323
-0.000312444
-0.00152246
-0.000355197
-0.00150887
-0.000275966
-0.00148882
-0.000216805
-0.00148251
-0.000258961
-0.00148434
-0.000299746
-0.00148883
-0.000191281
-0.00149535
-8.11503e-05
-0.00149801
-0.000145457
-0.00149855
0.000176219
-0.00150862
0.000181568
-0.00150603
0.000211368
-0.00151196
0.000233003
-0.00152043
0.000236698
-0.00153359
0.000199575
-0.0015458
0.000168092
-0.00155191
0.000140572
-0.0015536
0.000118102
-0.00155059
0.000101877
-0.00154641
0.000104958
-0.00154256
0.000140473
-0.00154448
0.000219412
-0.00155091
0.00033041
-0.00155319
0.000444953
-0.00154241
0.000368312
-0.00151797
-0.000187261
-0.00149977
-9.17967e-05
-0.00152833
2.27868e-05
-0.00154898
9.11943e-05
-0.0015566
0.000135896
-0.00155488
0.00013373
-0.00154676
0.000112719
-0.00153741
7.305e-05
-0.00153
4.48808e-05
-0.00152532
2.10182e-05
-0.00152267
9.66484e-06
-0.00152125
-7.28741e-07
-0.00152015
-6.70566e-06
-0.0015189
-1.57752e-05
-0.00151708
-2.47625e-05
-0.00151485
-3.71622e-05
-0.00151249
-4.96684e-05
-0.0015105
-6.31633e-05
-0.00150928
-7.51673e-05
-0.00150904
7.63379e-05
8.99426e-05
-0.00246106
0.000102035
-0.00248161
0.000115027
-0.00250165
0.000128178
-0.00252141
0.000141592
-0.00254102
0.000154744
-0.00256069
0.000167714
-0.00258049
0.000180196
-0.00260054
0.000192299
-0.0026208
0.000203889
-0.00264131
0.000215159
-0.00266196
0.000226098
-0.00268265
0.000236801
-0.00270324
0.000247231
-0.0027237
0.000257419
-0.00274397
0.000267322
-0.00276406
0.00027694
-0.00278393
0.000286225
-0.00280358
0.000295158
-0.00282303
0.000303736
-0.00284228
0.000311942
-0.00286136
0.000319802
-0.0028803
0.000327316
-0.00289915
0.000334533
-0.00291794
0.000341468
-0.00293671
0.000347903
-0.00295548
0.00018843
-0.0029743
0.000186027
-0.00291958
0.000185325
-0.00286329
0.000182621
-0.00280593
0.000179019
-0.00274667
0.000174952
-0.00268634
0.000178963
-0.0026239
0.000183279
-0.00256133
0.000186767
-0.00249782
0.000190865
-0.00243422
0.000194225
-0.00236981
0.000198121
-0.00230537
0.000201426
-0.00224045
0.00020558
-0.00217588
0.000210147
-0.00211168
0.000217063
-0.00204876
0.000227043
-0.00198737
0.000242833
-0.00192815
0.000266222
-0.00187109
0.0002997
-0.00181556
0.000343613
-0.00175984
0.000397173
-0.00170175
0.000456507
-0.00163885
0.000517075
-0.0015692
-0.000210258
-0.0014933
-0.000206919
-0.00150835
-0.00021045
-0.00151721
-0.000240823
-0.00152149
-0.000271882
-0.00152087
-0.000326038
-0.00151474
-0.000375242
-0.00150416
-0.000282279
-0.0014873
-0.000214975
-0.00148328
-0.000254472
-0.00148763
-0.000293222
-0.00149467
-0.000188622
-0.00150403
-8.06125e-05
-0.00150823
-0.000135385
-0.00150904
0.000173625
-0.00151813
0.000187496
-0.00151336
0.000219845
-0.00151611
0.00024616
-0.00152176
0.000248911
-0.00153229
0.000205686
-0.00154161
0.00016978
-0.00154573
0.00013756
-0.00154553
0.000113924
-0.00154184
9.80233e-05
-0.00153777
0.00010688
-0.00153503
0.0001469
-0.00153701
0.000221691
-0.00153999
0.000319634
-0.00153711
0.00042051
-0.00152304
0.000350109
-0.00149861
-0.000158698
-0.00148075
-7.11439e-05
-0.00150726
3.04e-05
-0.00152518
8.94783e-05
-0.00153029
0.000127775
-0.001527
0.000124379
-0.00151731
0.000105312
-0.00150697
6.83727e-05
-0.0014985
4.2227e-05
-0.00149316
1.95949e-05
-0.00148985
8.57168e-06
-0.00148808
-1.98173e-06
-0.00148668
-8.52249e-06
-0.00148537
-1.80103e-05
-0.00148373
-2.71185e-05
-0.00148207
-3.91583e-05
-0.00148052
-5.08857e-05
-0.00147959
-6.33975e-05
-0.00147946
-7.44628e-05
-0.00148034
9.68913e-05
0.000110493
-0.00261611
0.000122068
-0.00263522
0.000134788
-0.00265232
0.000147785
-0.00266759
0.000161267
-0.00268127
0.000174541
-0.00269371
0.000187763
-0.00270519
0.000200459
-0.00271603
0.000212809
-0.00272644
0.000224536
-0.00273664
0.000235846
-0.00274673
0.000246689
-0.0027568
0.000257266
-0.00276677
0.000267505
-0.0027767
0.000277503
-0.00278671
0.000287189
-0.00279702
0.000296595
-0.00280752
0.000305671
-0.00281842
0.000314414
-0.00282969
0.000322812
-0.0028414
0.000330884
-0.00285346
0.000338652
-0.00286618
0.000346105
-0.00287943
0.000353302
-0.00289338
0.000360239
-0.00290793
0.000366726
-0.00292317
0.000133706
-0.00293905
0.00012974
-0.0028861
0.000127965
-0.00283185
0.000123367
-0.00277695
0.000118687
-0.00272049
0.000112512
-0.00266312
0.000116392
-0.0026039
0.000119763
-0.00254446
0.000123171
-0.00248413
0.000126455
-0.00242352
0.000129786
-0.00236214
0.000133195
-0.00230052
0.000136864
-0.00223833
0.000141372
-0.00217616
0.000147227
-0.0021139
0.000155677
-0.0020522
0.000167827
-0.00199113
0.000185769
-0.00193119
0.000210693
-0.00187176
0.000243983
-0.00181237
0.000285523
-0.00175166
0.000334268
-0.00168835
0.000386856
-0.00162068
0.000441182
-0.00154753
-0.000195208
-0.00146932
-0.000198064
-0.0014858
-0.000206165
-0.00149767
-0.00024145
-0.00150531
-0.000278013
-0.00150823
-0.000336617
-0.00150561
-0.000392104
-0.00149808
-0.000286295
-0.00148424
-0.000210624
-0.00148248
-0.000247429
-0.00148926
-0.000283867
-0.00149871
-0.000184422
-0.00151059
-7.98067e-05
-0.0015161
-0.000126286
-0.00151708
0.00016885
-0.00152512
0.000190246
-0.0015181
0.000225496
-0.00151746
0.000256691
-0.00152058
0.000258236
-0.00152832
0.000209801
-0.00153508
0.000169579
-0.00153723
0.000133867
-0.00153544
0.000109857
-0.00153124
9.52879e-05
-0.0015273
0.00010886
-0.00152516
0.000149874
-0.00152633
0.000218808
-0.00152583
0.00030557
-0.00151903
0.000396078
-0.00150303
0.000332247
-0.00147833
-0.000132187
-0.00145998
-5.32205e-05
-0.00148407
3.55082e-05
-0.00149952
8.61935e-05
-0.00150289
0.000118081
-0.0014983
0.000114042
-0.00148747
9.68382e-05
-0.00147634
6.30375e-05
-0.00146707
3.89132e-05
-0.00146119
1.78188e-05
-0.00145735
7.17605e-06
-0.00145526
-3.28855e-06
-0.00145364
-1.01626e-05
-0.00145234
-1.9677e-05
-0.00145095
-2.86656e-05
-0.00144987
-4.00899e-05
-0.00144908
-5.10118e-05
-0.00144909
-6.25178e-05
-0.00144992
-7.267e-05
-0.00145176
0.000117465
0.000129608
-0.00265777
0.000139161
-0.00267368
0.000150057
-0.00268685
0.000161471
-0.00269731
0.000173706
-0.00270536
0.000186016
-0.00271133
0.000198603
-0.00271567
0.00021087
-0.00271885
0.000223016
-0.00272131
0.000234628
-0.00272345
0.000245914
-0.00272556
0.000256656
-0.00272788
0.0002672
-0.00273051
0.000277511
-0.00273345
0.000287811
-0.00273685
0.000297688
-0.00274056
0.000307501
-0.00274476
0.000316936
-0.00274957
0.000326123
-0.00275511
0.000334876
-0.00276147
0.0003436
-0.00276871
0.000351906
-0.00277694
0.000360052
-0.00278624
0.000367852
-0.00279659
0.000375478
-0.00280798
0.000382605
-0.0028204
8.07629e-05
-0.0028338
7.54823e-05
-0.00278571
7.3071e-05
-0.00273662
6.69077e-05
-0.00268723
6.13114e-05
-0.00263672
5.32972e-05
-0.00258539
5.69491e-05
-0.00253279
5.94374e-05
-0.00247958
6.25611e-05
-0.00242553
6.50679e-05
-0.00237085
6.81686e-05
-0.00231536
7.10094e-05
-0.00225931
7.46883e-05
-0.00220254
7.91117e-05
-0.00214532
8.55299e-05
-0.0020875
9.4609e-05
-0.00202936
0.000107881
-0.00197078
0.000126338
-0.00191194
0.000151305
-0.0018524
0.000183278
-0.00179188
0.000222211
-0.00172948
0.000266594
-0.00166438
0.000313702
-0.00159555
0.000362974
-0.00152232
-0.000178728
-0.00144451
-0.000186194
-0.00146229
-0.000198522
-0.00147706
-0.000238535
-0.00148791
-0.000280632
-0.00149446
-0.000344142
-0.00149531
-0.000405949
-0.00149091
-0.000288052
-0.00147999
-0.000203841
-0.00148052
-0.000237983
-0.00148965
-0.00027199
-0.00150138
-0.000178906
-0.00151557
-7.88283e-05
-0.00152235
-0.000118244
-0.0015235
0.000161827
-0.00153026
0.000189602
-0.00152059
0.000228617
-0.0015167
0.000264434
-0.00151739
0.000264996
-0.00152228
0.000211948
-0.00152663
0.00016779
-0.00152682
0.000129668
-0.00152369
0.000105913
-0.00151912
9.31499e-05
-0.00151529
0.000110033
-0.00151327
0.000149371
-0.00151304
0.000212007
-0.00150915
0.000289575
-0.00149953
0.000371379
-0.00148218
0.000313895
-0.00145689
-0.000108099
-0.00143766
-3.77639e-05
-0.00145919
3.88759e-05
-0.00147238
8.16062e-05
-0.00147436
0.000107245
-0.00146876
0.000102911
-0.00145716
8.75719e-05
-0.00144546
5.7161e-05
-0.00143566
3.50686e-05
-0.00142935
1.57311e-05
-0.00142511
5.55243e-06
-0.00142277
-4.58858e-06
-0.00142101
-1.15505e-05
-0.00141981
-2.07599e-05
-0.00141874
-2.94495e-05
-0.00141822
-4.00846e-05
-0.00141815
-5.01832e-05
-0.00141897
-6.06724e-05
-0.00142063
-6.99379e-05
-0.0014233
0.000135556
0.000145527
-0.00261709
0.000152323
-0.00263024
0.000160523
-0.00264062
0.000169519
-0.00264813
0.000179672
-0.00265286
0.000190362
-0.00265501
0.000201779
-0.00265497
0.000213336
-0.0026532
0.000225149
-0.00265023
0.000236737
-0.00264658
0.000248236
-0.00264275
0.000259285
-0.0026391
0.000270146
-0.00263596
0.000280912
-0.00263331
0.000291512
-0.00263104
0.000301894
-0.00262901
0.000312311
-0.00262754
0.000322471
-0.00262661
0.000332482
-0.00262652
0.000342121
-0.00262745
0.000351831
-0.00262977
0.000361204
-0.00263332
0.000370405
-0.00263834
0.000379243
-0.0026447
0.000387894
-0.0026525
0.000396008
-0.00266163
3.26674e-05
-0.00267209
2.64009e-05
-0.0026308
2.36769e-05
-0.00258847
1.63959e-05
-0.00254651
9.9837e-06
-0.00250349
6.96563e-07
-0.00245994
3.74016e-06
-0.00241482
5.38318e-06
-0.00236971
7.882e-06
-0.00232402
9.58071e-06
-0.00227774
1.21213e-05
-0.00223058
1.42361e-05
-0.00218268
1.74709e-05
-0.00213375
2.12919e-05
-0.00208383
2.73921e-05
-0.00203261
3.60252e-05
-0.00198012
4.90388e-05
-0.00192616
6.67958e-05
-0.00187111
9.07869e-05
-0.00181439
0.000120883
-0.0017555
0.000157108
-0.00169432
0.000197764
-0.00163061
0.000240469
-0.00156378
0.000285165
-0.0014936
-0.000160949
-0.00141889
-0.000171416
-0.00143778
-0.000187677
-0.00145528
-0.000231981
-0.00146926
-0.000279789
-0.00147955
-0.000348533
-0.00148393
-0.00041687
-0.00148277
-0.000287528
-0.00147476
-0.000194714
-0.00147757
-0.000226244
-0.00148894
-0.000257803
-0.00150285
-0.000172127
-0.00151922
-7.76779e-05
-0.00152731
-0.000111485
-0.00152881
0.000152158
-0.00153429
0.000185715
-0.00152169
0.000229297
-0.00151445
0.000269326
-0.00151259
0.000269352
-0.0015146
0.00021214
-0.00151661
0.000164657
-0.00151489
0.000125096
-0.00151058
0.000102086
-0.00150563
9.11315e-05