/*--------------------------------*- C++ -*----------------------------------*\
  =========                 |
  \\      /  F ield         | OpenFOAM: The Open Source CFD Toolbox
   \\    /   O peration     | Website:  https://openfoam.org
    \\  /    A nd           | Version:  7
     \\/     M anipulation  |
\*---------------------------------------------------------------------------*/
FoamFile
{
    version     2.0;
    format      ascii;
    class       volScalarField;
    location    "0.1175";
    object      T;
}
// * * * * * * * * * * * * * * * * * * * * * * * * * * * * * * * * * * * * * //

dimensions      [0 0 0 1 0 0 0];

internalField   nonuniform List<scalar> 
48560
(
226.275
226.319
226.359
226.394
226.426
226.455
226.483
226.511
226.538
226.566
226.594
226.624
226.655
226.688
226.723
226.762
226.803
226.849
226.899
226.955
227.016
227.086
227.163
227.25
227.349
227.46
227.585
227.738
227.964
228.226
228.532
228.896
229.331
229.872
230.579
231.405
232.383
233.479
234.671
235.805
237.092
238.559
240.254
242.299
244.844
247.992
251.426
253.591
253.081
250.903
247.757
249.871
259.323
262.279
266.716
268.969
272.562
274.517
277.649
279.293
281.894
283.149
284.595
284.511
285.269
285.299
285.261
285.315
285.396
285.391
285.283
285.05
284.66
284.046
283.134
281.788
279.686
276.143
269.732
261.817
253.895
255.508
257.888
256.443
255.378
252.686
252.121
251.316
251.646
251.931
252.632
253.587
254.566
255.478
256.307
257.006
257.58
258.002
258.278
258.359
226.647
226.694
226.738
226.776
226.813
226.848
226.883
226.919
226.957
226.997
227.04
227.086
227.136
227.191
227.252
227.319
227.393
227.475
227.566
227.665
227.775
227.897
228.031
228.18
228.347
228.535
228.748
229.018
229.459
229.98
230.582
231.286
232.076
232.962
233.877
234.879
235.943
237.157
238.47
239.993
241.775
243.808
246.073
248.425
249.961
249.266
247.468
245.065
244.119
243.31
245.838
249.2
256.7
259.482
264.064
266.224
269.922
271.861
275.019
276.733
279.277
280.724
282.268
282.48
283.022
283.261
282.808
282.655
282.438
282.057
281.692
281.056
280.368
279.283
277.97
275.991
273.21
268.528
262.009
256.776
254.438
253.951
253.502
252.25
251.415
250.742
250.709
250.498
251.045
251.505
252.471
253.262
254.336
255.148
256.079
256.734
257.395
257.787
258.029
258.112
227.391
227.446
227.508
227.558
227.616
227.668
227.728
227.787
227.855
227.924
228.004
228.088
228.183
228.285
228.401
228.529
228.676
228.842
229.037
229.246
229.481
229.734
230.014
230.317
230.651
231.012
231.403
231.863
232.525
233.173
233.926
234.703
235.595
236.538
237.604
238.814
240.154
241.668
243.215
244.9
246.388
247.287
246.978
245.842
243.863
242.572
241.251
240.862
240.919
242.317
245.285
249.596
255.287
258.117
262.455
264.764
268.252
270.348
273.279
275.134
277.436
278.921
280.232
280.53
280.729
281.045
280.368
280.29
279.797
279.466
278.895
278.318
277.512
276.516
275.169
273.297
270.465
265.951
260.146
255.98
254.438
253.428
252.901
251.814
251.269
250.812
250.852
250.739
251.25
251.731
252.65
253.434
254.433
255.227
256.092
256.735
257.352
257.741
257.976
258.063
228.923
228.999
229.105
229.186
229.297
229.393
229.52
229.641
229.792
229.94
230.114
230.29
230.492
230.699
230.929
231.168
231.428
231.696
231.975
232.271
232.582
232.908
233.257
233.625
234.018
234.432
234.875
235.359
236.083
236.865
237.751
238.711
239.78
240.859
242.035
243.231
244.342
245.236
245.261
245.057
243.928
242.828
241.512
240.309
239.339
238.968
238.845
239.028
239.956
241.87
245.071
249.228
253.975
257.141
260.949
263.549
266.693
268.991
271.653
273.623
275.678
277.159
278.291
278.634
278.723
279.005
278.347
278.407
277.786
277.607
276.926
276.489
275.595
274.697
273.213
271.264
268.104
263.751
259.071
256.066
254.496
253.259
252.485
251.549
251.272
251.028
251.069
251.1
251.572
252.072
252.906
253.671
254.597
255.373
256.188
256.815
257.39
257.756
257.968
258.051
231.534
231.662
231.808
231.941
232.094
232.242
232.414
232.586
232.782
232.978
233.197
233.418
233.662
233.911
234.182
234.463
234.767
235.085
235.431
235.797
236.196
236.623
237.073
237.538
238.024
238.526
239.048
239.572
240.368
241.163
241.99
242.742
243.405
243.707
243.766
243.469
242.838
241.979
241.247
240.187
239.27
238.473
237.869
237.511
237.381
237.445
237.66
238.296
239.544
241.707
244.861
248.713
252.978
256.213
259.733
262.457
265.396
267.793
270.3
272.323
274.235
275.674
276.683
277.054
277.145
277.339
276.836
276.909
276.334
276.192
275.52
275.119
274.196
273.295
271.713
269.685
266.442
262.466
258.526
256.124
254.468
253.193
252.341
251.637
251.461
251.323
251.382
251.517
251.972
252.507
253.267
254.005
254.843
255.586
256.332
256.932
257.452
257.784
257.972
258.047
234.588
234.778
234.963
235.157
235.355
235.566
235.792
236.032
236.289
236.557
236.843
237.137
237.45
237.77
238.109
238.456
238.821
239.199
239.598
240.008
240.433
240.854
241.273
241.672
242.033
242.322
242.499
242.325
242.514
242.268
242.084
241.572
241.09
240.538
239.937
239.238
238.554
237.914
237.365
236.876
236.567
236.346
236.266
236.268
236.362
236.571
236.99
237.834
239.283
241.563
244.608
248.226
252.174
255.384
258.724
261.49
264.325
266.758
269.193
271.225
273.065
274.454
275.399
275.791
275.917
276.036
275.696
275.72
275.26
275.084
274.468
274.023
273.095
272.113
270.439
268.284
265.068
261.551
258.289
256.183
254.474
253.222
252.398
251.976
251.862
251.814
251.878
252.064
252.469
252.989
253.664
254.365
255.125
255.828
256.502
257.056
257.514
257.811
257.977
258.044
237.772
238.068
238.298
238.575
238.811
239.087
239.346
239.64
239.923
240.228
240.525
240.832
241.127
241.414
241.675
241.897
242.052
242.126
242.164
242.115
242.008
241.808
241.544
241.194
240.79
240.339
239.894
239.32
239.168
238.493
238.243
237.596
237.336
236.787
236.525
236.085
235.905
235.614
235.533
235.376
235.395
235.359
235.422
235.492
235.666
235.962
236.539
237.528
239.121
241.412
244.336
247.773
251.49
254.636
257.858
260.624
263.401
265.845
268.241
270.27
272.064
273.416
274.326
274.744
274.9
274.978
274.744
274.727
274.353
274.13
273.563
273.055
272.132
271.061
269.351
267.141
264.097
260.986
258.203
256.262
254.585
253.422
252.694
252.419
252.332
252.325
252.388
252.596
252.962
253.457
254.067
254.723
255.41
256.059
256.666
257.168
257.569
257.834
257.98
258.041
240.11
240.442
240.664
240.932
241.102
241.3
241.413
241.537
241.583
241.62
241.578
241.508
241.357
241.17
240.914
240.63
240.313
239.997
239.615
239.231
238.806
238.385
237.949
237.53
237.119
236.737
236.38
235.94
236.016
235.538
235.516
235.172
235.163
234.907
234.903
234.731
234.748
234.65
234.682
234.641
234.687
234.689
234.784
234.88
235.131
235.516
236.223
237.324
238.999
241.246
244.058
247.353
250.882
253.947
257.076
259.824
262.558
265.005
267.372
269.395
271.154
272.483
273.379
273.827
274.007
274.068
273.898
273.856
273.539
273.288
272.754
272.202
271.281
270.141
268.408
266.191
263.375
260.636
258.199
256.358
254.769
253.713
253.098
252.889
252.827
252.83
252.899
253.102
253.44
253.899
254.454
255.055
255.678
256.269
256.813
257.263
257.617
257.852
257.983
258.038
240.424
240.526
240.561
240.565
240.498
240.408
240.251
240.08
239.853
239.619
239.34
239.058
238.738
238.42
238.075
237.738
237.384
237.044
236.693
236.366
236.04
235.746
235.461
235.214
234.981
234.787
234.611
234.423
234.562
234.324
234.344
234.213
234.241
234.142
234.169
234.087
234.115
234.051
234.083
234.046
234.103
234.118
234.246
234.392
234.721
235.195
236.01
237.192
238.893
241.078
243.781
246.95
250.314
253.296
256.341
259.063
261.762
264.205
266.547
268.559
270.291
271.607
272.503
272.984
273.192
273.252
273.119
273.068
272.789
272.525
272.013
271.433
270.507
269.32
267.592
265.438
262.867
260.422
258.232
256.486
255.013
254.06
253.532
253.354
253.31
253.312
253.387
253.575
253.89
254.308
254.815
255.36
255.925
256.457
256.944
257.345
257.658
257.867
257.984
258.034
238.772
238.704
238.666
238.534
238.411
238.22
238.033
237.803
237.58
237.338
237.108
236.875
236.647
236.421
236.196
235.976
235.757
235.546
235.336
235.139
234.944
234.765
234.59
234.432
234.278
234.142
234.012
233.886
233.939
233.766
233.767
233.661
233.676
233.598
233.618
233.552
233.57
233.514
233.541
233.518
233.584
233.634
233.8
234.014
234.412
234.977
235.876
237.107
238.8
240.915
243.507
246.556
249.764
252.663
255.627
258.32
260.984
263.42
265.739
267.739
269.448
270.76
271.666
272.186
272.425
272.497
272.386
272.334
272.084
271.818
271.323
270.727
269.796
268.588
266.888
264.836
262.502
260.296
258.291
256.648
255.296
254.432
253.968
253.807
253.772
253.773
253.849
254.018
254.309
254.686
255.148
255.639
256.149
256.625
257.06
257.416
257.693
257.88
257.986
258.031
236.833
236.816
236.888
236.831
236.833
236.729
236.67
236.533
236.438
236.292
236.189
236.057
235.958
235.832
235.722
235.587
235.458
235.307
235.155
234.988
234.818
234.637
234.455
234.268
234.081
233.894
233.713
233.538
233.506
233.332
233.286
233.179
233.162
233.094
233.095
233.049
233.054
233.02
233.043
233.05
233.13
233.23
233.436
233.721
234.189
234.842
235.796
237.055
238.718
240.76
243.24
246.168
249.222
252.038
254.919
257.58
260.208
262.636
264.931
266.918
268.608
269.923
270.847
271.409
271.687
271.781
271.685
271.638
271.412
271.152
270.671
270.07
269.14
267.933
266.288
264.362
262.242
260.233
258.382
256.847
255.608
254.816
254.394
254.241
254.21
254.21
254.281
254.433
254.697
255.036
255.453
255.893
256.35
256.776
257.163
257.479
257.724
257.891
257.986
258.027
235.756
235.882
236.094
236.182
236.324
236.352
236.416
236.386
236.389
236.322
236.293
236.219
236.182
236.103
236.039
235.926
235.811
235.65
235.478
235.265
235.05
234.817
234.571
234.313
234.05
233.785
233.525
233.277
233.178
232.977
232.88
232.761
232.712
232.649
232.633
232.602
232.6
232.584
232.605
232.639
232.736
232.884
233.137
233.499
234.037
234.765
235.758
237.031
238.651
240.618
242.984
245.785
248.684
251.412
254.205
256.831
259.423
261.84
264.11
266.084
267.76
269.082
270.029
270.64
270.965
271.089
271.008
270.969
270.765
270.516
270.051
269.453
268.536
267.351
265.782
263.992
262.061
260.219
258.507
257.081
255.94
255.203
254.806
254.655
254.624
254.622
254.685
254.82
255.056
255.358
255.731
256.124
256.532
256.911
257.255
257.535
257.752
257.901
257.987
258.024
235.361
235.608
235.92
236.135
236.379
236.525
236.68
236.742
236.807
236.797
236.795
236.744
236.713
236.645
236.579
236.466
236.341
236.164
235.967
235.725
235.467
235.164
234.85
234.507
234.162
233.807
233.464
233.136
232.972
232.719
232.571
232.422
232.339
232.265
232.232
232.206
232.198
232.191
232.213
232.269
232.389
232.586
232.894
233.33
233.933
234.727
235.752
237.03
238.604
240.494
242.745
245.41
248.148
250.78
253.48
256.065
258.618
261.023
263.268
265.231
266.895
268.228
269.202
269.867
270.245
270.412
270.351
270.322
270.139
269.907
269.46
268.877
267.983
266.842
265.362
263.71
261.943
260.249
258.667
257.345
256.287
255.589
255.203
255.048
255.012
255.009
255.062
255.18
255.387
255.655
255.985
256.335
256.696
257.033
257.336
257.585
257.778
257.911
257.988
258.022
235.2
235.521
235.892
236.196
236.516
236.76
236.995
237.147
237.276
237.327
237.356
237.327
237.293
237.23
237.171
237.078
236.964
236.802
236.603
236.348
236.043
235.689
235.303
234.882
234.449
234.005
233.574
233.166
232.924
232.598
232.378
232.183
232.047
231.957
231.894
231.873
231.857
231.86
231.879
231.954
232.091
232.33
232.687
233.193
233.864
234.718
235.77
237.052
238.584
240.395
242.529
245.048
247.62
250.142
252.742
255.277
257.79
260.178
262.4
264.353
266.009
267.354
268.356
269.078
269.52
269.744
269.714
269.695
269.532
269.323
268.899
268.341
267.483
266.401
265.02
263.501
261.879
260.319
258.861
257.634
256.644
255.972
255.587
255.419
255.374
255.37
255.413
255.513
255.692
255.927
256.217
256.526
256.844
257.142
257.41
257.63
257.801
257.92
257.99
258.02
235.073
235.433
235.84
236.2
236.579
236.903
237.219
237.469
237.689
237.835
237.938
237.973
237.975
237.933
237.884
237.81
237.712
237.567
237.374
237.118
236.801
236.418
235.98
235.492
234.973
234.435
233.906
233.404
233.049
232.637
232.326
232.082
231.883
231.776
231.678
231.65
231.627
231.635
231.655
231.739
231.889
232.152
232.538
233.084
233.799
234.706
235.805
237.098
238.596
240.332
242.344
244.706
247.106
249.502
251.99
254.463
256.932
259.302
261.502
263.447
265.098
266.456
267.487
268.268
268.779
269.078
269.096
269.09
268.943
268.766
268.368
267.847
267.035
266.025
264.745
263.351
261.862
260.427
259.085
257.943
257.007
256.351
255.957
255.77
255.711
255.704
255.738
255.819
255.972
256.175
256.427
256.699
256.979
257.242
257.478
257.672
257.823
257.929
257.991
258.019
234.946
235.325
235.749
236.142
236.557
236.937
237.319
237.654
237.967
238.219
238.426
238.56
238.64
238.656
238.634
238.581
238.52
238.422
238.278
238.065
237.778
237.402
236.943
236.405
235.807
235.17
234.529
233.917
233.398
232.882
232.456
232.151
231.871
231.741
231.609
231.553
231.52
231.516
231.54
231.618
231.779
232.052
232.462
233.033
233.781
234.717
235.843
237.155
238.644
240.314
242.205
244.4
246.617
248.866
251.227
253.621
256.04
258.391
260.57
262.509
264.159
265.531
266.59
267.428
268.013
268.403
268.492
268.509
268.379
268.236
267.872
267.396
266.641
265.709
264.531
263.251
261.883
260.568
259.331
258.266
257.374
256.724
256.313
256.099
256.02
256.008
256.033
256.098
256.225
256.398
256.617
256.854
257.1
257.332
257.54
257.711
257.844
257.938
257.994
258.019
234.839
235.229
235.661
236.071
236.506
236.919
237.346
237.746
238.135
238.484
238.803
239.063
239.27
239.403
239.475
239.487
239.467
239.425
239.355
239.217
238.998
238.668
238.224
237.657
236.989
236.244
235.471
234.726
233.97
233.338
232.756
232.392
232.012
231.83
231.658
231.577
231.53
231.509
231.532
231.6
231.758
232.032
232.453
233.041
233.814
234.774
235.923
237.244
238.728
240.356
242.136
244.152
246.174
248.251
250.459
252.752
255.109
257.436
259.599
261.536
263.192
264.579
265.663
266.558
267.215
267.708
267.891
267.961
267.848
267.738
267.419
266.992
266.302
265.449
264.369
263.195
261.939
260.735
259.594
258.597
257.742
257.091
256.655
256.405
256.299
256.274
256.293
256.343
256.448
256.595
256.783
256.992
257.209
257.415
257.598
257.749
257.866
257.948
257.998
258.02
234.786
235.188
235.628
236.054
236.502
236.94
237.396
237.837
238.277
238.699
239.108
239.485
239.826
240.111
240.333
240.478
240.55
240.564
240.554
240.506
240.39
240.161
239.792
239.253
238.549
237.7
236.78
235.883
234.756
234.044
233.191
232.797
232.279
232.034
231.812
231.704
231.644
231.615
231.616
231.676
231.823
232.092
232.516
233.11
233.901
234.881
236.054
237.392
238.878
240.472
242.165
244.011
245.818
247.682
249.697
251.852
254.131
256.436
258.593
260.527
262.191
263.597
264.701
265.654
266.375
266.983
267.28
267.452
267.361
267.282
267.014
266.643
266.02
265.246
264.256
263.18
262.029
260.924
259.868
258.933
258.108
257.453
256.987
256.692
256.549
256.502
256.513
256.551
256.635
256.761
256.925
257.112
257.306
257.49
257.653
257.787
257.888
257.96
258.003
258.022
234.815
235.234
235.681
236.125
236.586
237.043
237.519
237.99
238.467
238.928
239.396
239.846
240.289
240.7
241.077
241.394
241.642
241.802
241.882
241.916
241.924
241.851
241.632
241.206
240.534
239.619
238.554
237.531
235.796
235.081
233.903
233.37
232.711
232.382
232.096
231.946
231.861
231.809
231.802
231.829
231.973
232.222
232.648
233.237
234.041
235.035
236.231
237.589
239.092
240.681
242.32
244.026
245.627
247.244
249.012
250.957
253.102
255.36
257.528
259.485
261.156
262.606
263.71
264.735
265.494
266.229
266.644
266.972
266.93
266.897
266.668
266.366
265.803
265.105
264.197
263.211
262.154
261.137
260.156
259.276
258.48
257.821
257.317
256.97
256.778
256.698
256.694
256.721
256.787
256.897
257.045
257.216
257.392
257.56
257.706
257.824
257.913
257.975
258.011
258.026
234.951
235.389
235.846
236.313
236.791
237.275
237.771
238.266
238.767
239.265
239.768
240.267
240.771
241.266
241.756
242.221
242.651
243.014
243.296
243.478
243.585
243.665
243.664
243.476
242.996
242.152
241.013
239.926
237.419
236.479
234.957
234.229
233.414
232.978
232.61
232.398
232.267
232.173
232.138
232.12
232.237
232.46
232.867
233.45
234.245
235.244
236.446
237.823
239.343
240.947
242.579
244.225
245.693
247.071
248.52
250.161
252.089
254.257
256.429
258.466
260.094
261.622
262.682
263.8
264.567
265.45
265.973
266.511
266.561
266.602
266.403
266.175
265.665
265.036
264.202
263.298
262.32
261.381
260.466
259.635
258.867
258.21
257.664
257.259
257.006
256.881
256.853
256.872
256.927
257.026
257.16
257.317
257.478
257.629
257.76
257.865
257.942
257.994
258.024
258.034
235.287
235.755
236.224
236.721
237.216
237.729
238.24
238.761
239.282
239.809
240.339
240.873
241.41
241.951
242.496
243.042
243.588
244.122
244.632
245.085
245.45
245.713
245.945
246.137
246.088
245.576
244.456
243.47
239.806
238.524
236.609
235.658
234.655
234.068
233.587
233.282
233.067
232.905
232.808
232.742
232.759
232.956
233.292
233.851
234.605
235.59
236.776
238.156
239.678
241.291
242.913
244.523
245.934
247.182
248.437
249.844
251.52
253.402
255.475
257.638
259.177
260.79
261.779
262.98
263.717
264.718
265.325
266.09
266.283
266.431
266.276
266.092
265.636
265.061
264.295
263.465
262.56
261.685
260.827
260.044
259.308
258.647
258.059
257.596
257.263
257.091
257.03
257.046
257.092
257.179
257.296
257.434
257.575
257.708
257.822
257.913
257.977
258.019
258.042
258.049
236.15
236.65
237.124
237.652
238.153
238.694
239.215
239.766
240.304
240.865
241.418
241.99
242.56
243.147
243.74
244.353
244.983
245.643
246.334
247.036
247.735
248.36
248.881
249.371
249.853
250.019
249.328
248.655
243.38
241.598
239.31
238.055
236.832
236.054
235.421
234.961
234.634
234.341
234.133
233.964
233.883
233.933
234.201
234.655
235.352
236.269
237.418
238.766
240.275
241.893
243.537
245.166
246.577
247.734
248.732
249.674
250.976
252.73
254.732
257.221
258.654
260.392
261.292
262.502
263.183
264.166
264.879
265.781
266.14
266.381
266.376
266.18
265.804
265.259
264.553
263.78
262.936
262.116
261.303
260.552
259.848
259.23
258.626
258.098
257.663
257.425
257.319
257.322
257.342
257.404
257.489
257.6
257.711
257.82
257.911
257.983
258.03
258.058
258.071
258.074
238.736
239.27
239.757
240.319
240.837
241.417
241.96
242.556
243.124
243.736
244.329
244.961
245.584
246.241
246.898
247.588
248.285
249.013
249.747
250.521
251.319
252.151
253.006
253.862
254.702
255.674
256.108
255.036
248.053
245.877
243.266
241.9
240.386
239.506
238.624
238.071
237.532
237.136
236.718
236.395
236.159
236.115
236.18
236.542
237.043
237.866
238.872
240.145
241.542
243.071
244.58
246.098
247.396
248.306
249.02
249.682
250.8
252.241
253.707
256.698
258.243
260.083
260.991
262.288
262.994
264.025
264.757
265.737
266.294
266.749
266.91
266.805
266.487
266.009
265.343
264.59
263.777
262.98
262.218
261.525
260.863
260.212
259.547
259.014
258.494
258.166
257.942
257.888
257.85
257.855
257.875
257.937
257.994
258.059
258.104
258.139
258.15
258.148
258.135
258.123
247.395
248.027
248.646
249.337
250.008
250.75
251.473
252.264
253.041
253.885
254.72
255.623
256.522
257.482
258.439
259.455
260.479
261.569
262.683
263.878
265.1
266.42
267.767
269.008
270.029
270.876
270.479
263.544
256.101
253.986
250.957
249.857
247.907
247.284
245.966
245.606
244.649
244.388
243.568
243.306
242.643
242.546
242.205
242.42
242.628
243.071
243.749
244.69
245.958
247.369
248.904
250.519
251.838
252.957
253.619
254.029
253.619
252.83
253.42
255.592
258.064
259.741
260.967
261.978
262.862
263.686
264.603
265.716
266.997
268.074
269.01
268.715
268.608
268.367
267.894
267.289
266.613
265.897
265.195
264.509
263.853
263.242
262.617
261.992
261.336
260.667
260.132
259.821
259.644
259.518
259.342
259.262
259.189
259.112
259.024
258.916
258.791
258.644
258.479
258.289
586.606
586.566
586.56
586.561
586.561
586.562
586.562
586.563
586.564
586.565
586.565
586.566
586.566
586.566
586.567
586.567
586.567
586.567
586.567
586.567
586.626
586.566
586.559
586.56
586.56
586.561
586.562
586.563
586.564
586.565
586.566
586.567
586.567
586.568
586.569
586.569
586.569
586.57
586.57
586.57
586.666
586.567
586.557
586.557
586.558
586.559
586.561
586.563
586.565
586.566
586.568
586.569
586.57
586.571
586.572
586.573
586.573
586.574
586.574
586.574
586.708
586.569
586.555
586.554
586.555
586.557
586.56
586.563
586.565
586.568
586.57
586.572
586.574
586.575
586.576
586.577
586.578
586.579
586.58
586.58
586.744
586.572
586.552
586.55
586.552
586.555
586.559
586.562
586.566
586.569
586.572
586.575
586.578
586.58
586.582
586.583
586.585
586.586
586.586
586.587
586.781
586.573
586.549
586.545
586.548
586.552
586.557
586.562
586.567
586.571
586.576
586.58
586.583
586.586
586.589
586.591
586.593
586.594
586.595
586.596
586.812
586.573
586.544
586.54
586.543
586.549
586.555
586.562
586.568
586.574
586.58
586.585
586.59
586.594
586.597
586.6
586.603
586.605
586.606
586.607
586.842
586.572
586.537
586.533
586.537
586.544
586.553
586.561
586.569
586.577
586.584
586.591
586.597
586.603
586.607
586.611
586.615
586.617
586.619
586.619
586.867
586.568
586.529
586.525
586.53
586.54
586.55
586.561
586.571
586.581
586.59
586.598
586.606
586.613
586.619
586.624
586.628
586.631
586.633
586.634
586.892
586.563
586.52
586.515
586.523
586.534
586.547
586.561
586.573
586.585
586.596
586.607
586.616
586.625
586.632
586.638
586.643
586.647
586.65
586.651
586.911
586.556
586.509
586.505
586.514
586.528
586.544
586.56
586.576
586.59
586.604
586.617
586.628
586.638
586.647
586.655
586.661
586.665
586.668
586.669
586.931
586.547
586.496
586.492
586.504
586.522
586.541
586.56
586.579
586.596
586.612
586.627
586.641
586.653
586.664
586.673
586.68
586.685
586.688
586.69
586.944
586.535
586.481
586.479
586.494
586.515
586.538
586.561
586.582
586.603
586.622
586.64
586.656
586.67
586.682
586.693
586.701
586.707
586.711
586.712
586.957
586.521
586.464
586.464
586.482
586.507
586.535
586.561
586.587
586.611
586.633
586.654
586.672
586.689
586.703
586.715
586.724
586.731
586.736
586.737
586.963
586.504
586.444
586.447
586.469
586.5
586.532
586.563
586.592
586.62
586.646
586.67
586.691
586.71
586.726
586.739
586.75
586.758
586.763
586.765
586.967
586.483
586.422
586.429
586.456
586.492
586.529
586.565
586.599
586.631
586.66
586.687
586.712
586.733
586.751
586.767
586.779
586.787
586.793
586.795
586.961
586.458
586.397
586.409
586.442
586.484
586.527
586.568
586.607
586.643
586.677
586.708
586.735
586.759
586.78
586.797
586.81
586.82
586.826
586.829
586.949
586.428
586.369
586.387
586.427
586.476
586.526
586.572
586.617
586.658
586.696
586.731
586.762
586.788
586.811
586.83
586.845
586.856
586.863
586.866
586.922
586.393
586.337
586.363
586.411
586.469
586.525
586.579
586.629
586.676
586.719
586.757
586.792
586.821
586.847
586.868
586.884
586.896
586.904
586.907
586.893
586.352
586.3
586.339
586.396
586.463
586.526
586.587
586.644
586.697
586.745
586.788
586.825
586.858
586.886
586.909
586.927
586.94
586.948
586.952
586.836
586.304
586.259
586.313
586.38
586.458
586.529
586.598
586.663
586.721
586.775
586.822
586.864
586.9
586.931
586.956
586.975
586.989
586.998
587.002
586.768
586.249
586.212
586.287
586.365
586.454
586.535
586.613
586.685
586.751
586.81
586.862
586.908
586.947
586.98
587.007
587.028
587.044
587.053
587.057
586.635
586.187
586.16
586.261
586.352
586.453
586.544
586.633
586.713
586.786
586.85
586.907
586.957
587
587.036
587.065
587.088
587.104
587.114
587.117
586.42
586.12
586.104
586.238
586.341
586.455
586.559
586.658
586.747
586.827
586.897
586.96
587.013
587.059
587.098
587.129
587.153
587.17
587.181
587.184
586.227
586.055
586.049
586.219
586.334
586.462
586.579
586.69
586.788
586.875
586.952
587.019
587.077
587.126
587.167
587.2
587.225
587.243
587.254
587.258
586.087
586
586.003
586.205
586.333
586.476
586.608
586.73
586.837
586.932
587.015
587.086
587.148
587.2
587.243
587.278
587.304
587.323
587.334
587.338
585.994
585.955
585.974
586.195
586.338
586.501
586.646
586.779
586.895
586.998
587.086
587.162
587.227
587.282
587.327
587.363
587.391
587.411
587.422
587.426
585.973
585.927
585.97
586.192
586.354
586.535
586.695
586.84
586.964
587.073
587.167
587.247
587.315
587.372
587.419
587.457
587.485
587.506
587.517
587.521
585.994
585.921
585.983
586.199
586.382
586.583
586.757
586.912
587.044
587.159
587.258
587.341
587.412
587.472
587.52
587.558
587.588
587.608
587.62
587.623
586.047
585.932
586.009
586.226
586.429
586.647
586.832
586.997
587.137
587.257
587.36
587.446
587.519
587.58
587.629
587.668
587.698
587.718
587.73
587.734
586.109
585.958
586.056
586.28
586.501
586.731
586.925
587.096
587.241
587.366
587.472
587.561
587.636
587.697
587.747
587.787
587.816
587.837
587.849
587.852
586.23
586.029
586.144
586.372
586.602
586.839
587.036
587.213
587.36
587.488
587.595
587.686
587.762
587.824
587.874
587.914
587.943
587.963
587.975
587.977
586.435
586.166
586.289
586.505
586.735
586.972
587.169
587.347
587.495
587.623
587.73
587.821
587.896
587.959
588.009
588.048
588.077
588.097
588.108
588.11
586.736
586.379
586.494
586.682
586.903
587.133
587.324
587.5
587.645
587.771
587.877
587.966
588.04
588.101
588.151
588.189
588.218
588.237
588.248
588.25
587.105
586.655
586.754
586.901
587.105
587.321
587.504
587.673
587.813
587.935
588.037
588.123
588.194
588.253
588.3
588.337
588.365
588.383
588.393
588.395
587.531
586.983
587.059
587.159
587.34
587.537
587.706
587.865
587.997
588.112
588.209
588.29
588.358
588.414
588.458
588.493
588.519
588.536
588.545
588.546
587.989
587.346
587.399
587.448
587.605
587.776
587.93
588.075
588.196
588.303
588.392
588.468
588.531
588.582
588.623
588.655
588.679
588.694
588.702
588.702
588.475
587.738
587.764
587.765
587.893
588.036
588.173
588.301
588.41
588.506
588.586
588.655
588.711
588.758
588.795
588.824
588.844
588.858
588.864
588.863
588.973
588.15
588.148
588.102
588.202
588.315
588.433
588.541
588.636
588.719
588.79
588.85
588.9
588.94
588.973
588.998
589.015
589.026
589.031
589.03
589.489
588.578
588.547
588.456
588.526
588.607
588.706
588.793
588.872
588.942
589.002
589.052
589.094
589.128
589.155
589.176
589.19
589.199
589.202
589.199
590.009
589.019
588.955
588.822
588.861
588.912
588.989
589.055
589.117
589.172
589.22
589.26
589.293
589.321
589.342
589.358
589.369
589.374
589.376
589.372
590.543
589.471
589.373
589.197
589.205
589.224
589.279
589.323
589.369
589.408
589.443
589.472
589.496
589.516
589.531
589.542
589.549
589.552
589.551
589.547
591.079
589.929
589.795
589.579
589.554
589.543
589.575
589.596
589.624
589.647
589.669
589.687
589.702
589.713
589.722
589.728
589.731
589.731
589.728
589.723
591.623
590.395
590.22
589.966
589.907
589.865
589.873
589.872
589.882
589.888
589.896
589.903
589.908
589.911
589.913
589.913
589.912
589.909
589.905
589.899
592.164
590.864
590.645
590.356
590.26
590.189
590.171
590.148
590.139
590.13
590.124
590.118
590.114
590.109
590.104
590.098
590.093
590.087
590.08
590.074
592.711
591.34
591.072
590.746
590.612
590.515
590.467
590.425
590.395
590.37
590.35
590.332
590.317
590.304
590.292
590.281
590.271
590.263
590.254
590.247
593.252
591.815
591.495
591.136
590.961
590.839
590.76
590.697
590.648
590.607
590.572
590.543
590.518
590.496
590.477
590.461
590.447
590.435
590.425
590.417
593.804
592.289
591.917
591.522
591.307
591.157
591.05
590.965
590.896
590.839
590.791
590.75
590.715
590.685
590.659
590.637
590.619
590.604
590.592
590.584
594.348
592.758
592.337
591.898
591.649
591.467
591.333
591.227
591.139
591.066
591.004
590.951
590.906
590.868
590.836
590.809
590.787
590.769
590.756
590.747
594.905
593.228
592.754
592.265
591.984
591.769
591.609
591.482
591.375
591.287
591.211
591.147
591.093
591.046
591.008
590.975
590.949
590.929
590.914
590.905
595.447
593.69
593.161
592.621
592.31
592.06
591.877
591.728
591.604
591.5
591.411
591.336
591.272
591.219
591.173
591.136
591.106
591.083
591.067
591.057
595.993
594.147
593.561
592.968
592.625
592.342
592.136
591.965
591.824
591.706
591.604
591.519
591.446
591.384
591.333
591.291
591.257
591.231
591.214
591.204
596.496
594.589
593.943
593.301
592.928
592.612
592.384
592.193
592.036
591.903
591.789
591.693
591.612
591.543
591.486
591.439
591.402
591.374
591.354
591.344
596.885
594.996
594.294
593.615
593.213
592.868
592.62
592.41
592.237
592.091
591.966
591.86
591.77
591.695
591.632
591.58
591.54
591.509
591.489
591.478
597.165
595.347
594.6
593.903
593.477
593.108
592.842
592.615
592.429
592.27
592.134
592.019
591.921
591.839
591.771
591.715
591.671
591.638
591.616
591.604
597.378
595.643
594.864
594.163
593.717
593.331
593.049
592.807
592.609
592.438
592.294
592.17
592.065
591.976
591.903
591.843
591.796
591.759
591.735
591.722
597.536
595.886
595.086
594.39
593.93
593.533
593.239
592.985
592.776
592.596
592.443
592.311
592.2
592.106
592.027
591.963
591.912
591.872
591.846
591.833
597.661
596.086
595.271
594.587
594.117
593.715
593.411
593.148
592.931
592.742
592.582
592.444
592.326
592.227
592.144
592.075
592.019
591.978
591.95
591.936
597.749
596.245
595.422
594.753
594.277
593.874
593.564
593.295
593.071
592.876
592.709
592.565
592.443
592.339
592.251
592.178
592.12
592.076
592.047
592.032
597.812
596.371
595.543
594.889
594.412
594.013
593.698
593.426
593.197
592.997
592.825
592.677
592.55
592.441
592.349
592.272
592.212
592.166
592.136
592.121
597.852
596.468
595.638
595
594.524
594.13
593.813
593.54
593.308
593.105
592.93
592.778
592.647
592.534
592.438
592.359
592.296
592.249
592.218
592.202
597.88
596.542
595.71
595.086
594.615
594.227
593.91
593.638
593.404
593.199
593.022
592.867
592.733
592.616
592.518
592.436
592.372
592.323
592.291
592.276
597.889
596.594
595.762
595.152
594.685
594.305
593.991
593.72
593.486
593.281
593.102
592.945
592.808
592.689
592.589
592.506
592.44
592.39
592.357
592.341
597.89
596.628
595.796
595.199
594.737
594.365
594.054
593.787
593.554
593.349
593.17
593.012
592.873
592.753
592.651
592.566
592.499
592.449
592.415
592.399
597.875
596.643
595.815
595.228
594.772
594.41
594.103
593.84
593.609
593.405
593.226
593.068
592.928
592.807
592.704
592.618
592.55
592.499
592.466
592.449
597.858
596.643
595.82
595.241
594.793
594.439
594.137
593.879
593.65
593.449
593.271
593.113
592.973
592.852
592.748
592.662