/*--------------------------------*- C++ -*----------------------------------*\
  =========                 |
  \\      /  F ield         | OpenFOAM: The Open Source CFD Toolbox
   \\    /   O peration     | Website:  https://openfoam.org
    \\  /    A nd           | Version:  7
     \\/     M anipulation  |
\*---------------------------------------------------------------------------*/
FoamFile
{
    version     2.0;
    format      ascii;
    class       volVectorField;
    location    "0.1175";
    object      U;
}
// * * * * * * * * * * * * * * * * * * * * * * * * * * * * * * * * * * * * * //

dimensions      [0 1 -1 0 0 0 0];

internalField   nonuniform List<vector> 
48560
(
(221.944 -5.36765 -4.90727e-11)
(221.752 -6.19683 -5.89467e-11)
(221.582 -7.02822 -7.81942e-11)
(221.435 -7.84024 -1.00131e-10)
(221.303 -8.63314 -1.31216e-10)
(221.183 -9.4011 -1.65883e-10)
(221.071 -10.1469 -2.09058e-10)
(220.966 -10.8663 -2.55669e-10)
(220.864 -11.5637 -3.09266e-10)
(220.763 -12.2365 -3.65426e-10)
(220.664 -12.8901 -4.25924e-10)
(220.563 -13.5231 -4.87179e-10)
(220.46 -14.1406 -5.49399e-10)
(220.353 -14.741 -6.09712e-10)
(220.241 -15.3282 -6.66176e-10)
(220.121 -15.9004 -7.16942e-10)
(219.994 -16.4601 -7.58741e-10)
(219.854 -17.006 -7.8972e-10)
(219.702 -17.5398 -8.06657e-10)
(219.532 -18.0608 -8.07663e-10)
(219.344 -18.5704 -7.89823e-10)
(219.132 -19.0683 -7.51056e-10)
(218.892 -19.5548 -6.89595e-10)
(218.619 -20.0295 -6.02808e-10)
(218.31 -20.4914 -4.92884e-10)
(217.957 -20.9395 -3.5681e-10)
(217.556 -21.3723 -1.98122e-10)
(217.038 -21.8647 1.68977e-11)
(216.284 -22.4137 3.11339e-10)
(215.391 -22.9119 5.95834e-10)
(214.305 -23.3846 8.81947e-10)
(212.961 -23.8068 1.15965e-09)
(211.28 -24.1917 1.37792e-09)
(209.08 -24.5152 1.53843e-09)
(206.057 -24.7616 1.44265e-09)
(202.491 -24.8964 1.19432e-09)
(198.252 -24.8758 5.65307e-10)
(193.602 -24.7462 -1.39978e-10)
(188.787 -24.4534 -1.37757e-09)
(184.853 -24.0507 -2.54018e-09)
(180.81 -23.2557 -4.16478e-09)
(176.733 -22.6201 -4.54961e-09)
(172.876 -21.4535 -5.91256e-09)
(169.146 -20.0223 -6.40394e-09)
(165.802 -18.7134 -7.02641e-09)
(165.08 -16.0975 -9.50348e-09)
(171.767 -12.2481 -1.25213e-08)
(191.385 -6.885 -1.71155e-08)
(221.307 -4.08086 -2.21791e-08)
(250.053 -7.78904 -2.61576e-08)
(271.684 -31.468 -2.9257e-08)
(263.863 -74.1588 -3.08587e-08)
(229.269 -57.6499 -2.97232e-08)
(214.68 -60.7853 -2.98095e-08)
(195.662 -51.6233 -2.92039e-08)
(183.877 -51.0944 -2.92433e-08)
(165.482 -43.5363 -2.86408e-08)
(153.749 -41.3576 -2.86553e-08)
(133.696 -34.3429 -2.79979e-08)
(121.443 -31.2415 -2.8036e-08)
(99.3231 -24.1238 -2.73071e-08)
(85.6829 -20.4169 -2.73027e-08)
(66.0759 -11.0083 -2.64201e-08)
(66.3462 -8.54305 -2.67545e-08)
(55.7816 -5.57972 -2.62829e-08)
(52.6455 1.12771 -2.60691e-08)
(56.5749 2.22471 -2.63131e-08)
(58.823 4.44238 -2.65308e-08)
(60.5569 6.50872 -2.67364e-08)
(63.5758 8.64365 -2.70206e-08)
(67.9238 11.4707 -2.74302e-08)
(73.4448 14.9745 -2.78791e-08)
(80.3088 19.2409 -2.83825e-08)
(88.7298 24.4694 -2.89232e-08)
(98.929 30.8337 -2.95062e-08)
(111.36 38.4928 -3.01163e-08)
(127.427 48.2364 -3.07919e-08)
(149.438 61.6846 -3.15032e-08)
(182.284 78.9861 -3.22164e-08)
(220.44 84.7195 -3.2865e-08)
(259.688 66.4918 -3.37686e-08)
(254.786 60.4471 -3.40162e-08)
(246.368 53.3834 -3.43817e-08)
(251.803 56.0633 -3.43908e-08)
(256.211 56.6905 -3.46353e-08)
(267.566 53.7092 -3.53809e-08)
(271.759 43.0844 -3.55508e-08)
(275.782 36.6796 -3.59188e-08)
(275.789 26.9354 -3.60865e-08)
(275.43 19.8337 -3.63716e-08)
(273.263 14.3846 -3.64722e-08)
(270.017 8.44321 -3.66496e-08)
(266.521 3.74695 -3.67985e-08)
(263.136 -0.00116081 -3.69387e-08)
(260.008 -3.0481 -3.70452e-08)
(257.305 -5.5127 -3.71505e-08)
(255.074 -7.47894 -3.72305e-08)
(253.41 -8.90355 -3.72939e-08)
(252.353 -9.71776 -3.73396e-08)
(252.112 -9.95823 -3.73633e-08)
(221.189 -5.08782 -5.89657e-10)
(221.006 -5.94564 -6.17881e-10)
(220.838 -6.80019 -6.46777e-10)
(220.703 -7.64499 -6.73337e-10)
(220.575 -8.46246 -6.98936e-10)
(220.464 -9.26007 -7.18526e-10)
(220.353 -10.0282 -7.35659e-10)
(220.248 -10.7747 -7.42939e-10)
(220.138 -11.4971 -7.45508e-10)
(220.024 -12.2042 -7.34464e-10)
(219.905 -12.8956 -7.18412e-10)
(219.78 -13.5729 -6.87709e-10)
(219.644 -14.2348 -6.47477e-10)
(219.496 -14.8796 -5.90152e-10)
(219.332 -15.5069 -5.19787e-10)
(219.152 -16.1139 -4.31303e-10)
(218.95 -16.7019 -3.28247e-10)
(218.726 -17.2692 -2.08772e-10)
(218.475 -17.819 -7.69131e-11)
(218.195 -18.3514 6.59863e-11)
(217.88 -18.8696 2.22103e-10)
(217.526 -19.371 3.85763e-10)
(217.125 -19.8551 5.59728e-10)
(216.669 -20.3191 7.35209e-10)
(216.144 -20.7627 9.17162e-10)
(215.535 -21.184 1.09026e-09)
(214.824 -21.5813 1.25716e-09)
(213.846 -22.0214 1.41451e-09)
(212.232 -22.4904 1.51266e-09)
(210.277 -22.9014 1.40457e-09)
(208.017 -23.2593 1.20305e-09)
(205.367 -23.5389 6.84936e-10)
(202.469 -23.7667 1.11571e-10)
(199.344 -23.9087 -9.01092e-10)
(196.47 -23.969 -1.93589e-09)
(193.654 -23.8486 -3.34086e-09)
(191.144 -23.768 -3.79454e-09)
(188.655 -23.5228 -5.0726e-09)
(186.651 -23.2637 -5.89709e-09)
(184.843 -22.727 -6.76905e-09)
(183.404 -22.2539 -7.20575e-09)
(183.039 -21.7388 -8.1534e-09)
(184.914 -20.8175 -1.09393e-08)
(190.623 -20.8878 -1.25621e-08)
(204.543 -21.4823 -1.69136e-08)
(229.831 -22.8106 -2.20572e-08)
(255.633 -23.8672 -2.63441e-08)
(277.805 -24.7599 -2.96204e-08)
(288.942 -26.5146 -3.09947e-08)
(295.84 -34.6629 -3.23872e-08)
(287.448 -53.5422 -3.27483e-08)
(275.13 -72.0736 -3.32399e-08)
(246.996 -67.1274 -3.26788e-08)
(235.293 -67.332 -3.25955e-08)
(216.33 -61.472 -3.22303e-08)
(206.915 -58.3938 -3.20937e-08)
(189.502 -52.6491 -3.17817e-08)
(179.974 -48.5888 -3.15767e-08)
(162.665 -42.4782 -3.12911e-08)
(152.775 -37.7517 -3.10306e-08)
(136.166 -31.2762 -3.07729e-08)
(125.728 -26.056 -3.03882e-08)
(113.384 -16.8047 -3.00651e-08)
(111.847 -12.2643 -2.98455e-08)
(107.957 -6.68261 -2.98507e-08)
(105.468 1.30449 -2.93665e-08)
(111.121 3.49159 -2.98154e-08)
(113.938 8.65579 -2.98964e-08)
(116.835 11.7532 -3.0144e-08)
(121.023 15.5199 -3.03194e-08)
(124.798 18.9556 -3.06232e-08)
(130.436 23.1842 -3.08701e-08)
(135.908 27.5026 -3.12239e-08)
(143.594 32.9526 -3.15356e-08)
(151.845 39.109 -3.19415e-08)
(163.024 46.9509 -3.23214e-08)
(176.867 56.9036 -3.28006e-08)
(197.309 71.4787 -3.32708e-08)
(221.3 90.273 -3.38476e-08)
(241.907 94.658 -3.44522e-08)
(258.387 73.9816 -3.50231e-08)
(263.721 63.9364 -3.55007e-08)
(266.057 61.5185 -3.5699e-08)
(270.263 62.6655 -3.61552e-08)
(272.857 63.4659 -3.59369e-08)
(275.839 59.6064 -3.69347e-08)
(277.532 51.035 -3.65067e-08)
(279.533 43.401 -3.72328e-08)
(278.85 33.3396 -3.68467e-08)
(278.004 24.7954 -3.7566e-08)
(274.971 16.7012 -3.7146e-08)
(272.278 10.845 -3.76891e-08)
(268.296 5.71673 -3.73609e-08)
(265.214 1.9854 -3.7754e-08)
(261.551 -1.19582 -3.74842e-08)
(258.96 -3.59793 -3.77574e-08)
(256.277 -5.67089 -3.75437e-08)
(254.711 -7.14223 -3.77039e-08)
(253.724 -7.74747 -3.75951e-08)
(253.359 -7.93815 -3.76174e-08)
(219.985 -4.79946 -1.82339e-10)
(219.79 -5.71114 -1.57227e-10)
(219.574 -6.62086 -1.04109e-10)
(219.422 -7.52518 -6.29061e-11)
(219.244 -8.39282 3.70996e-12)
(219.105 -9.24191 6.15855e-11)
(218.936 -10.0542 1.41614e-10)
(218.786 -10.8539 2.16336e-10)
(218.602 -11.6303 3.09115e-10)
(218.421 -12.3958 3.98762e-10)
(218.205 -13.1354 5.04404e-10)
(217.979 -13.8553 6.10364e-10)
(217.715 -14.5412 7.26282e-10)
(217.427 -15.1988 8.40794e-10)
(217.091 -15.819 9.56449e-10)
(216.711 -16.4094 1.06443e-09)
(216.261 -16.9671 1.15975e-09)
(215.73 -17.5019 1.23268e-09)
(215.085 -18.0148 1.26588e-09)
(214.395 -18.5117 1.28256e-09)
(213.609 -18.9918 1.25219e-09)
(212.768 -19.4573 1.18891e-09)
(211.832 -19.9045 1.06255e-09)
(210.827 -20.3305 9.20257e-10)
(209.728 -20.7365 6.76468e-10)
(208.558 -21.1165 4.14045e-10)
(207.315 -21.4731 2.75793e-11)
(205.831 -21.8558 -4.54773e-10)
(203.892 -22.2596 -1.32092e-09)
(202.307 -22.6013 -2.15591e-09)
(200.518 -22.8638 -3.27148e-09)
(199.022 -23.0901 -3.59762e-09)
(197.412 -23.2614 -4.62257e-09)
(196.135 -23.3988 -5.1969e-09)
(194.943 -23.4175 -5.95052e-09)
(193.886 -23.3379 -6.42588e-09)
(193.271 -23.171 -7.12726e-09)
(193.114 -22.9856 -8.07469e-09)
(194.528 -22.8287 -1.00596e-08)
(197.551 -23.0409 -1.12202e-08)
(204.152 -23.6032 -1.37584e-08)
(215.879 -24.703 -1.69559e-08)
(233.74 -26.1255 -2.12539e-08)
(253.352 -27.6658 -2.46742e-08)
(273.409 -28.0498 -2.86252e-08)
(287.783 -27.1186 -3.03313e-08)
(299.47 -26.4195 -3.21749e-08)
(305.306 -27.0864 -3.26699e-08)
(307.592 -31.1723 -3.32104e-08)
(303.597 -41.413 -3.32762e-08)
(292.417 -57.7443 -3.32407e-08)
(276.517 -68.0655 -3.308e-08)
(256.591 -61.9597 -3.29028e-08)
(244.506 -65.3499 -3.26488e-08)
(227.863 -57.558 -3.24907e-08)
(217.675 -57.0995 -3.22023e-08)
(202.677 -49.8135 -3.20814e-08)
(192.626 -47.5255 -3.17701e-08)
(178.162 -40.712 -3.16871e-08)
(168.183 -37.2399 -3.13543e-08)
(155.111 -30.7832 -3.1305e-08)
(145.973 -26.3742 -3.09533e-08)
(137.71 -18.2056 -3.09127e-08)
(136.059 -13.8374 -3.06415e-08)
(135.386 -5.90473 -3.07359e-08)
(132.908 0.99502 -3.04409e-08)
(138.64 4.5793 -3.07918e-08)
(139.529 10.9696 -3.07337e-08)
(143.233 14.6249 -3.10209e-08)
(145.455 19.6312 -3.10646e-08)
(149.132 23.9291 -3.13754e-08)
(152.45 28.994 -3.15039e-08)
(156.904 34.149 -3.18463e-08)
(162.028 40.1 -3.20582e-08)
(168.645 46.7089 -3.24489e-08)
(177.393 54.5427 -3.27551e-08)
(189.892 64.2625 -3.32253e-08)
(208.609 76.2669 -3.36557e-08)
(232.074 84.8541 -3.42096e-08)
(250.995 79.6588 -3.46629e-08)
(260.317 67.7102 -3.5013e-08)
(265.185 63.5583 -3.52819e-08)
(267.593 61.0894 -3.55782e-08)
(272.03 59.6338 -3.60982e-08)
(274.945 55.1726 -3.59214e-08)
(277.792 48.5679 -3.67466e-08)
(278.732 41.195 -3.62507e-08)
(280.056 33.9935 -3.69618e-08)
(278.899 26.4906 -3.65716e-08)
(277.592 20.1403 -3.70951e-08)
(274.455 14.266 -3.68248e-08)
(271.703 9.30766 -3.71901e-08)
(267.974 5.10045 -3.69752e-08)
(264.962 1.73823 -3.72322e-08)
(261.556 -1.00203 -3.7053e-08)
(258.988 -3.07319 -3.72266e-08)
(256.461 -4.57347 -3.70769e-08)
(254.881 -5.47511 -3.71799e-08)
(253.926 -5.7758 -3.71049e-08)
(253.57 -5.88515 -3.71171e-08)
(216.941 -4.51597 6.05568e-10)
(216.665 -5.45245 6.62162e-10)
(216.269 -6.37364 6.72378e-10)
(216.01 -7.29283 7.05517e-10)
(215.629 -8.16724 7.03568e-10)
(215.341 -9.02744 7.07233e-10)
(214.927 -9.84946 6.85037e-10)
(214.566 -10.6651 6.52394e-10)
(214.09 -11.4556 5.99392e-10)
(213.655 -12.2356 5.21132e-10)
(213.122 -12.9852 4.23575e-10)
(212.616 -13.7171 2.87738e-10)
(212.026 -14.4178 1.30081e-10)
(211.452 -15.0983 -7.59506e-11)
(210.809 -15.7498 -3.07751e-10)
(210.177 -16.3813 -5.93444e-10)
(209.502 -16.9858 -9.05182e-10)
(208.856 -17.5685 -1.26622e-09)
(208.22 -18.1217 -1.63951e-09)
(207.582 -18.6475 -2.07121e-09)
(206.949 -19.1412 -2.52538e-09)
(206.336 -19.6068 -3.03088e-09)
(205.711 -20.0194 -3.16317e-09)
(205.101 -20.4333 -3.64054e-09)
(204.49 -20.8071 -3.87599e-09)
(203.907 -21.1732 -4.33671e-09)
(203.34 -21.5008 -4.63813e-09)
(202.735 -21.8597 -5.14548e-09)
(202.041 -22.2178 -5.65255e-09)
(201.511 -22.5039 -6.11639e-09)
(200.99 -22.6712 -6.40156e-09)
(200.716 -22.7676 -6.94141e-09)
(200.618 -22.8608 -7.69885e-09)
(201.332 -23.0651 -9.16342e-09)
(202.715 -23.2559 -9.88897e-09)
(205.357 -23.7414 -1.14565e-08)
(209.952 -24.5069 -1.31885e-08)
(217.056 -25.7163 -1.55808e-08)
(229.125 -27.4873 -1.87379e-08)
(242.03 -29.375 -2.15343e-08)
(258.041 -31.3144 -2.50894e-08)
(272.298 -32.6023 -2.75511e-08)
(285.716 -33.2322 -2.99903e-08)
(296.949 -33.4722 -3.14321e-08)
(305.753 -33.1015 -3.28227e-08)
(311.078 -32.9134 -3.3027e-08)
(314.258 -33.5228 -3.36149e-08)
(315.307 -35.9815 -3.34122e-08)
(312.888 -41.2708 -3.35919e-08)
(306.175 -50.7482 -3.32261e-08)
(294.205 -61.8915 -3.31086e-08)
(279.335 -67.2207 -3.25919e-08)
(262.274 -65.1721 -3.28051e-08)
(249.867 -65.1664 -3.22584e-08)
(235.469 -59.8277 -3.24044e-08)
(224.749 -57.4533 -3.19075e-08)
(211.732 -51.4211 -3.20268e-08)
(201.411 -47.8926 -3.15874e-08)
(189.023 -41.7754 -3.1702e-08)
(179.179 -37.4836 -3.12937e-08)
(168.459 -31.2252 -3.13974e-08)
(160.276 -25.9413 -3.10449e-08)
(154.009 -18.3002 -3.11543e-08)
(152.301 -12.9599 -3.08638e-08)
(152.213 -5.03762 -3.1015e-08)
(150.306 0.596226 -3.08195e-08)
(154.921 5.91015 -3.10556e-08)
(154.343 11.8018 -3.09755e-08)
(158.262 16.0943 -3.12328e-08)
(158.94 21.0267 -3.12413e-08)
(162.825 25.4655 -3.15243e-08)
(164.794 30.3337 -3.16166e-08)
(169.395 35.4427 -3.19316e-08)
(173.53 41.0822 -3.2111e-08)
(180.515 47.6157 -3.24745e-08)
(189.029 55.3922 -3.27525e-08)
(202.267 65.3121 -3.3189e-08)
(219.259 76.253 -3.35728e-08)
(237.754 81.7573 -3.40721e-08)
(252.198 74.5073 -3.44142e-08)
(260.429 66.6994 -3.46164e-08)
(265.765 64.3271 -3.48174e-08)
(269.16 61.9004 -3.53276e-08)
(272.983 59.8102 -3.54052e-08)
(274.784 54.6561 -3.56364e-08)
(276.836 47.8172 -3.59744e-08)
(277.627 41.2825 -3.5891e-08)
(278.354 34.4167 -3.62062e-08)
(277.297 27.5109 -3.61206e-08)
(275.953 21.1935 -3.63698e-08)
(273.187 15.3352 -3.62409e-08)
(270.511 10.5055 -3.64929e-08)
(267.077 6.3556 -3.63523e-08)
(264.133 3.06836 -3.65266e-08)
(260.949 0.376968 -3.64016e-08)
(258.488 -1.65743 -3.65194e-08)
(256.192 -3.03842 -3.64104e-08)
(254.762 -3.74219 -3.64756e-08)
(253.938 -3.90569 -3.64158e-08)
(253.624 -3.94778 -3.64306e-08)
(212.156 -3.91957 -2.46552e-09)
(211.784 -4.85671 -2.47421e-09)
(211.382 -5.76175 -2.76096e-09)
(211.09 -6.73344 -2.68502e-09)
(210.749 -7.63218 -2.94862e-09)
(210.485 -8.56915 -2.94863e-09)
(210.157 -9.44502 -3.20326e-09)
(209.885 -10.3466 -3.26806e-09)
(209.557 -11.1985 -3.52327e-09)
(209.29 -12.0652 -3.64325e-09)
(208.981 -12.8885 -3.90493e-09)
(208.73 -13.7157 -4.07051e-09)
(208.447 -14.5008 -4.33914e-09)
(208.218 -15.2775 -4.5388e-09)
(207.965 -16.0084 -4.80959e-09)
(207.763 -16.7153 -5.02789e-09)
(207.543 -17.3659 -5.28944e-09)
(207.367 -17.9733 -5.50625e-09)
(207.174 -18.5127 -5.74173e-09)
(207.006 -18.9998 -5.93382e-09)
(206.819 -19.423 -6.11749e-09)
(206.637 -19.8027 -6.24809e-09)
(206.512 -20.1634 -6.73544e-09)
(206.483 -20.488 -7.04613e-09)
(206.55 -20.7975 -7.51091e-09)
(206.753 -21.0909 -7.94218e-09)
(207.098 -21.3864 -8.43296e-09)
(207.713 -21.7475 -9.0437e-09)
(208.71 -22.1502 -9.81004e-09)
(210.38 -22.6403 -1.07295e-08)
(212.688 -23.2254 -1.18355e-08)
(216.16 -24.0192 -1.32834e-08)
(220.881 -25.0409 -1.49509e-08)
(227.91 -26.4072 -1.70861e-08)
(236.376 -28.0216 -1.92013e-08)
(246.395 -29.9168 -2.18082e-08)
(257.465 -31.851 -2.41525e-08)
(268.776 -33.6123 -2.65986e-08)
(278.8 -34.7607 -2.83489e-08)
(289.192 -35.8191 -3.02262e-08)
(298.053 -36.4028 -3.15727e-08)
(305.609 -36.781 -3.25775e-08)
(311.613 -36.7861 -3.33084e-08)
(315.956 -36.6583 -3.35941e-08)
(318.797 -36.5521 -3.38476e-08)
(320.296 -37.0865 -3.36831e-08)
(320.67 -38.5039 -3.37662e-08)
(319.1 -41.5328 -3.33916e-08)
(314.898 -47.3943 -3.33841e-08)
(307.006 -55.6095 -3.28761e-08)
(295.351 -63.4394 -3.26867e-08)
(281.701 -66.2217 -3.20162e-08)
(266.446 -64.8272 -3.23819e-08)
(254.173 -64.14 -3.17402e-08)
(241.132 -59.1636 -3.20058e-08)
(230.155 -56.7096 -3.14543e-08)
(218.416 -50.6663 -3.16643e-08)
(207.93 -47.1977 -3.12152e-08)
(196.803 -40.9442 -3.14012e-08)
(187.068 -36.6866 -3.1005e-08)
(177.685 -30.2191 -3.11528e-08)
(170.217 -24.9366 -3.08539e-08)
(165.121 -17.4567 -3.10126e-08)
(163.387 -11.6318 -3.07548e-08)
(163.21 -4.12555 -3.09073e-08)
(162.016 1.01011 -3.07942e-08)
(165.116 7.60495 -3.09015e-08)
(164.316 12.9173 -3.08702e-08)
(167.5 18.063 -3.10331e-08)
(167.695 23.0784 -3.10641e-08)
(171.112 27.9677 -3.12735e-08)
(172.538 33.0225 -3.13782e-08)
(176.9 38.3654 -3.16438e-08)
(180.617 44.1487 -3.18324e-08)
(187.629 50.8064 -3.21617e-08)
(196.041 58.4526 -3.24435e-08)
(209.381 67.3723 -3.28535e-08)
(225.223 75.0109 -3.32279e-08)
(241.656 76.2749 -3.36439e-08)
(252.951 70.3995 -3.38909e-08)
(260.63 65.5228 -3.40121e-08)
(266.073 62.6767 -3.40851e-08)
(269.843 59.9257 -3.49579e-08)
(273.194 55.7458 -3.47275e-08)
(274.783 49.937 -3.51909e-08)
(276.233 43.6947 -3.53606e-08)
(276.769 37.6641 -3.53552e-08)
(276.969 31.1404 -3.54302e-08)
(275.795 25.2207 -3.54781e-08)
(274.215 19.5076 -3.55933e-08)
(271.655 14.5162 -3.55159e-08)
(269.065 10.0867 -3.56936e-08)
(265.979 6.44387 -3.56095e-08)
(263.178 3.43753 -3.57289e-08)
(260.286 1.14875 -3.56403e-08)
(257.947 -0.526145 -3.571e-08)
(255.908 -1.57927 -3.56304e-08)
(254.633 -2.11048 -3.56704e-08)
(253.925 -2.22351 -3.56267e-08)
(253.651 -2.25171 -3.56431e-08)
(212.22 -3.32307 -5.77346e-09)
(211.792 -4.3098 -5.80874e-09)
(211.471 -5.33794 -5.79922e-09)
(211.194 -6.3564 -5.96949e-09)
(210.983 -7.37009 -6.05172e-09)
(210.8 -8.36656 -6.21218e-09)
(210.645 -9.33733 -6.36178e-09)
(210.517 -10.2985 -6.53287e-09)
(210.411 -11.2225 -6.73564e-09)
(210.357 -12.129 -6.93087e-09)
(210.337 -12.9858 -7.17877e-09)
(210.391 -13.8154 -7.40764e-09)
(210.491 -14.5883 -7.69774e-09)
(210.684 -15.3296 -7.96859e-09)
(210.939 -16.0176 -8.30296e-09)
(211.308 -16.6797 -8.62494e-09)
(211.761 -17.3017 -9.01138e-09)
(212.348 -17.9083 -9.39809e-09)
(213.043 -18.4854 -9.85436e-09)
(213.917 -19.0595 -1.03382e-08)
(214.967 -19.627 -1.09125e-08)
(216.29 -20.2147 -1.15596e-08)
(217.891 -20.8257 -1.23156e-08)
(219.855 -21.4754 -1.30792e-08)
(222.266 -22.1795 -1.4006e-08)
(225.251 -22.9599 -1.49878e-08)
(228.953 -23.8491 -1.6175e-08)
(234.323 -25.0545 -1.77086e-08)
(239.472 -26.2799 -1.91843e-08)
(246.601 -27.8677 -2.10399e-08)
(253.437 -29.4134 -2.27499e-08)
(261.42 -31.129 -2.46134e-08)
(269.001 -32.7205 -2.62564e-08)
(276.477 -34.1686 -2.77767e-08)
(283.809 -35.4974 -2.91565e-08)
(291.068 -36.6868 -3.04803e-08)
(297.834 -37.6766 -3.15293e-08)
(303.977 -38.4627 -3.24798e-08)
(309.35 -39.064 -3.30965e-08)
(314.005 -39.4961 -3.36814e-08)
(317.651 -39.7208 -3.38992e-08)
(320.568 -39.7988 -3.41104e-08)
(322.602 -39.8211 -3.4061e-08)
(323.957 -39.9845 -3.40048e-08)
(324.644 -40.4557 -3.38359e-08)
(324.612 -41.5098 -3.36264e-08)
(323.563 -43.4859 -3.34362e-08)
(320.758 -47.1881 -3.31066e-08)
(315.551 -52.7774 -3.28953e-08)
(307.17 -59.4737 -3.24035e-08)
(296.054 -64.9363 -3.20963e-08)
(283.196 -66.6852 -3.14106e-08)
(269.205 -65.3299 -3.17938e-08)
(257.357 -63.9534 -3.11635e-08)
(245.12 -59.4788 -3.14418e-08)
(234.335 -56.3246 -3.09153e-08)
(223.217 -50.6289 -3.11382e-08)
(212.947 -46.5935 -3.07348e-08)
(202.441 -40.4926 -3.09329e-08)
(193.062 -35.7298 -3.05766e-08)
(184.39 -29.1379 -3.07266e-08)
(177.554 -23.4467 -3.04848e-08)
(173.002 -16.144 -3.06591e-08)
(171.225 -10.0297 -3.04438e-08)
(170.781 -3.05354 -3.05877e-08)
(170.086 1.94695 -3.05287e-08)
(171.929 8.8614 -3.05457e-08)
(171.411 13.8274 -3.05641e-08)
(173.663 19.3879 -3.06434e-08)
(174.019 24.2364 -3.07076e-08)
(176.894 29.2859 -3.08509e-08)
(178.493 34.2403 -3.09829e-08)
(182.679 39.573 -3.12032e-08)
(186.688 45.274 -3.14098e-08)
(193.906 51.8486 -3.17069e-08)
(202.676 59.2859 -3.19994e-08)
(215.656 67.3319 -3.23744e-08)
(229.616 72.9247 -3.27347e-08)
(243.462 72.4296 -3.30903e-08)
(253.075 67.8682 -3.32852e-08)
(260.509 64.432 -3.33783e-08)
(265.841 61.2142 -3.33747e-08)
(269.456 58.3606 -3.41452e-08)
(271.889 53.3211 -3.41692e-08)
(273.242 47.8194 -3.44016e-08)
(274.316 41.8415 -3.46502e-08)
(274.81 36.1822 -3.44918e-08)
(274.785 30.1199 -3.463e-08)
(273.787 24.6457 -3.46528e-08)
(272.263 19.2628 -3.47703e-08)
(270.005 14.7102 -3.47257e-08)
(267.549 10.5605 -3.48349e-08)
(264.763 7.1985 -3.4795e-08)
(262.126 4.35519 -3.48712e-08)
(259.548 2.23241 -3.48118e-08)
(257.42 0.699573 -3.48497e-08)
(255.656 -0.17095 -3.47922e-08)
(254.53 -0.600809 -3.4814e-08)
(253.913 -0.688074 -3.47838e-08)
(253.672 -0.711083 -3.47914e-08)
(218.378 -2.39073 -1.01345e-08)
(217.827 -3.40159 -1.01163e-08)
(217.743 -4.42388 -1.03037e-08)
(217.561 -5.5071 -1.04011e-08)
(217.725 -6.56638 -1.06299e-08)
(217.837 -7.64762 -1.08224e-08)
(218.197 -8.69251 -1.11082e-08)
(218.559 -9.73701 -1.13844e-08)
(219.149 -10.7425 -1.17376e-08)
(219.822 -11.7526 -1.20978e-08)
(220.727 -12.7414 -1.25331e-08)
(221.789 -13.7442 -1.29904e-08)
(223.114 -14.741 -1.35311e-08)
(224.682 -15.7622 -1.41137e-08)
(226.583 -16.7938 -1.47969e-08)
(228.853 -17.8653 -1.55516e-08)
(231.598 -18.9729 -1.64371e-08)
(234.839 -20.1427 -1.74157e-08)
(238.331 -21.334 -1.8451e-08)
(242.277 -22.5854 -1.95594e-08)
(246.496 -23.859 -2.07189e-08)
(251.101 -25.1711 -2.19215e-08)
(255.924 -26.4828 -2.31444e-08)
(261.013 -27.7993 -2.43698e-08)
(266.198 -29.0901 -2.55877e-08)
(271.432 -30.3492 -2.67481e-08)
(276.497 -31.5358 -2.78428e-08)
(281.874 -32.7974 -2.89253e-08)
(286 -33.8529 -2.97286e-08)
(291.784 -35.1753 -3.08011e-08)
(295.875 -36.175 -3.14847e-08)
(301.103 -37.3516 -3.23461e-08)
(304.793 -38.2308 -3.28464e-08)
(309.209 -39.2079 -3.34616e-08)
(312.467 -39.9357 -3.37985e-08)
(316.086 -40.6618 -3.419e-08)
(318.647 -41.1462 -3.43305e-08)
(321.345 -41.6147 -3.4509e-08)
(323.154 -41.923 -3.44728e-08)
(324.986 -42.2217 -3.44836e-08)
(326.059 -42.378 -3.43021e-08)
(327.087 -42.5996 -3.42038e-08)
(327.595 -42.8714 -3.39299e-08)
(327.884 -43.3563 -3.37646e-08)
(327.663 -44.1661 -3.34583e-08)
(326.852 -45.584 -3.3239e-08)
(324.906 -48.0606 -3.29199e-08)
(321.355 -51.898 -3.26214e-08)
(315.523 -56.9776 -3.22701e-08)
(307.161 -62.2505 -3.18295e-08)
(296.621 -66.1266 -3.14012e-08)
(284.466 -67.1611 -3.0776e-08)
(271.435 -65.654 -3.11048e-08)
(260.081 -63.7117 -3.05389e-08)
(248.426 -59.3752 -3.07788e-08)
(237.904 -55.8015 -3.03145e-08)
(227.219 -50.1569 -3.05147e-08)
(217.161 -45.7939 -3.0175e-08)
(207.084 -39.635 -3.03653e-08)
(197.995 -34.5527 -3.00562e-08)
(189.819 -27.767 -3.01947e-08)
(183.399 -21.8492 -3.00051e-08)
(179.156 -14.5953 -3.01791e-08)
(177.254 -8.41462 -3.00045e-08)
(176.594 -1.71458 -3.01353e-08)
(176.13 3.37493 -3.0111e-08)
(177.208 10.2514 -3.00741e-08)
(176.89 15.1669 -3.01183e-08)
(178.457 20.9976 -3.01416e-08)
(179.007 25.8185 -3.02222e-08)
(181.385 31.0636 -3.0316e-08)
(183.2 36.0228 -3.0464e-08)
(187.104 41.428 -3.06477e-08)
(191.374 47.1251 -3.08683e-08)
(198.512 53.5572 -3.11383e-08)
(207.437 60.4398 -3.14412e-08)
(219.773 66.9485 -3.17868e-08)
(232.429 70.3369 -3.21267e-08)
(244.363 69.0949 -3.24131e-08)
(252.934 65.7133 -3.25662e-08)
(260.126 62.6198 -3.2629e-08)
(265.226 58.8997 -3.27797e-08)
(268.566 55.6923 -3.32944e-08)
(270.583 50.187 -3.35518e-08)
(271.735 45.2235 -3.36076e-08)
(272.61 39.4471 -3.38243e-08)
(273.04 34.272 -3.36882e-08)
(272.882 28.5951 -3.38494e-08)
(271.969 23.6549 -3.37898e-08)
(270.49 18.6671 -3.39391e-08)
(268.446 14.5368 -3.38778e-08)
(266.143 10.6729 -3.39768e-08)
(263.632 7.64464 -3.39468e-08)
(261.204 5.06235 -3.4002e-08)
(258.896 3.23522 -3.39582e-08)
(256.975 1.89501 -3.39787e-08)
(255.442 1.17732 -3.3937e-08)
(254.444 0.8096 -3.39442e-08)
(253.9 0.740277 -3.39242e-08)
(253.686 0.720374 -3.39264e-08)
(237.348 -1.01988 -1.73466e-08)
(237.22 -2.14009 -1.74683e-08)
(237.793 -3.32658 -1.77943e-08)
(238.317 -4.63342 -1.80552e-08)
(239.453 -5.97133 -1.84957e-08)
(240.617 -7.38458 -1.89031e-08)
(242.315 -8.8014 -1.94663e-08)
(244.099 -10.2524 -2.00199e-08)
(246.349 -11.7008 -2.0705e-08)
(248.729 -13.1875 -2.13925e-08)
(251.529 -14.6957 -2.21861e-08)
(254.489 -16.253 -2.29846e-08)
(257.808 -17.8368 -2.3862e-08)
(261.273 -19.456 -2.4735e-08)
(264.997 -21.0809 -2.56523e-08)
(268.781 -22.7055 -2.65399e-08)
(272.649 -24.2946 -2.74236e-08)
(276.448 -25.8434 -2.82484e-08)
(280.435 -27.3627 -2.91016e-08)
(284.343 -28.8282 -2.98933e-08)
(288.317 -30.2404 -3.06811e-08)
(292.175 -31.5862 -3.14007e-08)
(295.995 -32.8639 -3.20915e-08)
(299.654 -34.07 -3.2708e-08)
(303.191 -35.203 -3.32796e-08)
(306.529 -36.2652 -3.37729e-08)
(309.691 -37.2548 -3.42148e-08)
(313.011 -38.3084 -3.46281e-08)
(314.43 -38.9682 -3.47078e-08)
(317.502 -39.9328 -3.50346e-08)
(318.999 -40.6043 -3.50471e-08)
(321.396 -41.3658 -3.52326e-08)
(322.617 -41.9438 -3.51474e-08)
(324.491 -42.5526 -3.52213e-08)
(325.483 -43.042 -3.50593e-08)
(326.905 -43.5121 -3.50423e-08)
(327.642 -43.9002 -3.48116e-08)
(328.641 -44.2417 -3.4723e-08)
(329.139 -44.5509 -3.44368e-08)
(329.775 -44.8107 -3.42999e-08)
(330.042 -45.1157 -3.39699e-08)
(330.353 -45.4448 -3.3799e-08)
(330.277 -45.9165 -3.34534e-08)
(330.1 -46.6006 -3.32539e-08)
(329.316 -47.7135 -3.28994e-08)
(327.963 -49.509 -3.26674e-08)
(325.394 -52.2424 -3.22926e-08)
(321.344 -56.0128 -3.19965e-08)
(315.231 -60.4104 -3.15724e-08)
(307.108 -64.5992 -3.11627e-08)
(297.089 -67.4305 -3.066e-08)
(285.514 -68.0527 -3.01086e-08)
(273.314 -66.1855 -3.03646e-08)
(262.447 -63.8997 -2.98707e-08)
(251.303 -59.4768 -3.00591e-08)
(241.082 -55.5222 -2.9663e-08)
(230.744 -49.8382 -2.98316e-08)
(220.923 -45.0868 -2.95577e-08)
(211.178 -38.8391 -2.97352e-08)
(202.372 -33.333 -2.94696e-08)
(194.561 -26.3599 -2.95942e-08)
(188.421 -20.1497 -2.94476e-08)
(184.308 -12.9555 -2.96198e-08)
(182.245 -6.74022 -2.94764e-08)
(181.403 -0.235381 -2.95969e-08)
(181.002 4.92906 -2.95955e-08)
(181.619 11.6001 -2.95277e-08)
(181.381 16.5628 -2.95824e-08)
(182.499 22.4551 -2.95717e-08)
(183.138 27.2373 -2.96552e-08)
(185.175 32.5479 -2.97163e-08)
(187.154 37.4159 -2.98714e-08)
(190.904 42.7937 -3.00311e-08)
(195.461 48.3362 -3.02616e-08)
(202.598 54.5003 -3.05134e-08)
(211.553 60.7101 -3.08202e-08)
(222.992 65.9066 -3.11377e-08)
(234.305 67.8766 -3.14511e-08)
(244.773 66.5143 -3.16894e-08)
(252.777 63.8006 -3.18324e-08)
(259.642 60.7031 -3.18911e-08)
(264.421 56.7394 -3.20596e-08)
(267.37 53.3142 -3.26153e-08)
(269.121 47.8472 -3.2585e-08)
(270.098 43.2519 -3.3006e-08)
(270.897 37.7109 -3.2745e-08)
(271.243 32.9231 -3.30328e-08)
(271.061 27.5763 -3.29424e-08)
(270.208 23.0284 -3.30096e-08)
(268.832 18.3666 -3.30823e-08)
(266.97 14.5701 -3.30501e-08)
(264.86 10.9693 -3.31226e-08)
(262.582 8.21681 -3.31033e-08)
(260.377 5.83524 -3.31428e-08)
(258.314 4.22167 -3.31103e-08)
(256.6 3.04658 -3.31111e-08)
(255.255 2.44728 -3.30879e-08)
(254.369 2.12521 -3.30811e-08)
(253.886 2.06956 -3.30712e-08)
(253.693 2.05184 -3.30676e-08)
(268.092 -0.223136 -2.62508e-08)
(268.884 -1.59333 -2.65875e-08)
(270.054 -3.10173 -2.69948e-08)
(271.41 -4.76337 -2.74096e-08)
(273.118 -6.49606 -2.78909e-08)
(274.973 -8.31324 -2.83727e-08)
(277.13 -10.1491 -2.89137e-08)
(279.378 -12.0131 -2.94448e-08)
(281.859 -13.86 -3.00208e-08)
(284.368 -15.7024 -3.05749e-08)
(287.043 -17.5207 -3.11568e-08)
(289.709 -19.3379 -3.17047e-08)
(292.49 -21.1361 -3.22644e-08)
(295.229 -22.9269 -3.27797e-08)
(298.03 -24.6917 -3.32921e-08)
(300.756 -26.4349 -3.37522e-08)
(303.496 -28.138 -3.41979e-08)
(306.137 -29.7991 -3.45889e-08)
(308.759 -31.3963 -3.49596e-08)
(311.242 -32.9248 -3.5269e-08)
(313.668 -34.3716 -3.55528e-08)
(315.928 -35.7326 -3.57735e-08)
(318.101 -37.0018 -3.59663e-08)
(320.094 -38.1781 -3.60967e-08)
(321.977 -39.2605 -3.61987e-08)
(323.679 -40.2504 -3.62439e-08)
(325.257 -41.15 -3.62616e-08)
(326.796 -42.0695 -3.62219e-08)
(327.01 -42.5527 -3.6052e-08)
(328.314 -43.284 -3.59842e-08)
(328.766 -43.857 -3.57393e-08)
(329.645 -44.3268 -3.56446e-08)
(329.968 -44.8192 -3.53545e-08)
(330.645 -45.1952 -3.5232e-08)
(330.88 -45.645 -3.49137e-08)
(331.431 -45.9863 -3.47665e-08)
(331.588 -46.3983 -3.44289e-08)
(332.007 -46.6977 -3.42631e-08)
(332.077 -47.0674 -3.39092e-08)
(332.341 -47.3547 -3.37249e-08)
(332.259 -47.7478 -3.33678e-08)
(332.276 -48.1709 -3.31659e-08)
(331.873 -48.8189 -3.28071e-08)
(331.354 -49.7337 -3.25865e-08)
(330.159 -51.1373 -3.2222e-08)
(328.384 -53.1814 -3.19695e-08)
(325.363 -56.0311 -3.15789e-08)
(321.018 -59.541 -3.12712e-08)
(314.862 -63.3277 -3.08271e-08)
(307.045 -66.7144 -3.04274e-08)
(297.526 -68.8539 -2.99027e-08)
(286.489 -69.1641 -2.94069e-08)
(275.047 -66.8607 -2.96013e-08)
(264.64 -64.2934 -2.91646e-08)
(253.98 -59.6652 -2.93079e-08)
(244.061 -55.3762 -2.8968e-08)
(234.041 -49.5432 -2.91093e-08)
(224.451 -44.4373 -2.88924e-08)
(214.999 -38.0171 -2.90604e-08)
(206.454 -32.1189 -2.88313e-08)
(198.935 -24.9273 -2.89444e-08)
(192.979 -18.444 -2.88311e-08)
(188.897 -11.2325 -2.89998e-08)
(186.642 -4.95885 -2.8884e-08)
(185.606 1.45407 -2.89956e-08)
(185.163 6.63189 -2.90114e-08)
(185.494 13.1276 -2.8925e-08)
(185.25 18.1802 -2.89836e-08)
(186.056 24.0661 -2.89514e-08)
(186.696 28.8656 -2.90324e-08)
(188.504 34.2122 -2.90727e-08)
(190.567 39.0195 -2.92313e-08)
(194.232 44.3622 -2.93764e-08)
(198.96 49.7068 -2.96135e-08)
(206.019 55.4744 -2.98541e-08)
(214.783 60.7952 -3.01622e-08)
(225.356 64.6672 -3.04542e-08)
(235.624 65.6197 -3.07482e-08)
(245.023 64.3445 -3.09615e-08)
(252.601 61.8379 -3.11006e-08)
(259.062 58.5644 -3.11585e-08)
(263.509 54.3917 -3.13203e-08)
(266.148 50.8362 -3.18364e-08)
(267.724 45.5751 -3.16781e-08)
(268.565 41.2758 -3.23853e-08)
(269.303 36.0339 -3.17788e-08)
(269.563 31.5861 -3.23283e-08)
(269.388 26.5825 -3.19622e-08)
(268.574 22.392 -3.23276e-08)
(267.319 18.0625 -3.21425e-08)
(265.606 14.5821 -3.23128e-08)
(263.692 11.263 -3.22431e-08)
(261.622 8.76869 -3.23109e-08)
(259.639 6.61221 -3.22743e-08)
(257.794 5.19044 -3.22967e-08)
(256.274 4.15092 -3.22563e-08)
(255.088 3.64014 -3.22596e-08)
(254.301 3.35389 -3.22441e-08)
(253.869 3.30822 -3.22374e-08)
(253.696 3.29226 -3.22343e-08)
(296.214 0.0229387 -3.31192e-08)
(297.108 -1.45626 -3.34375e-08)
(297.949 -3.11011 -3.37176e-08)
(299.16 -4.93845 -3.40418e-08)
(300.367 -6.86498 -3.4336e-08)
(301.846 -8.88992 -3.46556e-08)
(303.331 -10.9467 -3.49508e-08)
(304.983 -13.0323 -3.52536e-08)
(306.62 -15.0988 -3.55337e-08)
(308.326 -17.1502 -3.58062e-08)
(309.99 -19.159 -3.60549e-08)
(311.66 -21.1451 -3.62841e-08)
(313.295 -23.0983 -3.64885e-08)
(314.908 -25.0271 -3.66655e-08)
(316.492 -26.9162 -3.68167e-08)
(318.033 -28.766 -3.69344e-08)
(319.543 -30.5596 -3.70279e-08)
(320.99 -32.2949 -3.70841e-08)
(322.401 -33.9557 -3.71161e-08)
(323.732 -35.5406 -3.7111e-08)
(325.019 -37.0366 -3.70832e-08)
(326.214 -38.4438 -3.70195e-08)
(327.358 -39.7524 -3.69347e-08)
(328.403 -40.9661 -3.68165e-08)
(329.394 -42.0784 -3.66813e-08)
(330.284 -43.0964 -3.65137e-08)
(331.112 -44.0164 -3.63333e-08)
(331.869 -44.9472 -3.60988e-08)
(331.88 -45.3687 -3.58969e-08)
(332.531 -46.0988 -3.56625e-08)
(332.64 -46.5742 -3.53704e-08)
(333.07 -47.0425 -3.51599e-08)
(333.111 -47.4283 -3.48436e-08)
(333.433 -47.7894 -3.46282e-08)
(333.434 -48.1325 -3.43052e-08)