/*--------------------------------*- C++ -*----------------------------------*\
  =========                 |
  \\      /  F ield         | OpenFOAM: The Open Source CFD Toolbox
   \\    /   O peration     | Website:  https://openfoam.org
    \\  /    A nd           | Version:  7
     \\/     M anipulation  |
\*---------------------------------------------------------------------------*/
FoamFile
{
    version     2.0;
    format      ascii;
    class       volScalarField;
    location    "0.1375";
    object      alphat;
}
// * * * * * * * * * * * * * * * * * * * * * * * * * * * * * * * * * * * * * //

dimensions      [1 -1 -1 0 0 0 0];

internalField   nonuniform List<scalar> 
48560
(
0.00510931
0.00505721
0.00500391
0.0049516
0.00490088
0.00485223
0.00480613
0.00476297
0.00472313
0.00468692
0.00465464
0.00462656
0.00460294
0.00458402
0.00457002
0.00456118
0.00455771
0.00455984
0.00456781
0.00458187
0.00460227
0.0046293
0.00466326
0.0047045
0.00475339
0.00481034
0.00487572
0.00494963
0.00505949
0.00518415
0.00532265
0.00547354
0.00563414
0.00580096
0.00596927
0.0061411
0.00631565
0.00649725
0.00668963
0.00690634
0.00715035
0.00742023
0.007715
0.00801517
0.00828191
0.00837759
0.00797307
0.00694017
0.00546867
0.00391592
0.00126477
0.000499802
0.000550338
0.00057458
0.000615284
0.000635961
0.0006815
0.000708557
0.000775468
0.000834871
0.000960503
0.00103639
0.00108339
0.000986558
0.00108372
0.000849224
0.000856304
0.000890368
0.000947918
0.00101945
0.00110953
0.00120322
0.00130716
0.0014007
0.00148573
0.00153804
0.00154223
0.00146079
0.00128431
0.0010751
0.000947193
0.000984853
0.00104474
0.00104342
0.00101931
0.000973673
0.000931096
0.000894685
0.000871945
0.000857051
0.000854228
0.000853004
0.000852291
0.000848706
0.000843066
0.000831383
0.00081398
0.000787493
0.000751127
0.000702829
0.00484583
0.00483087
0.00481645
0.00480362
0.0047929
0.00478469
0.00477943
0.00477742
0.00477901
0.00478444
0.00479401
0.00480793
0.00482643
0.00484973
0.00487805
0.00491159
0.00495056
0.00499514
0.00504548
0.00510161
0.00516373
0.00523186
0.00530613
0.00538654
0.00547308
0.00556559
0.00566382
0.00576675
0.00591605
0.00607266
0.00623811
0.00641064
0.00659287
0.0067858
0.00699802
0.00723602
0.00750598
0.00781051
0.00815231
0.00852673
0.00893072
0.00933443
0.00965624
0.00973678
0.00945501
0.00871782
0.00757379
0.0062373
0.00511142
0.0046069
0.00507326
0.00904726
0.00945955
0.00991218
0.0103092
0.01061
0.0102355
0.0104
0.00971416
0.00989574
0.00897485
0.00868236
0.00777496
0.00820603
0.00716812
0.00711938
0.00693647
0.00696786
0.00676144
0.006723
0.00669261
0.0067688
0.00685388
0.00699396
0.00712505
0.0071804
0.00700451
0.00648412
0.00673288
0.00642508
0.00704641
0.00995713
0.00904561
0.00847816
0.00819159
0.00817034
0.00856038
0.00958177
0.0107124
0.012142
0.0136121
0.0151027
0.0167037
0.0185533
0.0205782
0.0229583
0.0258311
0.0300275
0.0369559
0.0528135
0.00520551
0.00522042
0.00523793
0.00525815
0.00528146
0.00530816
0.00533851
0.00537267
0.00541079
0.00545291
0.00549916
0.00554952
0.00560414
0.00566301
0.00572624
0.00579378
0.00586562
0.00594162
0.0060217
0.00610633
0.00619533
0.00628896
0.00638729
0.00649064
0.00659916
0.00671331
0.0068335
0.0069596
0.00715454
0.00737073
0.00760864
0.00787341
0.00816564
0.00848993
0.00884804
0.00924126
0.00967003
0.0101216
0.0105699
0.0109345
0.0111541
0.0110999
0.0107369
0.0100237
0.00903417
0.00787465
0.00689138
0.0062521
0.00621191
0.00693542
0.00896759
0.0142039
0.0146892
0.0152066
0.0148706
0.0159231
0.0148242
0.0161095
0.0141407
0.0149852
0.0131526
0.0126932
0.0114297
0.0115838
0.0104462
0.0107149
0.0108317
0.0114201
0.0112229
0.0118133
0.0117094
0.0116265
0.0116034
0.0116001
0.0116406
0.0116794
0.0117036
0.0115213
0.0113873
0.0102251
0.0145452
0.0230199
0.0211959
0.0201489
0.0198092
0.0165165
0.0190669
0.0195392
0.0258854
0.0318222
0.0386258
0.0429633
0.0475671
0.0529654
0.0592814
0.0672685
0.0697768
0.0636186
0.0592188
0.0580421
0.00629853
0.00632822
0.00636167
0.00639975
0.00644172
0.00648882
0.00654026
0.0065969
0.00665789
0.00672392
0.00679453
0.00687044
0.00695138
0.007038
0.00713025
0.00722874
0.00733362
0.00744563
0.00756524
0.0076928
0.00782871
0.00797348
0.00812735
0.00829098
0.00846502
0.00865033
0.00884748
0.00905748
0.00937535
0.0097206
0.0100926
0.010492
0.0109127
0.0113468
0.01177
0.0121502
0.0124373
0.0125723
0.0125142
0.012213
0.0116744
0.0108998
0.0100028
0.0090991
0.00828868
0.00771659
0.00754569
0.0078906
0.00883868
0.0105876
0.0138508
0.0181511
0.0194492
0.0206601
0.0196315
0.0210331
0.0191191
0.0200131
0.0179698
0.0183776
0.0164768
0.0156706
0.0145915
0.0145782
0.0144101
0.0144291
0.0154212
0.0164502
0.0168048
0.0170125
0.0173072
0.0176551
0.0180519
0.0184746
0.0185946
0.0167342
0.0139864
0.0134946
0.0149953
0.0173609
0.0297882
0.0434107
0.0412315
0.0402565
0.032496
0.030083
0.0328656
0.0306776
0.0331759
0.0336819
0.0377839
0.0409483
0.0464347
0.0509812
0.0565192
0.06103
0.0641497
0.0647124
0.0641721
0.0638483
0.00814572
0.00818879
0.00823998
0.00829966
0.00836713
0.00844362
0.00852842
0.00862252
0.00872514
0.00883717
0.00895808
0.00908873
0.00922875
0.00937897
0.00953911
0.00970986
0.00989094
0.0100829
0.0102853
0.0104987
0.0107226
0.0109571
0.0112028
0.0114598
0.0117275
0.0120048
0.0122893
0.0125789
0.0129564
0.0133245
0.0136489
0.013917
0.0140882
0.0141474
0.0140705
0.0138424
0.0134496
0.0128965
0.0121949
0.0114626
0.0107006
0.00999365
0.00939349
0.00898902
0.00886946
0.00913343
0.00984329
0.0110331
0.0128052
0.0145263
0.0185542
0.0205017
0.022146
0.0229202
0.0228976
0.0237654
0.0227114
0.0232875
0.0218372
0.0220476
0.0205884
0.0197336
0.0188536
0.0189804
0.0198201
0.0194332
0.0216724
0.0224365
0.0245049
0.025303
0.0265941
0.0270815
0.0270483
0.0258979
0.0234248
0.020202
0.0174895
0.0170815
0.0170713
0.0221088
0.0336045
0.0407552
0.0428446
0.028638
0.0266608
0.0273296
0.0286563
0.0288287
0.0324391
0.0341971
0.0393583
0.0430436
0.049512
0.0550695
0.0622131
0.0667028
0.0685923
0.0697146
0.0709071
0.0717008
0.011363
0.0114118
0.0114788
0.0115606
0.0116583
0.0117705
0.0118979
0.0120396
0.0121958
0.0123654
0.0125485
0.0127446
0.0129535
0.0131747
0.0134076
0.0136511
0.0139034
0.0141617
0.0144218
0.0146805
0.0149319
0.0151709
0.0153895
0.015581
0.0157389
0.0158596
0.0159405
0.0159951
0.0159352
0.0158172
0.0155728
0.0152478
0.0148004
0.0142701
0.0136796
0.0130636
0.0124303
0.0118162
0.0112477
0.0107659
0.0104016
0.0102154
0.0102583
0.0105947
0.0112724
0.0123166
0.0137278
0.0155527
0.0156261
0.0173173
0.0204855
0.0222782
0.0242926
0.0255333
0.0261314
0.0263966
0.0263609
0.0262242
0.02561
0.0252509
0.0244495
0.0236182
0.0234068
0.0240628
0.0258449
0.0253861
0.0284871
0.0290089
0.0322177
0.0324188
0.0346492
0.0336117
0.033311
0.0301687
0.0266212
0.0224319
0.0201856
0.0202035
0.0210771
0.0262431
0.0335043
0.0377304
0.0377155
0.0299632
0.0307795
0.0303184
0.0316324
0.03213
0.0350262
0.037143
0.0416607
0.0451478
0.0508312
0.0561782
0.0631548
0.0693887
0.0730202
0.0753358
0.0770306
0.0780991
0.0164157
0.0164097
0.0164371
0.0164843
0.0165594
0.0166512
0.0167643
0.016888
0.0170233
0.0171612
0.0173015
0.0174362
0.0175634
0.0176759
0.0177711
0.0178432
0.0178905
0.0179091
0.0178933
0.0178416
0.0177508
0.0176204
0.0174491
0.0172385
0.0169894
0.0167054
0.0163897
0.0160604
0.0155679
0.0150891
0.0145631
0.0140626
0.0135458
0.0130758
0.0126254
0.0122447
0.011926
0.0117174
0.0116262
0.0117014
0.0119654
0.0124658
0.0132231
0.0142581
0.0155672
0.0171392
0.0189972
0.0189292
0.0184365
0.0203953
0.0224519
0.0239229
0.0260081
0.0273755
0.0279914
0.0282542
0.0283619
0.0282468
0.0278261
0.0275133
0.0271079
0.0268351
0.0272491
0.0286766
0.0308334
0.0307703
0.0338548
0.0345521
0.0376535
0.0380387
0.0401289
0.0387583
0.037909
0.0338294
0.0297643
0.0255255
0.0236305
0.0231697
0.0244189
0.0290098
0.0327359
0.0350721
0.0335572
0.0306311
0.0321504
0.0322161
0.0338246
0.034921
0.0378831
0.0404927
0.0450397
0.0495478
0.0560858
0.0627205
0.0693352
0.0747066
0.0781277
0.0809556
0.0828151
0.0840065
0.0219642
0.0217619
0.0215762
0.0213994
0.0212381
0.0210784
0.0209241
0.0207621
0.0205952
0.0204125
0.0202171
0.0200011
0.0197677
0.0195112
0.0192348
0.0189352
0.0186162
0.0182784
0.0179327
0.0175747
0.0172121
0.0168433
0.0164745
0.016106
0.0157427
0.0153861
0.0150403
0.0147152
0.0143518
0.0140548
0.0137739
0.0135601
0.0133906
0.0133062
0.0132946
0.0133934
0.0136027
0.0139569
0.0144656
0.0151578
0.0160373
0.0171158
0.0183828
0.0198317
0.0214507
0.0232688
0.0230963
0.0210811
0.0211815
0.0227997
0.02393
0.0251866
0.0274888
0.0289666
0.0294505
0.0297574
0.0298468
0.0296924
0.0293346
0.0289294
0.0288515
0.0290079
0.030117
0.032126
0.0345878
0.0352148
0.0379907
0.0388992
0.0417747
0.0426551
0.0442914
0.0429772
0.0411163
0.036443
0.0318882
0.0280286
0.0265497
0.0262177
0.0276737
0.0309502
0.0329553
0.0352373
0.0340835
0.0336401
0.0347207
0.0353357
0.0366744
0.0382457
0.0409586
0.0440936
0.0486075
0.0537845
0.0603502
0.0674874
0.0747172
0.0803068
0.0839378
0.0869142
0.0889196
0.0902093
0.0235073
0.0230861
0.0226569
0.0222418
0.0218327
0.0214334
0.0210393
0.0206512
0.0202681
0.01989
0.0195179
0.0191511
0.0187921
0.01844
0.0180977
0.0177646
0.0174438
0.017135
0.0168416
0.0165642
0.0163074
0.0160726
0.0158654
0.0156882
0.0155476
0.0154477
0.0153971
0.0154065
0.0154301
0.0155363
0.0156962
0.0159356
0.0162426
0.0166365
0.0171202
0.0177172
0.0184205
0.0192519
0.0202009
0.0212819
0.0224742
0.0237845
0.0251924
0.0267164
0.0283686
0.0279276
0.0248557
0.0235562
0.0236538
0.0247994
0.0251943
0.0263196
0.0286484
0.0300433
0.0303634
0.030661
0.0306033
0.0304849
0.0300302
0.0296609
0.0297553
0.0303055
0.0318339
0.0342305
0.0369784
0.0383386
0.0405619
0.0416109
0.0442235
0.0453913
0.0465792
0.0454418
0.042967
0.038484
0.0341574
0.0309379
0.0294895
0.0291054
0.0303195
0.0321993
0.0332388
0.0353657
0.0350004
0.03581
0.0368511
0.0378795
0.0392818
0.0413298
0.044242
0.047971
0.0528797
0.0587244
0.0658693
0.0732561
0.0804823
0.0860836
0.0900454
0.0930328
0.0952298
0.0965955
0.0214521
0.0211008
0.0207432
0.0204089
0.0200813
0.0197725
0.0194721
0.0191892
0.0189182
0.0186663
0.0184313
0.0182175
0.0180239
0.0178536
0.0177073
0.0175879
0.0174979
0.0174408
0.0174212
0.017444
0.0175162
0.0176443
0.0178378
0.0181059
0.0184614
0.0189172
0.0194913
0.0202012
0.0206408
0.021149
0.0217
0.0223112
0.0229562
0.0236506
0.0244035
0.0252351
0.0261226
0.0270862
0.0281036
0.0291928
0.0303326
0.0315433
0.0328162
0.0341881
0.0328502
0.029272
0.0269308
0.0257484
0.0257144
0.026374
0.0262426
0.0272321
0.029431
0.030696
0.0308615
0.0311001
0.0308868
0.0307611
0.0301767
0.0298166
0.0300084
0.0308069
0.0325648
0.0351695
0.0381927
0.0401383
0.0418666
0.0430255
0.0454252
0.0468
0.0478786
0.0470122
0.0444237
0.040348
0.0364409
0.0337637
0.0323303
0.0318353
0.032382
0.0332618
0.0339652
0.0363993
0.0367992
0.0382461
0.0393426
0.0405857
0.0421547
0.0445096
0.0477931
0.0519339
0.0574648
0.0638429
0.0717084
0.0793206
0.0868534
0.0921458
0.0963931
0.0992328
0.101679
0.103093
0.0199063
0.0197748
0.0196419
0.0195323
0.0194282
0.0193449
0.0192707
0.0192197
0.019185
0.0191793
0.0191992
0.0192553
0.0193448
0.0194755
0.0196471
0.0198676
0.0201398
0.0204725
0.0208714
0.0213469
0.0219076
0.0225651
0.0233307
0.024218
0.0252401
0.0264113
0.027747
0.0292537
0.0298527
0.0304732
0.0311006
0.0317457
0.0323835
0.0330245
0.0336951
0.0344074
0.0351417
0.0359111
0.0367017
0.0375288
0.0383869
0.0392991
0.0402718
0.0368724
0.0337252
0.0307527
0.0287745
0.0275186
0.0273415
0.0275573
0.0270999
0.0279319
0.0298712
0.0309598
0.0309558
0.0310873
0.0307423
0.030578
0.0298746
0.0295262
0.0297544
0.0306751
0.0324702
0.0351415
0.0383349
0.0406883
0.0421468
0.043453
0.0456328
0.0472763
0.0485013
0.0481282
0.0459331
0.0425692
0.0392033
0.0367891
0.0350442
0.0341725
0.0340055
0.0341647
0.0347618
0.0374438
0.0385248
0.0404534
0.0418034
0.0432605
0.0451163
0.0478117
0.0516317
0.0562423
0.0625864
0.0694452
0.0781147
0.0856684
0.0935208
0.0984468
0.102958
0.105599
0.108287
0.109741
0.0206822
0.0207839
0.0208933
0.0210269
0.0211695
0.0213365
0.0215181
0.02173
0.0219669
0.0222446
0.0225611
0.0229315
0.0233536
0.0238377
0.0243816
0.0249956
0.0256811
0.0264483
0.0273001
0.0282469
0.0292926
0.030445
0.03171
0.0330914
0.034591
0.0362059
0.0379306
0.0397441
0.0401637
0.0405704
0.0409654
0.0413583
0.0417338
0.0420947
0.0424742
0.0428747
0.0432826
0.0437035
0.0441348
0.043445
0.0424474
0.0409382
0.0392483
0.0368878
0.0345214
0.031967
0.0301132
0.0288858
0.0284813
0.0283575
0.0276906
0.0284322
0.0299884
0.0308786
0.0306952
0.0307024
0.0302659
0.0300459
0.0292645
0.0289227
0.0291614
0.0301035
0.0318175
0.0344298
0.0376755
0.0403243
0.0418816
0.0433567
0.0453705
0.047444
0.0490417
0.0494328
0.0479231
0.0453254
0.042347
0.039897
0.0376296
0.0362325
0.0353721
0.0350717
0.0357028
0.0386886
0.0403552
0.0427349
0.0444146
0.046087
0.0482457
0.0513435
0.0557586
0.0609448
0.0681472
0.0755109
0.0849219
0.0923908
0.100388
0.104978
0.109644
0.112162
0.115006
0.116514
0.0238709
0.0242046
0.024558
0.0249382
0.025332
0.0257528
0.0261916
0.0266631
0.0271629
0.0277073
0.0282957
0.0289442
0.0296542
0.0304356
0.0312823
0.0321995
0.0331814
0.0342318
0.0353451
0.0365232
0.0377609
0.0390581
0.040401
0.0417805
0.0431772
0.0445721
0.0459414
0.0472659
0.0473755
0.0471211
0.0461402
0.0443641
0.043472
0.0423918
0.0416355
0.0408696
0.0402274
0.039474
0.0388749
0.03822
0.0377271
0.0371146
0.0365234
0.0355482
0.0342084
0.0325813
0.0311471
0.0298532
0.0292327
0.0288347
0.0280503
0.028819
0.0298658
0.0305098
0.0301183
0.0299921
0.0295005
0.0292279
0.0284112
0.0280814
0.0283277
0.0292364
0.030797
0.0332498
0.0364358
0.0393586
0.0413177
0.0429587
0.0448724
0.0475116
0.0496519
0.0511118
0.0505474
0.0487642
0.0459093
0.0430278
0.0401105
0.0380844
0.0365703
0.0359377
0.0365945
0.0398317
0.0420611
0.0449361
0.0470838
0.0490501
0.0515429
0.0551648
0.0602398
0.0661649
0.0742288
0.0821439
0.0920932
0.0995064
0.107436
0.111729
0.116376
0.118838
0.121751
0.123327
0.028639
0.0291859
0.0297619
0.0303642
0.0309798
0.0316175
0.032267
0.0329372
0.0336213
0.0343304
0.0350627
0.0358315
0.036638
0.0374938
0.0383898
0.0393205
0.0402695
0.0412276
0.0421783
0.0431103
0.0440055
0.0448453
0.0456051
0.0462634
0.0467943
0.0471765
0.0460295
0.0441995
0.0438351
0.0411319
0.0406499
0.0390281
0.0384369
0.037358
0.0367184
0.0360276
0.0354522
0.0349226
0.0343454
0.0338506
0.0333561
0.0329378
0.0325803
0.0323016
0.0321204
0.0318042
0.0311653
0.0303058
0.0297249
0.029133
0.028376
0.0290922
0.0295542
0.0298656
0.0292438
0.0289933
0.0284859
0.0282009
0.0274178
0.0271256
0.0273766
0.0282177
0.0295755
0.0317916
0.0348199
0.0379725
0.0405092
0.0423688
0.0442642
0.0475952
0.0504612
0.053298
0.0538776
0.0528069
0.0496826
0.0460172
0.0423968
0.0396902
0.0376654
0.0367379
0.0374123
0.0408376
0.0435782
0.0470393
0.0498157
0.0521625
0.0550354
0.0593109
0.0651267
0.071951
0.0808751
0.0894148
0.0996945
0.10702
0.114663
0.11866
0.123099
0.125537
0.128436
0.13008
0.0335048
0.0341767
0.0348776
0.0355979
0.0363237
0.0370596
0.0377921
0.0385224
0.0392379
0.0399395
0.0406185
0.0412792
0.041919
0.0425463
0.0431616
0.043758
0.0443121
0.0448036
0.0452069
0.045501
0.0450478
0.0440942
0.0432657
0.042367
0.0413858
0.0402409
0.0392726
0.0381798
0.0380423
0.0358503
0.0358002
0.0343865
0.0341882
0.0332982
0.0329701
0.0325027
0.032065
0.0317894
0.0313302
0.0309558
0.0305536
0.030243
0.029947
0.0297876
0.0297262
0.0297548
0.0298586
0.0300504
0.0298862
0.0296172
0.0288644
0.0294109
0.0292744
0.0290911
0.0281345
0.027714
0.0271987
0.0269285
0.0262071
0.0259617
0.0262378
0.027031
0.028202
0.0301752
0.0329854
0.0362542
0.0392773
0.0414878
0.0436904
0.0475833
0.051478
0.0558738
0.0578396
0.0572717
0.0534513
0.0487836
0.044378
0.0410319
0.0386339
0.0374332
0.0380819
0.041595
0.0448199
0.0490014
0.0524956
0.05548
0.0588742
0.0638804
0.0705875
0.078432
0.0882377
0.0973454
0.107738
0.114878
0.122067
0.125722
0.129756
0.132136
0.134947
0.13665
0.0368337
0.0374722
0.0381268
0.0387874
0.0394402
0.0400877
0.0407156
0.0413212
0.041888
0.0424091
0.0428678
0.0432568
0.0435647
0.0437913
0.043936
0.044007
0.043359
0.0419387
0.0402478
0.0386205
0.0371353
0.0359129
0.0349337
0.0341635
0.0334897
0.0328329
0.0323326
0.0319294
0.0320039
0.0304081
0.0307625
0.0295346
0.0297407
0.0290721
0.0290799
0.0288141
0.0285782
0.0284508
0.0281826
0.028075
0.0279676
0.0279738
0.0279877
0.0280465
0.0280968
0.0282099
0.0285107
0.0289486
0.0294191
0.0298423
0.029422
0.0296608
0.0288492
0.0279764
0.0266584
0.0260973
0.0256344
0.0254788
0.0249537
0.0248241
0.0251387
0.0258788
0.0268375
0.0285201
0.0309699
0.0341472
0.0373835
0.0402091
0.0432876
0.04726
0.052666
0.0585401
0.0621425
0.0617387
0.0568432
0.0511784
0.0461127
0.0422642
0.0395553
0.0381215
0.0386768
0.0422119
0.0459639
0.0509236
0.0552495
0.059351
0.0634877
0.069227
0.0770669
0.0859669
0.0966829
0.106076
0.116201
0.122868
0.129453
0.132755
0.136226
0.138425
0.141068
0.142811
0.0375256
0.0379739
0.0384177
0.0388523
0.0392656
0.0396608
0.0400275
0.0403621
0.0406483
0.0408804
0.0410405
0.0411158
0.0410868
0.0409417
0.04067
0.0377853
0.0359845
0.0349059
0.0335766
0.0318951
0.0301811
0.0286612
0.02741
0.026491
0.0258642
0.0254601
0.0253124
0.0254187
0.0258361
0.0252152
0.026104
0.0250468
0.0256184
0.0250763
0.0253651
0.0251345
0.0251512
0.0249714
0.0249368
0.0249709
0.0250603
0.0252044
0.025502
0.0258346
0.0263298
0.0267938
0.0273326
0.0278348
0.0285963
0.0294836
0.0300607
0.0302253
0.0291262
0.0273337
0.0252419
0.0242286
0.023721
0.0236663
0.0233441
0.0232916
0.0236551
0.0244143
0.0252224
0.0267289
0.0288036
0.0318314
0.035096
0.0385716
0.0426296
0.0465954
0.0536478
0.0608993
0.0661512
0.0655958
0.0596075
0.0530392
0.0475033
0.0433688
0.0404266
0.0388132
0.0392061
0.0427108
0.0470498
0.05287
0.058456
0.0643206
0.0695719
0.0762618
0.0855939
0.0955313
0.106999
0.116039
0.125096
0.130594
0.136281
0.139396
0.142346
0.144187
0.14644
0.148167
0.0353969
0.0355752
0.0357317
0.0358689
0.0359776
0.036062
0.036117
0.0361389
0.0361156
0.0360449
0.0359172
0.0357228
0.0354454
0.0350702
0.0345794
0.0339617
0.0324299
0.0296369
0.0280224
0.0264757
0.0245928
0.0226428
0.021019
0.0197768
0.0190166
0.0186522
0.0185862
0.0174828
0.0179494
0.0184119
0.0188576
0.0193698
0.0199296
0.0205995
0.0212885
0.0217865
0.0221389
0.0220593
0.0223017
0.0223804
0.0226129
0.0227465
0.0231028
0.0234071
0.0239806
0.0246226
0.0254929
0.0263771
0.0274
0.0286022
0.0296232
0.0301386
0.0282858
0.0255437
0.0230036
0.0217296
0.0212631
0.0214849
0.0216965
0.0219912
0.0223906
0.0233202
0.0238754
0.0252172
0.0266641
0.0293116
0.0323952
0.036146
0.0406818
0.0461361
0.0535622
0.0627024
0.0689704
0.0679799
0.061185
0.0542125
0.0485457
0.044384
0.0413641
0.0396376
0.0398143
0.0431759
0.0478999
0.0546339
0.061922
0.0701909
0.0774877
0.0860825
0.09737
0.108541
0.119938
0.127576
0.134373
0.138111
0.142391
0.145523
0.148248
0.149648
0.150973
0.152392
0.0310509
0.0309793
0.0308788
0.0307577
0.0306106
0.0304405
0.0302425
0.0300159
0.0297553
0.0294619
0.02913
0.028758
0.0283373
0.0278603
0.0273128
0.0266808
0.0259471
0.0251022
0.0241463
0.0218627
0.019968
0.0179866
0.0160836
0.0145497
0.0134768
0.0128492
0.0126079
0.0113171
0.0117067
0.0120793
0.0124331
0.0128593
0.0133126
0.0138742
0.014451
0.0150949
0.0157717
0.0165097
0.017294
0.0181525
0.0190879
0.0201283
0.0206327
0.0209354
0.0214851
0.0221559
0.0231717
0.0243618
0.0259007
0.0277403
0.0296825
0.0324041
0.0320693
0.0279281
0.0229438
0.0201021
0.0189295
0.0189785
0.0192447
0.0200103
0.0202415
0.0214603
0.0217339
0.0231824
0.0241979
0.0268612
0.0298308
0.0335963
0.0378693
0.0452923
0.0528458
0.0637083
0.0705869
0.0688227
0.061602
0.0545902
0.0490235
0.0449188
0.0419393
0.0400669
0.0397874
0.0423755
0.0475244
0.0549686
0.0639349
0.0748164
0.085643
0.0966627
0.109304
0.12161
0.129054
0.133022
0.137075
0.141118
0.145053
0.148741
0.15202
0.153949
0.154688
0.155553
0.0254656
0.025231
0.0249697
0.0246924
0.0243967
0.0240832
0.0237492
0.023395
0.0230189
0.022622
0.0222023
0.0217598
0.0212915
0.0207958
0.0202667
0.0196976
0.0190765
0.0183897
0.0176217
0.0167626
0.0158199
0.0148044
0.0134784
0.0111374
0.00943126
0.00846311
0.00826008
0.0073057
0.00752604
0.00774861
0.00795019
0.00822023
0.00850523
0.00888144
0.00927044
0.00972512
0.0102082
0.0107531
0.0113339
0.011986
0.0127046
0.0135245
0.0144464
0.0155012
0.0166936
0.0180407
0.0195314
0.0209276
0.0225593
0.0244741
0.0262335
0.0277691
0.028783
0.0254623
0.0197716
0.0176465
0.0171576
0.0173054
0.0177631
0.0192289
0.0192853
0.0207563
0.020903
0.0223475
0.0228709
0.0249311
0.0268261
0.0301927
0.0341522
0.0405085
0.0501123
0.0582595
0.0646081
0.0631945
0.0580019
0.0523312
0.0478859
0.0444578
0.0417644
0.0398839
0.0393499
0.0417036
0.0464093
0.0532178
0.062735
0.0741058
0.0874875
0.0952921
0.0989342
0.102936
0.107319
0.112105
0.117307
0.122913
0.128865
0.135074
0.141342
0.147345
0.152581
0.156372
0.0196241
0.0193296
0.0190159
0.018692
0.0183586
0.0180139
0.0176582
0.0172908
0.0169116
0.0165204
0.0161171
0.0157015
0.0152732
0.0148323
0.0143779
0.0139095
0.0134244
0.012919
0.0123845
0.0118081
0.0111734
0.0104686
0.00969957
0.00887366
0.00735129
0.00587799
0.00546189
0.00512525
0.00517011
0.00523529
0.00529696
0.00541058
0.00553597
0.00572236
0.00591704
0.00616123
0.00642384
0.00673464
0.00706793
0.00745622
0.0078891
0.00839355
0.00898475
0.00968225
0.0104958
0.0114406
0.0125161
0.0137154
0.0150063
0.016342
0.0176414
0.0188365
0.0194469
0.0198792
0.0203855
0.0211832
0.0188643
0.0172732
0.0170913
0.0190855
0.0185987
0.0204972
0.0204268
0.0212728
0.0217455
0.0227809
0.0257278
0.0297909
0.0348479
0.0402152
0.0534664
0.056802
0.0565167
0.0564344
0.0552672
0.049067
0.0445174
0.0414807
0.0392293
0.0376136
0.0363602
0.0364191
0.0390693
0.0450336
0.0544757
0.0605341
0.0627888
0.0656886
0.0687374
0.0722294
0.0762277
0.0808178
0.086064
0.0921109
0.0990871
0.107189
0.116556
0.127251
0.138942
0.150368
0.0143736
0.0141079
0.0138312
0.0135488
0.0132639
0.0129731
0.0126787
0.0123784
0.0120738
0.0117636
0.0114486
0.0111281
0.0108026
0.0104718
0.0101361
0.00979558
0.00945022
0.00909964
0.00874227
0.00837567
0.00799093
0.00757461
0.00711177
0.00660379
0.00605131
0.00493542
0.00384237
0.00403841
0.00405201
0.00402222
0.00399665
0.00400934
0.00403108
0.0040881
0.00415061
0.00424153
0.00434073
0.00446699
0.0046018
0.00476538
0.0049493
0.00516995
0.0054338
0.00576082
0.00615685
0.00663613
0.0072008
0.00785604
0.00858483
0.00936569
0.0101539
0.010913
0.0112649
0.0114578
0.0115949
0.0118087
0.00946797
0.00959894
0.0147001
0.020613
0.0225668
0.0255818
0.0264286
0.0280421
0.0290673
0.0290951
0.0308664
0.0292779
0.0287868
0.0289259
0.031652
0.0334642
0.0330735
0.0328267
0.0326492
0.0324683
0.0322727
0.0320552
0.0315151
0.0301561
0.0290851
0.0296072
0.0308563
0.0313192
0.0317293
0.0322984
0.0333938
0.0350793
0.0368734
0.03899
0.0414666
0.0443941
0.0478316
0.051997
0.0571062
0.063607
0.0721155
0.0837675
0.100424
0.125293
0.0103885
0.010209
0.0100247
0.00983698
0.00965029
0.00946028
0.0092702
0.0090769
0.00888267
0.00868531
0.00848623
0.00828391
0.00807893
0.00787018
0.00765775
0.00744134
0.00722149
0.00699911
0.00677515
0.00655007
0.00632305
0.00609108
0.00583866
0.00553623
0.00515628
0.00451187
0.00270566
0.00298447
0.00347689
0.00345334
0.00339586
0.00338089
0.00335784
0.00336389
0.00336456
0.00338398
0.00340095
0.00342996
0.00345566
0.00349181
0.00353195
0.00358757
0.00365873
0.0037532
0.00387452
0.00403181
0.00422856
0.00446614
0.00474142
0.00504135
0.00534682
0.0056355
0.00576286
0.00579735
0.00576179
0.00573179
0.00578229
0.00628957
0.0086114
0.0109469
0.011477
0.0119757
0.0127212
0.013532
0.0141801
0.015059
0.0157902
0.016334
0.0168691
0.0167817
0.0153313
0.0156792
0.0154197
0.0147451
0.0143862
0.014075
0.0137924
0.0135798
0.01327
0.0130256
0.0127614
0.0127777
0.0129699
0.0130033
0.0128
0.0126727
0.0129072
0.0133885
0.0138619
0.0144561
0.0151923
0.0160889
0.0171315
0.0184127
0.0199876
0.0220596
0.0249074
0.0292281
0.0366542
0.0539218
0.00750328
0.00740216
0.00729576
0.00718511
0.00707325
0.00695679
0.00683853
0.00671522
0.00658938
0.006458
0.0063232
0.00618223
0.00603665
0.00588397
0.00572538
0.00555893
0.00538517
0.0052018
0.0050084
0.00480316
0.00458756
0.00436148
0.00412224
0.00385867
0.00354929
0.00318455
0.00275577
0.000638848
0.000618579
0.000613311
0.000606681
0.000607356
0.000609428
0.00061466
0.000620256
0.00062634
0.000632403
0.000637489
0.000641077
0.000642446
0.000642447
0.000641144
0.000639419
0.000638096
0.000638137
0.0006401
0.000644171
0.00065101
0.000660483
0.00067294
0.000687139
0.000699376
0.000704796
0.000705106
0.000701668
0.000695766
0.00068367
0.000649543
0.000672562
0.000733418
0.000780286
0.000824324
0.000858454
0.000891225
0.000918738
0.000946408
0.000971183
0.00100787
0.00104763
0.00109388
0.00114319
0.00118107
0.0012133
0.00123602
0.00124348
0.00124204
0.00123294
0.00121667
0.00119516
0.00117003
0.00114483
0.00113424
0.00112301
0.00110728
0.0010873
0.00106339
0.0010385
0.00101774
0.00099978
0.000984181
0.000969961
0.000956385
0.000941698
0.000924998
0.000904901
0.000880374
0.000850295
0.000813764
0.000769871
0.000717688
0.000376871
0.0196668
0.0223962
0.0224854
0.0224883
0.0224879
0.0224875
0.0224868
0.0224863
0.0224857
0.0224854
0.0224853
0.0224856
0.0224861
0.0224867
0.0224872
0.0224877
0.022488
0.0224884
0.0224886
0.000403018
0.0176242
0.0222159
0.0224616
0.0224721
0.0224721
0.0224717
0.0224711
0.0224706
0.0224701
0.02247
0.0224704
0.0224713
0.0224729
0.0224744
0.0224759
0.0224772
0.0224781
0.022479
0.0224795
0.000427816
0.0161198
0.0219891
0.0224322
0.0224558
0.0224567
0.0224563
0.0224559
0.0224556
0.0224552
0.0224553
0.0224561
0.0224578
0.0224603
0.0224629
0.0224653
0.0224674
0.022469
0.0224703
0.0224711
0.000451209
0.0149563
0.0217302
0.0223967
0.0224394
0.0224417
0.0224415
0.0224412
0.0224409
0.0224407
0.022441
0.0224422
0.0224447
0.0224482
0.0224518
0.0224551
0.022458
0.0224602
0.022462
0.0224632
0.000473207
0.0140184
0.0214488
0.0223546
0.0224226
0.0224269
0.022427
0.0224268
0.0224266
0.0224265
0.022427
0.0224287
0.022432
0.0224365
0.0224412
0.0224454
0.022449
0.0224519
0.0224541
0.0224556
0.000493882
0.0132074
0.0211481
0.0223057
0.0224051
0.0224121
0.0224126
0.0224125
0.0224125
0.0224126
0.0224134
0.0224156
0.0224196
0.0224251
0.0224308
0.022436
0.0224404
0.022444
0.0224466
0.0224484
0.000513242
0.0124531
0.0208272
0.0222496
0.0223866
0.0223974
0.0223983
0.0223985
0.0223987
0.022399
0.0224001
0.0224028
0.0224076
0.022414
0.0224208
0.022427
0.0224322
0.0224364
0.0224396
0.0224416
0.000531392
0.0117425
0.0204879
0.0221863
0.022367
0.0223827
0.0223842
0.0223847
0.0223851
0.0223857
0.022387
0.0223902
0.0223959
0.0224034
0.0224112
0.0224183
0.0224243
0.0224292
0.0224329
0.0224352
0.000548353
0.0110854
0.0201344
0.0221158
0.0223462
0.022368
0.0223703
0.022371
0.0223717
0.0223725
0.0223743
0.0223781
0.0223846
0.0223931
0.022402
0.0224101
0.0224169
0.0224224
0.0224266
0.0224292
0.00056424
0.0104897
0.0197712
0.0220382
0.0223241
0.0223532
0.0223565
0.0223577
0.0223586
0.0223597
0.0223619
0.0223662
0.0223737
0.0223832
0.0223932
0.0224022
0.0224099
0.0224161
0.0224207
0.0224236
0.00057906
0.00995635
0.0194033
0.0219539
0.0223006
0.0223385
0.022343
0.0223445
0.0223457
0.0223472
0.0223498
0.0223549
0.0223631
0.0223737
0.0223847
0.0223948
0.0224033
0.0224102
0.0224153
0.0224184
0.000592921
0.00948181
0.0190352
0.0218632
0.0222758
0.0223237
0.0223297
0.0223316
0.0223332
0.0223352
0.0223382
0.0223439
0.022353
0.0223646
0.0223768
0.0223878
0.0223972
0.0224047
0.0224103
0.0224138
0.000605814
0.00906095
0.0186707
0.0217668
0.0222496
0.022309
0.0223167
0.0223191
0.0223211
0.0223235
0.022327
0.0223334
0.0223434
0.0223561
0.0223693
0.0223813
0.0223916
0.0223998
0.0224059
0.0224097
0.000617841
0.00868767
0.0183128
0.0216653
0.022222
0.0222942
0.022304
0.022307
0.0223094
0.0223122
0.0223163
0.0223234
0.0223343
0.0223481
0.0223623
0.0223754
0.0223865
0.0223954
0.0224021
0.0224061
0.000628964
0.0083554
0.017964
0.0215594
0.0221932
0.0222796
0.0222917
0.0222953
0.0222982
0.0223015
0.0223062
0.022314
0.0223258
0.0223407
0.022356
0.0223701
0.0223822
0.0223917
0.0223989
0.0224032
0.000639217
0.00805459
0.0176262
0.0214501
0.0221631
0.0222652
0.0222799
0.0222842
0.0222876
0.0222915
0.0222967
0.0223053
0.0223181
0.022334
0.0223505
0.0223656
0.0223785
0.0223888
0.0223965
0.022401
0.000648547
0.00778227
0.0173007
0.021338
0.0221321
0.0222511
0.0222687
0.0222737
0.0222777
0.0222822
0.022288
0.0222973
0.0223111
0.0223281
0.0223458
0.0223619
0.0223757
0.0223867
0.0223949
0.0223997
0.000657
0.00753562
0.016989
0.0212244
0.0221004
0.0222374
0.0222582
0.022264
0.0222687
0.0222737
0.0222803
0.0222903
0.0223051
0.0223232
0.022342
0.0223592
0.0223739
0.0223856
0.0223943
0.0223994
0.000664444
0.00731241
0.0166921
0.0211103
0.0220683
0.0222245
0.0222486
0.0222553
0.0222607
0.0222664
0.0222736
0.0222845
0.0223002
0.0223195
0.0223394
0.0223577
0.0223733
0.0223856
0.0223949
0.0224003
0.000671118
0.00711073
0.0164115
0.020997
0.0220363
0.0222124
0.02224
0.0222479
0.022254
0.0222604
0.0222683
0.02228
0.0222967
0.0223171
0.0223382
0.0223575
0.0223739
0.022387
0.0223969
0.0224025
0.000676546
0.00692913
0.0161482
0.020886
0.0220048
0.0222016
0.0222329
0.0222421
0.0222489
0.0222559
0.0222645
0.022277
0.0222947
0.0223162
0.0223384
0.0223589
0.0223762
0.02239
0.0224004
0.0224064
0.000681126
0.00676656
0.015904
0.020779
0.0219745
0.0221925
0.0222276
0.0222383
0.0222458
0.0222534
0.0222626
0.0222759
0.0222946
0.0223172
0.0223406
0.0223621
0.0223803
0.0223948
0.0224057
0.022412
0.00068466
0.00662211
0.0156802
0.0206782
0.0219459
0.0221856
0.0222248
0.022237
0.022245
0.0222532
0.022263
0.022277
0.0222967
0.0223204
0.0223448
0.0223674
0.0223865
0.0224017
0.0224132
0.0224198
0.000686668
0.00648862
0.015471
0.0205834
0.0219194
0.0221815
0.0222252
0.0222388
0.0222472
0.0222558
0.022266
0.0222807
0.0223013
0.0223261
0.0223516
0.0223752
0.0223952
0.0224111
0.0224231
0.02243
0.000689622
0.00634955
0.0152565
0.0204903
0.0218947
0.0221813
0.0222298
0.0222445
0.022253
0.0222617
0.0222723
0.0222875
0.0223088
0.0223346
0.0223612
0.0223858
0.0224067
0.0224232
0.0224357
0.022443
0.000696012
0.00620447
0.0150323
0.0201348
0.0218728