/*--------------------------------*- C++ -*----------------------------------*\
  =========                 |
  \\      /  F ield         | OpenFOAM: The Open Source CFD Toolbox
   \\    /   O peration     | Website:  https://openfoam.org
    \\  /    A nd           | Version:  7
     \\/     M anipulation  |
\*---------------------------------------------------------------------------*/
FoamFile
{
    version     2.0;
    format      ascii;
    class       volScalarField;
    location    "0.1375";
    object      nut;
}
// * * * * * * * * * * * * * * * * * * * * * * * * * * * * * * * * * * * * * //

dimensions      [0 2 -1 0 0 0 0];

internalField   nonuniform List<scalar> 
48560
(
0.0109737
0.0108591
0.0107428
0.0106293
0.0105199
0.0104152
0.0103164
0.0102242
0.0101392
0.0100622
0.00999376
0.00993445
0.00988481
0.00984534
0.00981655
0.00979891
0.00979293
0.00979909
0.00981794
0.00985001
0.00989589
0.00995622
0.0100317
0.0101231
0.0102312
0.010357
0.0105014
0.0106656
0.0109097
0.011187
0.0114957
0.0118335
0.0121954
0.0125761
0.0129685
0.0133742
0.0137934
0.014233
0.0147002
0.0152163
0.0158008
0.0164517
0.0171728
0.0179348
0.0186576
0.0190399
0.0182837
0.0159676
0.0125075
0.00882589
0.0027288
0.000930472
0.000976961
0.00096811
0.000996071
0.00099333
0.00103448
0.00104539
0.00111906
0.00117795
0.00133461
0.00141797
0.00147704
0.00134195
0.00147459
0.00116008
0.00117267
0.001222
0.00130549
0.00140813
0.0015377
0.00167394
0.00182742
0.00197027
0.0021075
0.00220703
0.00224949
0.00218695
0.00202247
0.0018236
0.00160592
0.00163222
0.00174761
0.00175034
0.00173292
0.00166658
0.00160078
0.00153269
0.00148619
0.00144006
0.00141113
0.00138601
0.00136374
0.00133895
0.00131369
0.00128166
0.00124376
0.00119479
0.00113398
0.00105896
0.0104091
0.0103744
0.0103419
0.0103136
0.0102905
0.0102733
0.0102629
0.0102597
0.0102646
0.010278
0.0103004
0.0103324
0.0103745
0.0104271
0.0104907
0.0105659
0.0106532
0.0107528
0.0108653
0.0109906
0.0111293
0.0112816
0.0114477
0.0116277
0.0118218
0.0120299
0.0122516
0.0124871
0.012832
0.0131973
0.0135867
0.0139978
0.0144355
0.014903
0.0154153
0.0159906
0.0166401
0.017377
0.0182058
0.019126
0.020134
0.021161
0.0220253
0.0223329
0.0217185
0.0199047
0.0171451
0.0139664
0.0113517
0.00999881
0.0104304
0.016789
0.0167868
0.0166464
0.0166961
0.0165327
0.0155166
0.0153021
0.0139816
0.013917
0.0124219
0.0118381
0.0105567
0.0111026
0.00970123
0.00967828
0.00942964
0.00948676
0.00922808
0.00919243
0.00917852
0.00931146
0.00947374
0.00972372
0.00999409
0.0101932
0.0101336
0.00967516
0.010505
0.0103687
0.0114339
0.0162505
0.0148503
0.0140152
0.0136373
0.0136112
0.0142586
0.0159081
0.0176915
0.0198597
0.0220432
0.0241474
0.0263964
0.0289674
0.0318087
0.0351617
0.0392933
0.0454352
0.0557386
0.0795714
0.0112002
0.0112295
0.0112663
0.0113097
0.011361
0.0114201
0.011488
0.0115643
0.0116498
0.0117441
0.0118481
0.0119613
0.0120846
0.0122177
0.0123611
0.0125146
0.0126786
0.0128528
0.0130375
0.013233
0.0134397
0.0136578
0.013888
0.0141308
0.0143871
0.0146576
0.0149435
0.0152475
0.0157159
0.0162311
0.0168027
0.0174365
0.0181418
0.0189255
0.0197988
0.020765
0.021823
0.0229502
0.0240795
0.0250318
0.0256201
0.0255091
0.0245739
0.0227741
0.0203055
0.0175607
0.015238
0.0137253
0.0134538
0.0146103
0.0178898
0.0263048
0.0259034
0.0254525
0.0240057
0.0247609
0.0224105
0.0236589
0.0202966
0.0210283
0.0181477
0.0172709
0.0154706
0.0156266
0.0140941
0.0145018
0.0146367
0.0154652
0.015214
0.0160481
0.0159416
0.0158821
0.0159223
0.0160211
0.0162259
0.0165007
0.0168834
0.0171806
0.0177248
0.016366
0.0234447
0.0373359
0.0346863
0.0332347
0.0328947
0.0274273
0.0316573
0.0323292
0.0425923
0.0518705
0.062314
0.0684964
0.0749958
0.0825782
0.091528
0.102933
0.106043
0.0962002
0.0892948
0.0874465
0.0136173
0.0136787
0.0137525
0.0138369
0.013933
0.0140402
0.0141593
0.0142895
0.0144314
0.0145848
0.0147504
0.0149282
0.0151192
0.0153235
0.015542
0.0157749
0.0160235
0.0162883
0.0165708
0.0168723
0.0171936
0.0175362
0.0179013
0.0182903
0.0187051
0.0191477
0.0196201
0.0201262
0.020895
0.0217336
0.0226448
0.0236271
0.0246716
0.0257531
0.0268252
0.0278008
0.0285471
0.028908
0.0287238
0.0279608
0.0265611
0.0246426
0.0224446
0.0202724
0.0183543
0.0170161
0.0165502
0.0171674
0.0189193
0.0219314
0.0272161
0.0334786
0.0342214
0.034613
0.0317213
0.0327532
0.0289248
0.0294115
0.0257898
0.0257824
0.0227124
0.0213041
0.0197125
0.0196307
0.0194055
0.0194676
0.0207702
0.0222167
0.0227014
0.0230523
0.0234995
0.0240816
0.0247438
0.0255245
0.0259532
0.0237224
0.0202803
0.0202106
0.0232196
0.0274623
0.0476222
0.0700052
0.0670666
0.0658038
0.0532418
0.0492557
0.0537777
0.0500328
0.0538409
0.0542468
0.0603298
0.0647231
0.0726805
0.0790182
0.0868668
0.093105
0.0973256
0.0977886
0.096748
0.096193
0.0177783
0.0178718
0.0179882
0.018125
0.0182826
0.0184609
0.01866
0.0188801
0.0191215
0.0193846
0.0196701
0.0199784
0.0203103
0.0206663
0.0210473
0.0214537
0.0218864
0.0223456
0.022832
0.0233459
0.0238878
0.0244576
0.0250561
0.0256833
0.0263386
0.0270193
0.0277208
0.0284363
0.0293866
0.0303183
0.0311549
0.0318502
0.0323067
0.0324544
0.032257
0.0316659
0.030659
0.0292661
0.0275579
0.0257551
0.0239141
0.0222255
0.0208049
0.0198437
0.019522
0.0200296
0.0214605
0.0237976
0.0270606
0.0296534
0.0360635
0.0376659
0.0388584
0.0384141
0.0369933
0.0370497
0.034373
0.0342538
0.031347
0.030945
0.0283845
0.0268427
0.0254699
0.0255596
0.0266852
0.0261877
0.0291694
0.0302673
0.0330637
0.0342476
0.0360682
0.0369095
0.0370511
0.0357785
0.0327113
0.0286878
0.0254247
0.025616
0.0263286
0.0347237
0.053403
0.065445
0.0693548
0.0465562
0.0433945
0.0444596
0.046576
0.0467116
0.0523061
0.0547497
0.0625047
0.0677411
0.0772263
0.0851343
0.0954178
0.101606
0.103965
0.105308
0.106898
0.10803
0.025078
0.0251881
0.0253442
0.0255388
0.025773
0.026043
0.02635
0.0266913
0.0270681
0.0274782
0.0279227
0.0283998
0.0289102
0.029452
0.0300248
0.0306253
0.0312506
0.0318931
0.0325442
0.0331943
0.0338302
0.034437
0.0349962
0.0354909
0.0359031
0.0362185
0.0364248
0.0365192
0.0364065
0.0360941
0.0355032
0.0346811
0.0335875
0.0322968
0.030865
0.0293684
0.0278435
0.0263766
0.025028
0.0238814
0.0230179
0.0225571
0.0226106
0.0233035
0.0247243
0.0269011
0.0297591
0.0332658
0.0326655
0.0349691
0.0395266
0.0408259
0.0425763
0.0428527
0.0422885
0.0412481
0.0399836
0.038658
0.0368356
0.0355083
0.0337718
0.032189
0.0316719
0.0324489
0.0348337
0.0342303
0.0383856
0.0391554
0.0435119
0.0439153
0.0470505
0.0458746
0.0457179
0.0417832
0.0373011
0.0319928
0.0294643
0.0303146
0.0323704
0.0409914
0.0529833
0.0602889
0.0606644
0.0483409
0.0496818
0.0489254
0.0509914
0.0516476
0.0560503
0.0590664
0.0657658
0.0706938
0.0789448
0.0865634
0.0966381
0.105553
0.110597
0.113772
0.116131
0.117678
0.0366395
0.0366407
0.0367174
0.0368547
0.0370545
0.0373022
0.0375963
0.037922
0.038275
0.0386405
0.039013
0.0393769
0.039724
0.0400378
0.0403082
0.0405195
0.0406632
0.0407282
0.0407092
0.0405936
0.0403788
0.0400584
0.0396345
0.0391078
0.0384857
0.0377777
0.0369991
0.0361698
0.0350382
0.0338627
0.032645
0.0314319
0.030237
0.0291119
0.0280685
0.0271607
0.0264216
0.0259132
0.0256864
0.0258158
0.0263762
0.027441
0.0290651
0.0312697
0.0340318
0.0372626
0.040921
0.0401487
0.0381794
0.0408368
0.0430934
0.043759
0.0455715
0.0460214
0.0453928
0.0442747
0.0431341
0.0417579
0.040129
0.0387969
0.0375496
0.0366812
0.0369686
0.038761
0.0416362
0.0415588
0.0457039
0.0467006
0.050933
0.0515926
0.0545734
0.0529751
0.052125
0.046955
0.0418263
0.0365256
0.0345856
0.0347567
0.037383
0.0451312
0.0515652
0.0557936
0.0536868
0.0491197
0.0515682
0.0516651
0.0541805
0.0557909
0.0602667
0.0640524
0.0707666
0.0772783
0.086828
0.0964077
0.105904
0.113517
0.118266
0.122237
0.124853
0.126588
0.04939
0.0489478
0.0485355
0.0481657
0.047821
0.0474923
0.0471635
0.0468216
0.0464544
0.0460515
0.0456068
0.0451135
0.0445696
0.0439709
0.0433186
0.0426128
0.0418598
0.041066
0.0402442
0.0393957
0.0385313
0.0376552
0.0367779
0.0359051
0.0350463
0.0342075
0.0333963
0.0326186
0.0318271
0.031107
0.0304832
0.0299662
0.0295901
0.0293699
0.0293409
0.0295323
0.0299882
0.0307445
0.0318535
0.0333493
0.0352585
0.0375797
0.0402989
0.0433572
0.0467083
0.0503239
0.0494203
0.0443629
0.0435162
0.0453529
0.04576
0.046019
0.0481967
0.048809
0.0478951
0.0467913
0.0455481
0.0440501
0.0424492
0.0409371
0.0401075
0.0397939
0.0409944
0.0435508
0.0468253
0.0476736
0.0514125
0.0526872
0.0566337
0.0579712
0.0603711
0.0588782
0.0566932
0.0507438
0.044981
0.0402551
0.0389458
0.0393032
0.0422549
0.0479879
0.0517122
0.0557897
0.0542204
0.0536096
0.0553421
0.0563124
0.0583804
0.060735
0.0647916
0.0693923
0.0760313
0.0835721
0.0931474
0.103501
0.113948
0.121913
0.127001
0.131214
0.134059
0.135943
0.0527414
0.0517354
0.0507179
0.0497451
0.0487871
0.0478586
0.0469385
0.0460355
0.0451376
0.0442523
0.0433751
0.0425135
0.0416671
0.0408416
0.0400386
0.0392627
0.0385165
0.0378035
0.0371264
0.0364917
0.0359047
0.0353725
0.0349028
0.0345046
0.0341881
0.0339652
0.0338505
0.0338612
0.0339491
0.0341605
0.0345245
0.0350371
0.0357197
0.0365718
0.0376396
0.0389374
0.0404842
0.0422912
0.0443651
0.0467023
0.0492814
0.0520758
0.0550517
0.0581876
0.0614854
0.0600558
0.0528314
0.0492158
0.048268
0.0490771
0.0480493
0.0480695
0.0502948
0.0507617
0.0495457
0.0484
0.0468863
0.0454086
0.0436281
0.0421439
0.0415345
0.0417442
0.0434934
0.0465578
0.0502081
0.0520441
0.055042
0.0565009
0.0601035
0.0618339
0.0636461
0.0624108
0.0594141
0.0537529
0.0483466
0.0445645
0.0433206
0.0435992
0.0461913
0.0497717
0.0519614
0.0557346
0.0553887
0.0567528
0.058413
0.0600303
0.0621882
0.0652832
0.0696377
0.0751529
0.0823874
0.0909445
0.101397
0.112125
0.122576
0.130579
0.136189
0.140434
0.143575
0.145575
0.0475774
0.0466749
0.0457879
0.0449567
0.0441633
0.0434161
0.0427028
0.0420309
0.0413943
0.0408006
0.0402482
0.0397446
0.0392907
0.0388929
0.0385537
0.0382798
0.0380762
0.0379512
0.0379133
0.0379742
0.0381464
0.0384459
0.0388904
0.0395015
0.0403042
0.0413284
0.0426092
0.0441798
0.0451932
0.0463078
0.0475431
0.0488807
0.0503108
0.0518232
0.0534808
0.0552881
0.057235
0.0593234
0.0615374
0.0638727
0.0663069
0.0688343
0.0714419
0.0741384
0.0708346
0.0625777
0.0568724
0.0534445
0.0521692
0.0519764
0.0499515
0.0497467
0.051766
0.0520313
0.050554
0.0493078
0.0475307
0.0460279
0.044038
0.04256
0.0420805
0.0426261
0.044675
0.04801
0.0520245
0.0546513
0.056983
0.0585875
0.0619087
0.0639234
0.0656027
0.0647511
0.0616204
0.056543
0.0517496
0.0487558
0.0475347
0.0476447
0.0492283
0.051257
0.0528919
0.057096
0.0579377
0.0602936
0.0620335
0.0639801
0.0663922
0.0699567
0.0748801
0.0810217
0.0892075
0.0985732
0.110123
0.121195
0.132124
0.139678
0.145741
0.149777
0.153302
0.155375
0.0435628
0.043131
0.0427333
0.0423857
0.0420839
0.0418297
0.0416223
0.041466
0.0413637
0.041322
0.0413467
0.0414458
0.0416265
0.0418974
0.0422676
0.0427482
0.0433512
0.0440912
0.0449845
0.04605
0.0473083
0.0487829
0.0504985
0.052483
0.0547649
0.0573743
0.0603414
0.0636693
0.0650618
0.0664498
0.0678731
0.0693009
0.070724
0.0721254
0.073601
0.0751449
0.076749
0.078407
0.0801093
0.0818507
0.0836292
0.0854483
0.0873126
0.0795884
0.0723355
0.065359
0.0603903
0.0567791
0.0551889
0.0541201
0.0515091
0.0510605
0.0526641
0.0526699
0.0509295
0.0495253
0.0475413
0.0459831
0.0438145
0.0423597
0.0419346
0.0426512
0.0447435
0.048161
0.0523988
0.055577
0.057547
0.0593498
0.0623752
0.0647576
0.0666469
0.0664819
0.0639107
0.0598412
0.0558312
0.0532242
0.051544
0.0510855
0.0515826
0.0524837
0.0539216
0.0584693
0.0603635
0.063462
0.0655928
0.0678664
0.0707199
0.0748056
0.0805536
0.0874107
0.09684
0.106932
0.119706
0.130692
0.142121
0.14914
0.155622
0.159372
0.163267
0.165404
0.0448213
0.0448747
0.0449782
0.0451328
0.0453428
0.0456101
0.0459412
0.0463417
0.0468207
0.047387
0.0480517
0.0488254
0.0497202
0.0507459
0.0519144
0.0532379
0.0547316
0.0564094
0.0582879
0.060382
0.0627073
0.0652758
0.0681015
0.0711912
0.0745474
0.0781619
0.0820175
0.0860483
0.0871161
0.0880937
0.0890535
0.0899675
0.0908398
0.0916472
0.0924912
0.0933579
0.0942444
0.0951393
0.096042
0.0944602
0.0921645
0.0886853
0.0847385
0.0792478
0.0736527
0.0675537
0.0628305
0.0592735
0.0572278
0.0555245
0.0525733
0.0520306
0.0530169
0.0527464
0.0507454
0.049172
0.0470586
0.0454315
0.0431552
0.0417242
0.0413241
0.0420775
0.0440549
0.0473862
0.0516879
0.0552655
0.0573747
0.0594081
0.0622082
0.0651814
0.0675895
0.0684871
0.0668816
0.0639003
0.0604538
0.0577972
0.055343
0.0540928
0.0535289
0.0537011
0.0551625
0.0601461
0.0629415
0.0667333
0.0693723
0.0719735
0.075292
0.0799948
0.0866554
0.0943917
0.105131
0.115989
0.129892
0.140754
0.15242
0.15895
0.165685
0.169261
0.173401
0.17562
0.0514096
0.0519152
0.0524872
0.0531146
0.0538044
0.0545602
0.0553906
0.0563026
0.0573071
0.0584141
0.0596364
0.0609854
0.0624736
0.0641091
0.0658983
0.0678465
0.0699575
0.0722328
0.074675
0.0772808
0.0800452
0.0829572
0.0860006
0.0891432
0.092347
0.0955595
0.0987235
0.101761
0.102247
0.101866
0.0999042
0.0961605
0.0943072
0.092008
0.0903919
0.088732
0.0873352
0.0856844
0.0843479
0.0828499
0.0816503
0.0801175
0.0785406
0.0760289
0.07262
0.0684806
0.0646301
0.060946
0.0584915
0.056305
0.0532068
0.0528081
0.0529637
0.052351
0.0500575
0.0483145
0.0461418
0.0444602
0.0421478
0.0407547
0.0403807
0.0410981
0.0428634
0.0459719
0.0501841
0.0541325
0.0567961
0.0590582
0.0617212
0.0654738
0.0686341
0.07102
0.0707442
0.0689232
0.0656638
0.062383
0.0589681
0.0567684
0.0552007
0.0548405
0.0563159
0.0616576
0.065317
0.0698693
0.0732293
0.0762796
0.0801097
0.0856173
0.0932877
0.102154
0.114204
0.125901
0.140622
0.151411
0.16299
0.169095
0.175819
0.179323
0.183573
0.185895
0.0613997
0.0622916
0.0632577
0.0642725
0.0653414
0.0664658
0.0676509
0.0688999
0.0702184
0.0716119
0.0730878
0.0746532
0.0763155
0.078079
0.0799411
0.0818906
0.0839093
0.085979
0.0880762
0.0901738
0.0922385
0.0942305
0.0960979
0.0977837
0.0992259
0.100363
0.0982316
0.0945718
0.0941003
0.0885131
0.087673
0.0843151
0.0831402
0.0808724
0.0795177
0.0780331
0.0767829
0.0756268
0.0743421
0.0731989
0.0719977
0.0708871
0.0698119
0.0687952
0.0678606
0.0665065
0.0643377
0.0615741
0.0592405
0.0567401
0.0537815
0.0533882
0.0525882
0.0514972
0.0488894
0.0470055
0.0448478
0.0431811
0.0409408
0.0396258
0.0392753
0.0399104
0.0413955
0.044175
0.0481622
0.0524195
0.0558799
0.058446
0.0610824
0.0657914
0.0699576
0.0742646
0.0755997
0.0747977
0.0711601
0.0667394
0.0622835
0.059054
0.0566966
0.0558644
0.0573447
0.0629499
0.0673919
0.0728442
0.0771721
0.0808035
0.0852153
0.0917259
0.100528
0.11077
0.124127
0.136775
0.151999
0.162669
0.17383
0.17951
0.185937
0.189419
0.193655
0.196082
0.0715648
0.072649
0.0737951
0.0749669
0.0761654
0.0773872
0.0786315
0.0798931
0.081168
0.0824499
0.0837334
0.0850136
0.0862871
0.0875508
0.0888001
0.0900204
0.0911834
0.0922535
0.0931921
0.0939591
0.0932398
0.0915311
0.0901211
0.0885912
0.086902
0.0848634
0.0831753
0.0811592
0.0812125
0.0767923
0.0769121
0.0740475
0.0737399
0.0719099
0.0712411
0.0702513
0.069302
0.0687018
0.0676783
0.0668033
0.0658081
0.0649369
0.0640012
0.0632474
0.0625734
0.0619522
0.0613439
0.060775
0.0593332
0.0575336
0.0546646
0.0540555
0.0522743
0.0504248
0.047335
0.0452476
0.0431302
0.0415295
0.0394108
0.0381929
0.0379011
0.0384858
0.0397149
0.0421581
0.0458359
0.050243
0.0543726
0.05743
0.0604884
0.0659765
0.0715697
0.0780554
0.0813419
0.0812604
0.0766272
0.0707434
0.0651222
0.0609223
0.0579821
0.0567147
0.0581368
0.0638537
0.0690346
0.0755938
0.081025
0.0856313
0.0908414
0.0984708
0.108635
0.120434
0.13513
0.148644
0.164041
0.174447
0.184939
0.190124
0.195957
0.199363
0.203475
0.205992
0.0784182
0.0793776
0.080364
0.0813418
0.0823088
0.0832589
0.0841867
0.0850829
0.0859366
0.0867333
0.0874564
0.0880874
0.0886089
0.0890066
0.0892706
0.089395
0.0880769
0.0852198
0.0818558
0.0786662
0.075816
0.0735488
0.0718251
0.0705687
0.0695394
0.0685575
0.0678973
0.0673946
0.0679218
0.0648333
0.0658412
0.0634142
0.0639892
0.0626604
0.0627298
0.062186
0.0616781
0.0613955
0.0607903
0.0604941
0.0601415
0.0599563
0.0596907
0.0594071
0.0589787
0.0585477
0.0583647
0.0583167
0.0581907
0.057822
0.0556738
0.0545961
0.0517031
0.0487652
0.0451662
0.0429423
0.0409779
0.0396091
0.0378223
0.036804
0.0365877
0.0371123
0.038047
0.0400856
0.0432545
0.0475212
0.051937
0.0558537
0.0601265
0.0657237
0.0734173
0.08197
0.0875563
0.0877066
0.081524
0.0741805
0.0675705
0.0626032
0.0591772
0.0575405
0.0588053
0.064536
0.0705213
0.0782741
0.0849827
0.0912988
0.0976447
0.106393
0.118286
0.131694
0.14777
0.161719
0.176715
0.186421
0.19602
0.200695
0.205694
0.20884
0.212705
0.215284
0.0796601
0.0801989
0.0807198
0.0812016
0.0816408
0.0820325
0.0823718
0.0826505
0.0828579
0.0829805
0.0830014
0.0828989
0.0826476
0.0822222
0.0816008
0.0757809
0.0721598
0.0699963
0.0673606
0.0640563
0.0607331
0.0578469
0.0555509
0.0539716
0.0530269
0.0525674
0.0526524
0.0532437
0.05449
0.053512
0.0556689
0.0536463
0.0550162
0.0539738
0.0546552
0.0541936
0.0542384
0.0538399
0.0537393
0.0537569
0.0538389
0.0539629
0.0543192
0.0546336
0.0551589
0.0554747
0.0557988
0.0559058
0.0563927
0.0569796
0.0568254
0.0557051
0.0523791
0.0479121
0.0430795
0.0402041
0.0382532
0.0371108
0.0356782
0.0348137
0.0347009
0.0352805
0.0360153
0.0378162
0.0404576
0.0445037
0.0489411
0.0537621
0.0594017
0.064984
0.07497
0.0854429
0.0933393
0.093256
0.0854838
0.07681
0.069486
0.064072
0.0602796
0.0583585
0.0593646
0.0650317
0.0719113
0.0809812
0.0896233
0.0986356
0.106684
0.116882
0.131049
0.146033
0.163246
0.176658
0.190039
0.197995
0.206259
0.210674
0.214904
0.217521
0.220806
0.223362
0.0749538
0.0749438
0.0748813
0.0747658
0.0745943
0.074365
0.0740754
0.0737217
0.0732969
0.072793
0.072201
0.0715078
0.070695
0.0697404
0.068618
0.0673035
0.0642294
0.05869
0.0554941
0.0524544
0.0487856
0.0450241
0.0419553
0.0396914
0.0384398
0.0380299
0.0382616
0.0363313
0.0376106
0.0389098
0.0400804
0.0414114
0.0427444
0.0443057
0.0458499
0.0469583
0.0477257
0.0475471
0.0480484
0.0481694
0.0485691
0.0486852
0.0491857
0.0494644
0.0501846
0.050905
0.0519472
0.0528639
0.0539137
0.0551724
0.0559482
0.0556105
0.0510485
0.0450486
0.0395844
0.0364087
0.0346427
0.0340326
0.0334869
0.0331851
0.0331458
0.0339935
0.0343679
0.035941
0.0376903
0.0411923
0.0453515
0.0505431
0.0568623
0.0645163
0.0750136
0.0881161
0.0974138
0.0966716
0.0877036
0.0784074
0.0708608
0.0653825
0.061459
0.0593589
0.0600306
0.0654665
0.0729304
0.0833959
0.0946441
0.107328
0.118492
0.131596
0.148739
0.165596
0.18269
0.193975
0.203939
0.209253
0.215415
0.219882
0.223789
0.225751
0.227642
0.229737
0.0656203
0.065133
0.0645807
0.0639812
0.0633327
0.0626356
0.0618877
0.0610874
0.060233
0.0593233
0.0583545
0.0573228
0.0562208
0.0550379
0.0537579
0.0523593
0.0508166
0.0491081
0.0472242
0.0427633
0.0390752
0.0352483
0.0316128
0.0287441
0.0268301
0.0258455
0.0256751
0.0233412
0.0243673
0.0254426
0.026361
0.0274615
0.0285394
0.0298446
0.0311368
0.032553
0.0340172
0.0356016
0.03728
0.0390885
0.0410188
0.0430992
0.0439418
0.044247
0.0449562
0.0457822
0.0471745
0.0487615
0.0508844
0.0534309
0.0560177
0.0598445
0.0580346
0.0495008
0.0397797
0.034007
0.0311707
0.0303783
0.0299885
0.0304732
0.030227
0.0315501
0.0315406
0.0332996
0.0344454
0.0379763
0.0419482
0.0471304
0.05308
0.0634931
0.0741484
0.0896419
0.0997496
0.0978519
0.0882247
0.0788286
0.0713946
0.0659744
0.0620937
0.0597647
0.059741
0.0639898
0.072083
0.0836253
0.0974321
0.114094
0.130628
0.14742
0.166614
0.185198
0.196283
0.20202
0.207858
0.213679
0.219356
0.224694
0.229458
0.232232
0.233246
0.234507
0.0537418
0.0529745
0.0521488
0.0512925
0.0504042
0.0494848
0.0485324
0.0475475
0.0465298
0.0454806
0.0443988
0.0432843
0.0421347
0.0409476
0.0397173
0.0384351
0.0370865
0.0356517
0.0341061
0.0324263
0.0306106
0.0286628
0.0261428
0.0216879
0.018498
0.0167888
0.0166437
0.0149829
0.0155862
0.0162905
0.0168437
0.0175617
0.0182515
0.0191323
0.0200063
0.0210068
0.0220519
0.0232212
0.0244659
0.025843
0.0273356
0.0289931
0.0307994
0.0327916
0.0349552
0.0372958
0.039768
0.0418781
0.0442965
0.0471136
0.0495072
0.0513736
0.0523222
0.0454795
0.0346442
0.0302402
0.0286542
0.0280902
0.0280491
0.0296636
0.0291389
0.0308602
0.0306477
0.0324056
0.032823
0.0354882
0.0379071
0.0424932
0.0479741
0.0569067
0.0704139
0.0820359
0.0913027
0.089793
0.0829572
0.0754122
0.0695459
0.0650772
0.0615944
0.0592378
0.0588197
0.0626953
0.0701147
0.0806919
0.0953363
0.112734
0.133137
0.145019
0.150518
0.156501
0.163005
0.17007
0.177735
0.186001
0.194796
0.203997
0.213314
0.222261
0.23007
0.235744
0.0413984
0.0405714
0.0397011
0.0388171
0.0379178
0.0370047
0.0360762
0.035134
0.0341775
0.033208
0.0322246
0.0312285
0.0302188
0.0291962
0.0281597
0.0271092
0.0260419
0.0249532
0.023832
0.0226602
0.0214126
0.0200638
0.0186076
0.0170633
0.0142187
0.0115047
0.0109086
0.0105058
0.0106927
0.011018
0.0112432
0.0115892
0.011916
0.0123676
0.0128119
0.0133523
0.01392
0.0145857
0.0152987
0.0161184
0.0170137
0.0180356
0.019196
0.0205234
0.0220164
0.0236886
0.0255163
0.0274712
0.029481
0.0314638
0.0332905
0.0348473
0.0353701
0.0355941
0.035923
0.0366457
0.0319098
0.0284278
0.0272959
0.0297425
0.0283715
0.0307587
0.0302104
0.0311192
0.0314683
0.0326868
0.0365951
0.0421146
0.0490706
0.0566018
0.0752286
0.0800313
0.0798662
0.0801343
0.0789525
0.0705842
0.0645096
0.0605549
0.0576746
0.0556749
0.0541596
0.0545658
0.0588203
0.0680755
0.0825822
0.0919064
0.095379
0.0997968
0.104418
0.109674
0.115654
0.122495
0.130303
0.139309
0.149718
0.161835
0.175875
0.19193
0.209495
0.226687
0.0303843
0.0296738
0.0289358
0.0281958
0.0274522
0.0267067
0.0259577
0.025207
0.0244534
0.0236985
0.0229409
0.0221822
0.0214212
0.0206591
0.0198952
0.0191309
0.0183656
0.0176001
0.0168326
0.0160601
0.0152728
0.0144529
0.0135769
0.012632
0.0116263
0.00958196
0.00762619
0.00832897
0.0084061
0.00850966
0.00854331
0.00865132
0.00874487
0.00890224
0.00905448
0.00925751
0.00947078
0.00973649
0.0100211
0.0103625
0.0107359
0.0111705
0.0116728
0.0122732
0.012977
0.0138007
0.014738
0.0157897
0.0169163
0.0180793
0.0192089
0.0202571
0.020602
0.020703
0.0207501
0.0208929
0.0164417
0.0161996
0.0240147
0.0328396
0.0351328
0.0391165
0.0397671
0.0416754
0.0426484
0.0422232
0.0442637
0.0415799
0.0406
0.0407116
0.044539
0.0471141
0.0466663
0.0465097
0.0465086
0.0465531
0.0465927
0.0466072
0.0461379
0.0444395
0.0431201
0.0441377
0.0462535
0.0471922
0.0480031
0.0489809
0.0506838
0.0532521
0.055972
0.0591642
0.0628774
0.0672546
0.0723855
0.0786091
0.086254
0.0960039
0.108788
0.126318
0.151393
0.188861
0.0221708
0.0216802
0.021174
0.0206699
0.0201667
0.0196655
0.019165
0.0186663
0.0181679
0.0176713
0.0171746
0.0166791
0.0161827
0.0156865
0.0151889
0.0146917
0.0141941
0.0136985
0.0132043
0.0127132
0.0122224
0.0117284
0.0112073
0.0106164
0.00991138
0.00872233
0.00534289
0.00625006
0.00730642
0.00739836
0.00736098
0.00739662
0.00738505
0.00742463
0.00743502
0.00747824
0.00750647
0.00755892
0.00760176
0.00766591
0.0077318
0.00782004
0.00792092
0.00805663
0.00822363
0.00844051
0.00870693
0.00902683
0.00938989
0.00977547
0.0101522
0.0104844
0.0105454
0.0104711
0.0103014
0.0101339
0.010063
0.0106928
0.0142099
0.0175778
0.0179771
0.0184354
0.0192697
0.0202531
0.0209661
0.0220393
0.0228509
0.0233919
0.0238991
0.0236737
0.0216247
0.0221235
0.0218065
0.0209336
0.0205318
0.0202121
0.0199376
0.0197615
0.0194348
0.0191964
0.0189196
0.0190584
0.0194444
0.0195905
0.0193645
0.0192294
0.0196063
0.0203409
0.0210565
0.0219502
0.0230493
0.0243856
0.0259353
0.0278435
0.0301933
0.0332951
0.0375688
0.0440668
0.0552452
0.0812582
0.0165797
0.0162792
0.0159648
0.015647
0.0153267
0.0150028
0.0146758
0.0143447
0.0140097
0.0136697
0.0133244
0.0129727
0.0126142
0.0122479
0.0118728
0.0114877
0.0110901
0.0106776
0.0102471
0.00979682
0.00932619
0.00883584
0.00832214
0.00777129
0.00715668
0.00644457
0.00564136
0.00136633
0.00133184
0.00134947
0.00135181
0.00136902
0.00138006
0.00139941
0.00141229
0.00142807
0.00143817
0.00144854
0.00145177
0.00145248
0.00144607
0.00143758
0.00142322
0.00140826
0.00139097
0.00137433
0.00135867
0.00134598
0.0013372
0.00133309
0.00133295
0.00132949
0.00131631
0.00129846
0.00128123
0.00126936
0.00124563
0.00117905
0.0011723
0.00121549
0.00125863
0.00130211
0.00133372
0.00136414
0.00138789
0.00141132
0.00142663
0.00145676
0.00148839
0.00154432
0.00161663
0.00166884
0.00171852
0.00175956
0.00178073
0.00178984
0.00178889
0.00177699
0.00175672
0.00173072
0.001703
0.00169629
0.00168842
0.00167366
0.00165308
0.00162448
0.00158921
0.00155717
0.0015287
0.00150332
0.00147919
0.00145638
0.00143178
0.00140412
0.0013715
0.0013324
0.00128522
0.00122861
0.00116124
0.00108165
0.00130254
0.0679658
0.0773994
0.0777068
0.0777171
0.0777157
0.077714
0.0777117
0.0777096
0.0777077
0.0777064
0.0777062
0.0777069
0.0777087
0.0777106
0.0777124
0.0777141
0.0777152
0.0777164
0.0777173
0.00139299
0.0609074
0.0767771
0.0776252
0.0776614
0.0776612
0.0776596
0.0776574
0.0776555
0.0776536
0.077653
0.0776539
0.0776572
0.0776624
0.0776677
0.0776727
0.077677
0.0776802
0.0776831
0.0776849
0.00147882
0.0557099
0.0759945
0.0775245
0.0776061
0.0776086
0.077607
0.0776049
0.0776031
0.0776013
0.0776013
0.0776035
0.0776093
0.0776177
0.0776264
0.0776345
0.0776415
0.0776469
0.0776513
0.0776542
0.0015598
0.0516901
0.075101
0.0774029
0.0775505
0.0775574
0.0775562
0.0775541
0.0775523
0.0775508
0.0775511
0.0775547
0.0775629
0.0775745
0.0775867
0.0775978
0.0776073
0.0776149
0.0776209
0.0776249
0.00163598
0.0484503
0.07413
0.0772589
0.0774934
0.077507
0.0775064
0.0775043
0.0775026
0.0775013
0.077502
0.0775071
0.0775176
0.0775324
0.0775481
0.0775622
0.0775742
0.077584
0.0775913
0.0775965
0.00170762
0.0456488
0.0730926
0.0770915
0.0774341
0.077457
0.0774572
0.0774552
0.0774536
0.0774525
0.0774538
0.0774603
0.0774731
0.077491
0.0775101
0.0775273
0.077542
0.0775537
0.0775626
0.0775687
0.00177474
0.0430439
0.0719862
0.0768999
0.0773719
0.0774074
0.0774085
0.0774067
0.0774053
0.0774046
0.0774064
0.0774142
0.0774294
0.0774504
0.0774727
0.077493
0.0775102
0.0775241
0.0775346
0.0775414
0.00183771
0.04059
0.0708164
0.0766837
0.0773062
0.0773581
0.0773604
0.077359
0.0773577
0.0773573
0.0773597
0.0773687
0.0773864
0.0774105
0.077436
0.0774594
0.0774791
0.0774952
0.0775073
0.0775149
0.0018966
0.0383214
0.0695981
0.0764432
0.0772367
0.0773088
0.0773131
0.077312
0.0773108
0.0773107
0.0773137
0.0773241
0.0773443
0.0773714
0.0774002
0.0774264
0.0774488
0.0774669
0.0774806
0.0774891
0.00195182
0.0362648
0.0683466
0.0761787
0.0771631
0.0772596
0.0772665
0.0772657
0.0772647
0.0772648
0.0772685
0.0772803
0.077303
0.0773331
0.0773651
0.0773943
0.0774193
0.0774395
0.0774546
0.077464
0.00200337
0.034424
0.0670796
0.0758914
0.0770853
0.0772106
0.0772206
0.0772202
0.0772194
0.0772199
0.0772243
0.0772376
0.0772625
0.0772956
0.0773309
0.0773632
0.0773907
0.0774129
0.0774296
0.0774399
0.00205165
0.0327866
0.0658123
0.0755828
0.0770031
0.0771618
0.0771757
0.0771756
0.0771751
0.0771761
0.0771811
0.0771959
0.077223
0.0772591
0.0772976
0.0773329
0.077363
0.0773872
0.0774055
0.0774167
0.00209662
0.0313348
0.0645578
0.0752548
0.0769163
0.0771132
0.0771317
0.0771321
0.0771318
0.0771333
0.0771391
0.0771553
0.0771847
0.0772238
0.0772653
0.0773035
0.0773362
0.0773626
0.0773825
0.0773946
0.00213864
0.0300478
0.0633267
0.0749096
0.0768252
0.0770649
0.0770887
0.0770897
0.0770897
0.0770917
0.0770984
0.0771159
0.0771476
0.0771896
0.0772342
0.0772755
0.0773108
0.0773391
0.0773608
0.0773737
0.00217757
0.0289027
0.0621278
0.07455
0.0767299
0.0770169
0.077047
0.0770488
0.077049
0.0770514
0.0770589
0.077078
0.0771119
0.0771569
0.0772045
0.0772488
0.0772867
0.0773171
0.0773404
0.0773541
0.00221357
0.0278666
0.0609672
0.0741788
0.076631
0.0769696
0.0770069
0.0770094
0.07701
0.0770128
0.0770211
0.0770416
0.0770778
0.0771257
0.0771765
0.0772237
0.0772642
0.0772967
0.0773216
0.0773361
0.00224643
0.0269293
0.0598502
0.0737991
0.0765291
0.0769234
0.0769686
0.0769718
0.076973
0.0769761
0.0769852
0.0770072
0.0770456
0.0770964
0.0771505
0.0772006
0.0772437
0.0772782
0.0773046
0.0773201
0.00227638
0.0260811
0.0587813
0.0734143
0.0764249
0.0768788
0.0769325
0.0769367
0.0769383
0.0769418
0.0769517
0.076975
0.0770158
0.0770695
0.0771267
0.0771797
0.0772254
0.077262
0.0772899
0.0773063
0.00230293
0.0253143
0.057765
0.0730284
0.0763196
0.0768361
0.076899
0.0769044
0.0769063
0.0769104
0.076921
0.0769457
0.0769886
0.0770452
0.0771055
0.0771616
0.0772098
0.0772484
0.0772781
0.0772953
0.00232698
0.0246225
0.0568055
0.0726455
0.0762146
0.0767962
0.0768688
0.0768759
0.0768779
0.0768822
0.0768936
0.0769197
0.0769647
0.0770242
0.0770876
0.0771466
0.0771974
0.0772381
0.0772695
0.0772875
0.00234685
0.0240006
0.0559077
0.0722707
0.0761115
0.07676
0.076843
0.0768519
0.0768538
0.0768582
0.0768702
0.0768975
0.0769448
0.0770069
0.0770734
0.0771355
0.0771888
0.0772316
0.0772648
0.0772836
0.00236414
0.0234451
0.0550771
0.0719097
0.076012
0.076729
0.0768227
0.0768334
0.076835
0.0768393
0.0768516
0.07688
0.0769295
0.0769943
0.0770638
0.0771289
0.0771848
0.0772297
0.0772644
0.0772842
0.00237818
0.0229526
0.0543188
0.0715689
0.0759182
0.0767047
0.0768098
0.0768221
0.0768228
0.0768267
0.076839
0.0768683
0.0769198
0.0769873
0.0770597
0.0771277
0.0771862
0.0772331
0.0772694
0.0772902
0.0023874
0.022498
0.0536124
0.0712479
0.0758309
0.0766894
0.0768065
0.0768196
0.0768187
0.0768217
0.0768335
0.0768634
0.0769166
0.0769867
0.077062
0.0771328
0.077194
0.0772428
0.0772808
0.0773027
0.00240075
0.0220232
0.0528892
0.0709302
0.075749
0.0766859
0.0768154
0.0768282
0.0768247
0.0768258
0.0768366
0.0768667
0.0769211
0.0769936
0.0770718
0.0771454
0.077209
0.0772598
0.0772995
0.0773225
0.0024259
0.0215262
0.0521315
0.0697016
0.0756753
0.0766979
0.0768395
0.0768504
0.0768428
0.0768409
0.0768498
0.0768793
0.0769345
0.0770092
0.0770901
0.0771664
0.0772325
0.0772854
0.0773266
0.0773509
0.00245679
0.0209749
0.0513287
0.0630708
0.0756182
0.0767291
0.0768818
0.0768892
0.0768753
0.0768691
0.0768748
0.0769029
0.0769584
0.0770348
0.0771183
0.0771972
0.0772656
0.0773204
0.0773633
0.0773889
0.00248798
0.0204025
0.0503528
0.0590114
0.0736164
0.075078
0.0769448
0.0769473
0.0769252
0.0769125
0.0769135
0.0769392
0.0769943
0.077072
0.0771578
0.077239
0.0773097
0.0773662
0.077411