/*--------------------------------*- C++ -*----------------------------------*\
  =========                 |
  \\      /  F ield         | OpenFOAM: The Open Source CFD Toolbox
   \\    /   O peration     | Website:  https://openfoam.org
    \\  /    A nd           | Version:  7
     \\/     M anipulation  |
\*---------------------------------------------------------------------------*/
FoamFile
{
    version     2.0;
    format      ascii;
    class       volVectorField;
    location    "0.1375";
    object      U;
}
// * * * * * * * * * * * * * * * * * * * * * * * * * * * * * * * * * * * * * //

dimensions      [0 1 -1 0 0 0 0];

internalField   nonuniform List<vector> 
48560
(
(221.947 -5.36774 -4.90604e-11)
(221.755 -6.19693 -5.89258e-11)
(221.586 -7.02833 -7.82028e-11)
(221.438 -7.84034 -1.00139e-10)
(221.306 -8.63325 -1.31238e-10)
(221.186 -9.4012 -1.65917e-10)
(221.075 -10.147 -2.09143e-10)
(220.969 -10.8664 -2.55737e-10)
(220.867 -11.5639 -3.09336e-10)
(220.767 -12.2366 -3.65493e-10)
(220.667 -12.8902 -4.26019e-10)
(220.566 -13.5232 -4.87278e-10)
(220.463 -14.1407 -5.49539e-10)
(220.356 -14.7411 -6.09861e-10)
(220.244 -15.3283 -6.66293e-10)
(220.125 -15.9005 -7.17044e-10)
(219.997 -16.4603 -7.58857e-10)
(219.858 -17.0061 -7.8987e-10)
(219.705 -17.5399 -8.06798e-10)
(219.536 -18.0609 -8.07804e-10)
(219.347 -18.5705 -7.89927e-10)
(219.135 -19.0684 -7.5115e-10)
(218.895 -19.5549 -6.89677e-10)
(218.622 -20.0296 -6.02833e-10)
(218.313 -20.4915 -4.92879e-10)
(217.96 -20.9395 -3.56768e-10)
(217.559 -21.3724 -1.98048e-10)
(217.041 -21.8648 1.70036e-11)
(216.288 -22.4137 3.11535e-10)
(215.394 -22.9119 5.96047e-10)
(214.308 -23.3846 8.82223e-10)
(212.964 -23.8068 1.15996e-09)
(211.283 -24.1917 1.37825e-09)
(209.082 -24.5152 1.53876e-09)
(206.059 -24.7615 1.4429e-09)
(202.493 -24.8963 1.19453e-09)
(198.254 -24.8757 5.65326e-10)
(193.604 -24.746 -1.40091e-10)
(188.79 -24.4532 -1.37795e-09)
(184.856 -24.0505 -2.54073e-09)
(180.812 -23.2555 -4.16568e-09)
(176.736 -22.6198 -4.55056e-09)
(172.879 -21.4532 -5.91374e-09)
(169.149 -20.022 -6.40519e-09)
(165.806 -18.7131 -7.02772e-09)
(165.083 -16.097 -9.50533e-09)
(171.771 -12.2477 -1.25237e-08)
(191.389 -6.88465 -1.71186e-08)
(221.31 -4.08049 -2.21829e-08)
(250.055 -7.78878 -2.6162e-08)
(271.686 -31.4681 -2.92618e-08)
(263.864 -74.1576 -3.08636e-08)
(229.269 -57.6504 -2.9728e-08)
(214.681 -60.7851 -2.98142e-08)
(195.662 -51.6235 -2.92087e-08)
(183.878 -51.0943 -2.9248e-08)
(165.481 -43.5363 -2.86454e-08)
(153.75 -41.3576 -2.86599e-08)
(133.696 -34.3428 -2.80024e-08)
(121.443 -31.2415 -2.80405e-08)
(99.3228 -24.1237 -2.73115e-08)
(85.6831 -20.417 -2.73071e-08)
(66.0754 -11.0082 -2.64245e-08)
(66.3463 -8.5431 -2.67588e-08)
(55.7814 -5.57967 -2.62871e-08)
(52.6453 1.12769 -2.60733e-08)
(56.5747 2.2247 -2.63173e-08)
(58.8229 4.44236 -2.6535e-08)
(60.5567 6.50869 -2.67406e-08)
(63.5757 8.64362 -2.70248e-08)
(67.9237 11.4707 -2.74345e-08)
(73.4448 14.9745 -2.78833e-08)
(80.3088 19.2409 -2.83868e-08)
(88.7299 24.4694 -2.89276e-08)
(98.9291 30.8338 -2.95106e-08)
(111.36 38.4929 -3.01207e-08)
(127.427 48.2365 -3.07964e-08)
(149.439 61.6848 -3.15078e-08)
(182.285 78.9864 -3.22212e-08)
(220.441 84.7197 -3.28698e-08)
(259.689 66.4919 -3.37735e-08)
(254.786 60.4473 -3.40211e-08)
(246.368 53.3836 -3.43867e-08)
(251.803 56.0634 -3.43958e-08)
(256.211 56.6906 -3.46404e-08)
(267.566 53.7093 -3.53861e-08)
(271.759 43.0845 -3.5556e-08)
(275.782 36.6796 -3.59241e-08)
(275.79 26.9355 -3.60918e-08)
(275.43 19.8337 -3.63769e-08)
(273.263 14.3847 -3.64775e-08)
(270.017 8.44321 -3.66549e-08)
(266.521 3.74695 -3.68039e-08)
(263.136 -0.00116491 -3.69441e-08)
(260.008 -3.04811 -3.70506e-08)
(257.305 -5.5127 -3.71559e-08)
(255.074 -7.47894 -3.72359e-08)
(253.411 -8.90356 -3.72993e-08)
(252.353 -9.71777 -3.7345e-08)
(252.112 -9.95824 -3.73687e-08)
(221.192 -5.08791 -5.89752e-10)
(221.009 -5.94574 -6.17989e-10)
(220.842 -6.80029 -6.46899e-10)
(220.706 -7.6451 -6.73457e-10)
(220.578 -8.46258 -6.99081e-10)
(220.467 -9.2602 -7.18621e-10)
(220.356 -10.0283 -7.35782e-10)
(220.251 -10.7749 -7.43084e-10)
(220.141 -11.4973 -7.45617e-10)
(220.028 -12.2043 -7.34514e-10)
(219.909 -12.8957 -7.185e-10)
(219.783 -13.573 -6.8778e-10)
(219.647 -14.235 -6.47582e-10)
(219.499 -14.8798 -5.90233e-10)
(219.336 -15.507 -5.19787e-10)
(219.155 -16.114 -4.31264e-10)
(218.953 -16.702 -3.28194e-10)
(218.729 -17.2693 -2.08725e-10)
(218.478 -17.8191 -7.68296e-11)
(218.198 -18.3515 6.60764e-11)
(217.883 -18.8697 2.22261e-10)
(217.529 -19.3711 3.85958e-10)
(217.128 -19.8552 5.59948e-10)
(216.672 -20.3192 7.35473e-10)
(216.147 -20.7628 9.17455e-10)
(215.538 -21.1841 1.09058e-09)
(214.827 -21.5814 1.25751e-09)
(213.849 -22.0214 1.41485e-09)
(212.235 -22.4904 1.513e-09)
(210.279 -22.9014 1.40486e-09)
(208.02 -23.2593 1.20326e-09)
(205.369 -23.5389 6.85043e-10)
(202.472 -23.7666 1.1148e-10)
(199.347 -23.9087 -9.01389e-10)
(196.473 -23.9689 -1.93639e-09)
(193.657 -23.8485 -3.34166e-09)
(191.147 -23.7678 -3.79542e-09)
(188.658 -23.5226 -5.07373e-09)
(186.654 -23.2635 -5.89834e-09)
(184.847 -22.7268 -6.77046e-09)
(183.407 -22.2537 -7.20717e-09)
(183.042 -21.7386 -8.15506e-09)
(184.918 -20.8173 -1.09415e-08)
(190.627 -20.8876 -1.25647e-08)
(204.549 -21.4822 -1.6917e-08)
(229.836 -22.8103 -2.20611e-08)
(255.637 -23.8669 -2.63486e-08)
(277.807 -24.7594 -2.96253e-08)
(288.944 -26.5142 -3.09996e-08)
(295.841 -34.6626 -3.23923e-08)
(287.449 -53.5423 -3.27534e-08)
(275.131 -72.0739 -3.3245e-08)
(246.997 -67.1274 -3.26839e-08)
(235.294 -67.3322 -3.26006e-08)
(216.33 -61.472 -3.22353e-08)
(206.916 -58.3939 -3.20986e-08)
(189.502 -52.6491 -3.17866e-08)
(179.974 -48.5889 -3.15816e-08)
(162.665 -42.4782 -3.1296e-08)
(152.775 -37.7518 -3.10354e-08)
(136.166 -31.2762 -3.07776e-08)
(125.728 -26.056 -3.0393e-08)
(113.384 -16.8047 -3.00698e-08)
(111.847 -12.2643 -2.98501e-08)
(107.958 -6.68254 -2.98553e-08)
(105.468 1.30449 -2.9371e-08)
(111.121 3.49158 -2.98199e-08)
(113.938 8.65579 -2.9901e-08)
(116.835 11.7532 -3.01486e-08)
(121.023 15.5199 -3.0324e-08)
(124.798 18.9556 -3.06278e-08)
(130.436 23.1842 -3.08747e-08)
(135.909 27.5026 -3.12286e-08)
(143.594 32.9526 -3.15402e-08)
(151.846 39.1091 -3.19461e-08)
(163.024 46.951 -3.23261e-08)
(176.868 56.9038 -3.28053e-08)
(197.309 71.4789 -3.32756e-08)
(221.301 90.2732 -3.38525e-08)
(241.908 94.6582 -3.44571e-08)
(258.387 73.9818 -3.50281e-08)
(263.721 63.9366 -3.55057e-08)
(266.057 61.5186 -3.57041e-08)
(270.263 62.6656 -3.61603e-08)
(272.857 63.466 -3.59421e-08)
(275.839 59.6065 -3.69399e-08)
(277.533 51.0351 -3.65119e-08)
(279.534 43.4011 -3.72381e-08)
(278.851 33.3396 -3.6852e-08)
(278.004 24.7954 -3.75713e-08)
(274.971 16.7012 -3.71513e-08)
(272.278 10.845 -3.76945e-08)
(268.296 5.71674 -3.73663e-08)
(265.214 1.9854 -3.77593e-08)
(261.551 -1.19583 -3.74896e-08)
(258.961 -3.59794 -3.77627e-08)
(256.277 -5.6709 -3.7549e-08)
(254.712 -7.14224 -3.77092e-08)
(253.724 -7.74748 -3.76004e-08)
(253.359 -7.93816 -3.76227e-08)
(219.989 -4.79956 -1.82294e-10)
(219.794 -5.71126 -1.57168e-10)
(219.578 -6.621 -1.04027e-10)
(219.425 -7.52534 -6.28384e-11)
(219.247 -8.39299 3.79812e-12)
(219.108 -9.24209 6.17014e-11)
(218.939 -10.0544 1.41748e-10)
(218.789 -10.8541 2.16483e-10)
(218.605 -11.6304 3.09313e-10)
(218.425 -12.396 3.99003e-10)
(218.208 -13.1355 5.04644e-10)
(217.982 -13.8554 6.10607e-10)
(217.718 -14.5413 7.26533e-10)
(217.431 -15.1989 8.4107e-10)
(217.095 -15.819 9.56783e-10)
(216.714 -16.4094 1.06477e-09)
(216.264 -16.9672 1.1601e-09)
(215.733 -17.502 1.23301e-09)
(215.088 -18.0149 1.26618e-09)
(214.398 -18.5117 1.28287e-09)
(213.612 -18.9919 1.25248e-09)
(212.771 -19.4574 1.18918e-09)
(211.835 -19.9046 1.06276e-09)
(210.83 -20.3305 9.2044e-10)
(209.731 -20.7366 6.76567e-10)
(208.561 -21.1166 4.14086e-10)
(207.317 -21.4732 2.75103e-11)
(205.834 -21.8559 -4.54951e-10)
(203.895 -22.2597 -1.32126e-09)
(202.31 -22.6013 -2.15644e-09)
(200.521 -22.8638 -3.27224e-09)
(199.025 -23.0901 -3.59845e-09)
(197.415 -23.2614 -4.62362e-09)
(196.138 -23.3987 -5.19806e-09)
(194.946 -23.4174 -5.95183e-09)
(193.89 -23.3378 -6.42729e-09)
(193.275 -23.1709 -7.1287e-09)
(193.118 -22.9855 -8.0764e-09)
(194.532 -22.8286 -1.00617e-08)
(197.555 -23.0408 -1.12226e-08)
(204.157 -23.6031 -1.37612e-08)
(215.885 -24.7031 -1.69594e-08)
(233.746 -26.1255 -2.12579e-08)
(253.358 -27.6656 -2.46786e-08)
(273.413 -28.0494 -2.863e-08)
(287.786 -27.1181 -3.03362e-08)
(299.473 -26.4189 -3.218e-08)
(305.308 -27.0858 -3.2675e-08)
(307.594 -31.1718 -3.32156e-08)
(303.599 -41.4127 -3.32813e-08)
(292.418 -57.7442 -3.32458e-08)
(276.518 -68.0654 -3.3085e-08)
(256.592 -61.9599 -3.29078e-08)
(244.507 -65.3499 -3.26537e-08)
(227.863 -57.5582 -3.24956e-08)
(217.675 -57.0995 -3.22072e-08)
(202.677 -49.8136 -3.20863e-08)
(192.626 -47.5255 -3.17749e-08)
(178.162 -40.712 -3.1692e-08)
(168.183 -37.2399 -3.1359e-08)
(155.111 -30.7833 -3.13097e-08)
(145.973 -26.3742 -3.0958e-08)
(137.71 -18.2056 -3.09175e-08)
(136.059 -13.8374 -3.06461e-08)
(135.387 -5.9047 -3.07406e-08)
(132.908 0.995015 -3.04455e-08)
(138.64 4.57928 -3.07964e-08)
(139.529 10.9696 -3.07383e-08)
(143.233 14.6249 -3.10255e-08)
(145.455 19.6312 -3.10691e-08)
(149.132 23.9291 -3.138e-08)
(152.45 28.994 -3.15085e-08)
(156.904 34.1491 -3.18509e-08)
(162.028 40.1001 -3.20628e-08)
(168.646 46.7089 -3.24536e-08)
(177.393 54.5428 -3.27598e-08)
(189.893 64.2626 -3.323e-08)
(208.61 76.2672 -3.36604e-08)
(232.075 84.8543 -3.42145e-08)
(250.996 79.659 -3.46678e-08)
(260.317 67.7103 -3.50179e-08)
(265.186 63.5585 -3.52868e-08)
(267.593 61.0895 -3.55832e-08)
(272.031 59.6339 -3.61032e-08)
(274.946 55.1726 -3.59265e-08)
(277.793 48.568 -3.67517e-08)
(278.733 41.1951 -3.62559e-08)
(280.056 33.9935 -3.69669e-08)
(278.899 26.4906 -3.65768e-08)
(277.593 20.1403 -3.71003e-08)
(274.456 14.266 -3.683e-08)
(271.703 9.30767 -3.71953e-08)
(267.975 5.10045 -3.69805e-08)
(264.962 1.73823 -3.72374e-08)
(261.557 -1.00204 -3.70582e-08)
(258.988 -3.0732 -3.72318e-08)
(256.461 -4.57348 -3.70821e-08)
(254.881 -5.47512 -3.71851e-08)
(253.926 -5.77581 -3.71101e-08)
(253.57 -5.88516 -3.71223e-08)
(216.944 -4.51607 6.05791e-10)
(216.668 -5.45256 6.6239e-10)
(216.272 -6.37378 6.72639e-10)
(216.013 -7.29298 7.05723e-10)
(215.633 -8.16739 7.03767e-10)
(215.344 -9.02759 7.07433e-10)
(214.93 -9.84961 6.85243e-10)
(214.569 -10.6653 6.52549e-10)
(214.093 -11.4557 5.99589e-10)
(213.658 -12.2357 5.21305e-10)
(213.125 -12.9854 4.23714e-10)
(212.619 -13.7173 2.87811e-10)
(212.029 -14.4179 1.30078e-10)
(211.455 -15.0984 -7.60014e-11)
(210.812 -15.7499 -3.07834e-10)
(210.18 -16.3814 -5.93614e-10)
(209.505 -16.9859 -9.05405e-10)
(208.859 -17.5686 -1.26656e-09)
(208.224 -18.1218 -1.6399e-09)
(207.585 -18.6475 -2.07172e-09)
(206.952 -19.1412 -2.52596e-09)
(206.339 -19.6068 -3.03158e-09)
(205.714 -20.0195 -3.16391e-09)
(205.104 -20.4334 -3.64141e-09)
(204.494 -20.8072 -3.87689e-09)
(203.91 -21.1732 -4.3377e-09)
(203.343 -21.5008 -4.63918e-09)
(202.738 -21.8597 -5.14664e-09)
(202.045 -22.2178 -5.65381e-09)
(201.515 -22.5038 -6.11774e-09)
(200.993 -22.6711 -6.40288e-09)
(200.719 -22.7675 -6.94278e-09)
(200.622 -22.8607 -7.70051e-09)
(201.336 -23.065 -9.16538e-09)
(202.719 -23.2559 -9.89109e-09)
(205.362 -23.7414 -1.1459e-08)
(209.957 -24.507 -1.31913e-08)
(217.062 -25.7166 -1.55841e-08)
(229.131 -27.4875 -1.87416e-08)
(242.036 -29.3752 -2.15385e-08)
(258.047 -31.3144 -2.5094e-08)
(272.302 -32.6021 -2.75558e-08)
(285.721 -33.232 -2.99953e-08)
(296.953 -33.4718 -3.14372e-08)
(305.755 -33.101 -3.28279e-08)
(311.081 -32.9129 -3.30322e-08)
(314.26 -33.5223 -3.36201e-08)
(315.309 -35.9811 -3.34173e-08)
(312.889 -41.2705 -3.3597e-08)
(306.176 -50.7481 -3.32311e-08)
(294.206 -61.8915 -3.31135e-08)
(279.335 -67.2207 -3.25967e-08)
(262.275 -65.1722 -3.281e-08)
(249.867 -65.1664 -3.22632e-08)
(235.469 -59.8278 -3.24092e-08)
(224.749 -57.4533 -3.19123e-08)
(211.732 -51.4211 -3.20316e-08)
(201.411 -47.8927 -3.15921e-08)
(189.023 -41.7755 -3.17068e-08)
(179.179 -37.4837 -3.12984e-08)
(168.46 -31.2252 -3.14021e-08)
(160.276 -25.9414 -3.10495e-08)
(154.009 -18.3002 -3.1159e-08)
(152.301 -12.9599 -3.08684e-08)
(152.213 -5.0376 -3.10196e-08)
(150.306 0.596221 -3.08241e-08)
(154.922 5.91014 -3.10602e-08)
(154.343 11.8018 -3.09801e-08)
(158.262 16.0943 -3.12373e-08)
(158.94 21.0267 -3.12459e-08)
(162.825 25.4656 -3.15288e-08)
(164.794 30.3338 -3.16212e-08)
(169.395 35.4427 -3.19362e-08)
(173.53 41.0822 -3.21156e-08)
(180.515 47.6158 -3.24791e-08)
(189.03 55.3924 -3.27572e-08)
(202.267 65.3123 -3.31937e-08)
(219.259 76.2533 -3.35775e-08)
(237.754 81.7575 -3.40769e-08)
(252.198 74.5075 -3.4419e-08)
(260.429 66.6996 -3.46213e-08)
(265.766 64.3272 -3.48222e-08)
(269.16 61.9005 -3.53325e-08)
(272.983 59.8103 -3.54102e-08)
(274.784 54.6562 -3.56414e-08)
(276.836 47.8173 -3.59794e-08)
(277.628 41.2826 -3.58961e-08)
(278.355 34.4167 -3.62112e-08)
(277.297 27.511 -3.61257e-08)
(275.953 21.1935 -3.63748e-08)
(273.187 15.3352 -3.62459e-08)
(270.511 10.5055 -3.64979e-08)
(267.077 6.3556 -3.63573e-08)
(264.133 3.06835 -3.65316e-08)
(260.949 0.376963 -3.64066e-08)
(258.489 -1.65744 -3.65244e-08)
(256.192 -3.03843 -3.64155e-08)
(254.762 -3.7422 -3.64807e-08)
(253.938 -3.9057 -3.64208e-08)
(253.624 -3.94779 -3.64356e-08)
(212.159 -3.91963 -2.46613e-09)
(211.788 -4.85683 -2.47463e-09)
(211.385 -5.76186 -2.76166e-09)
(211.093 -6.7336 -2.68552e-09)
(210.752 -7.63231 -2.94931e-09)
(210.488 -8.56931 -2.94923e-09)
(210.16 -9.44517 -3.20402e-09)
(209.888 -10.3467 -3.26874e-09)
(209.561 -11.1986 -3.5241e-09)
(209.294 -12.0654 -3.644e-09)
(208.984 -12.8886 -3.90582e-09)
(208.733 -13.7159 -4.0714e-09)
(208.45 -14.5009 -4.34013e-09)
(208.221 -15.2777 -4.53981e-09)
(207.969 -16.0085 -4.81066e-09)
(207.766 -16.7154 -5.02897e-09)
(207.547 -17.366 -5.29058e-09)
(207.37 -17.9734 -5.50745e-09)
(207.177 -18.5128 -5.743e-09)
(207.01 -18.9998 -5.9351e-09)
(206.822 -19.423 -6.11878e-09)
(206.64 -19.8027 -6.24943e-09)
(206.515 -20.1634 -6.73689e-09)
(206.487 -20.488 -7.04766e-09)
(206.553 -20.7975 -7.51255e-09)
(206.756 -21.0909 -7.94388e-09)
(207.102 -21.3865 -8.43477e-09)
(207.717 -21.7475 -9.04565e-09)
(208.715 -22.1503 -9.81213e-09)
(210.384 -22.6404 -1.07318e-08)
(212.692 -23.2255 -1.1838e-08)
(216.165 -24.0195 -1.32862e-08)
(220.887 -25.0412 -1.49542e-08)
(227.916 -26.4076 -1.70897e-08)
(236.382 -28.022 -1.92052e-08)
(246.402 -29.9172 -2.18126e-08)
(257.471 -31.8512 -2.4157e-08)
(268.781 -33.6123 -2.66034e-08)
(278.805 -34.7607 -2.83538e-08)
(289.197 -35.8189 -3.02313e-08)
(298.057 -36.4026 -3.15778e-08)
(305.612 -36.7807 -3.25826e-08)
(311.616 -36.7857 -3.33136e-08)
(315.958 -36.6578 -3.35993e-08)
(318.799 -36.5515 -3.38528e-08)
(320.298 -37.0859 -3.36882e-08)
(320.672 -38.5034 -3.37713e-08)
(319.102 -41.5324 -3.33967e-08)
(314.899 -47.394 -3.33891e-08)
(307.007 -55.6094 -3.2881e-08)
(295.352 -63.4394 -3.26915e-08)
(281.701 -66.2217 -3.20208e-08)
(266.447 -64.8273 -3.23867e-08)
(254.173 -64.14 -3.17448e-08)
(241.133 -59.1637 -3.20105e-08)
(230.155 -56.7096 -3.14589e-08)
(218.416 -50.6664 -3.16689e-08)
(207.931 -47.1978 -3.12198e-08)
(196.804 -40.9442 -3.14059e-08)
(187.069 -36.6866 -3.10096e-08)
(177.686 -30.2192 -3.11575e-08)
(170.218 -24.9366 -3.08585e-08)
(165.122 -17.4567 -3.10172e-08)
(163.387 -11.6318 -3.07593e-08)
(163.211 -4.12556 -3.09118e-08)
(162.016 1.01011 -3.07987e-08)
(165.117 7.60495 -3.0906e-08)
(164.316 12.9174 -3.08746e-08)
(167.501 18.063 -3.10375e-08)
(167.696 23.0784 -3.10686e-08)
(171.112 27.9678 -3.1278e-08)
(172.538 33.0226 -3.13827e-08)
(176.9 38.3655 -3.16482e-08)
(180.617 44.1487 -3.18369e-08)
(187.63 50.8065 -3.21663e-08)
(196.042 58.4528 -3.24481e-08)
(209.381 67.3725 -3.28581e-08)
(225.223 75.0111 -3.32325e-08)
(241.657 76.275 -3.36486e-08)
(252.951 70.3996 -3.38955e-08)
(260.631 65.523 -3.40168e-08)
(266.073 62.6768 -3.40898e-08)
(269.843 59.9258 -3.49626e-08)
(273.194 55.7459 -3.47323e-08)
(274.783 49.9371 -3.51958e-08)
(276.234 43.6947 -3.53654e-08)
(276.769 37.6642 -3.53601e-08)
(276.97 31.1405 -3.54351e-08)
(275.795 25.2207 -3.54829e-08)
(274.215 19.5076 -3.55981e-08)
(271.655 14.5163 -3.55207e-08)
(269.066 10.0867 -3.56984e-08)
(265.979 6.44387 -3.56144e-08)
(263.178 3.43752 -3.57337e-08)
(260.286 1.14875 -3.56451e-08)
(257.948 -0.526153 -3.57148e-08)
(255.909 -1.57928 -3.56353e-08)
(254.633 -2.11049 -3.56753e-08)
(253.925 -2.22352 -3.56315e-08)
(253.652 -2.25173 -3.56479e-08)
(212.223 -3.32318 -5.77445e-09)
(211.795 -4.3099 -5.81008e-09)
(211.474 -5.33809 -5.80032e-09)
(211.197 -6.35654 -5.97081e-09)
(210.987 -7.37026 -6.05293e-09)
(210.803 -8.36672 -6.21354e-09)
(210.648 -9.33749 -6.36308e-09)
(210.52 -10.2987 -6.53426e-09)
(210.414 -11.2227 -6.73706e-09)
(210.361 -12.1291 -6.93233e-09)
(210.341 -12.986 -7.18029e-09)
(210.395 -13.8155 -7.4092e-09)
(210.494 -14.5885 -7.6994e-09)
(210.688 -15.3297 -7.9703e-09)
(210.943 -16.0177 -8.30474e-09)
(211.312 -16.6798 -8.62678e-09)
(211.765 -17.3019 -9.0133e-09)
(212.352 -17.9084 -9.40011e-09)
(213.047 -18.4855 -9.85649e-09)
(213.922 -19.0597 -1.03405e-08)
(214.971 -19.6272 -1.09148e-08)
(216.294 -20.2148 -1.15621e-08)
(217.896 -20.8258 -1.23183e-08)
(219.86 -21.4756 -1.30821e-08)
(222.271 -22.1798 -1.4009e-08)
(225.256 -22.9601 -1.4991e-08)
(228.959 -23.8494 -1.61784e-08)
(234.33 -25.0549 -1.77124e-08)
(239.478 -26.2803 -1.91883e-08)
(246.608 -27.8682 -2.10442e-08)
(253.444 -29.4138 -2.27544e-08)
(261.427 -31.1294 -2.46181e-08)
(269.007 -32.7208 -2.62613e-08)
(276.483 -34.1688 -2.77817e-08)
(283.815 -35.4975 -2.91616e-08)
(291.072 -36.6868 -3.04855e-08)
(297.838 -37.6765 -3.15346e-08)
(303.98 -38.4625 -3.2485e-08)
(309.353 -39.0637 -3.31018e-08)
(314.008 -39.4958 -3.36867e-08)
(317.654 -39.7204 -3.39044e-08)
(320.571 -39.7983 -3.41156e-08)
(322.604 -39.8206 -3.40662e-08)
(323.96 -39.984 -3.40099e-08)
(324.646 -40.4552 -3.3841e-08)
(324.613 -41.5093 -3.36314e-08)
(323.564 -43.4855 -3.34412e-08)
(320.759 -47.1878 -3.31115e-08)
(315.553 -52.7773 -3.29002e-08)
(307.171 -59.4736 -3.24082e-08)
(296.055 -64.9363 -3.21009e-08)
(283.196 -66.6852 -3.14151e-08)
(269.206 -65.33 -3.17984e-08)
(257.357 -63.9534 -3.1168e-08)
(245.12 -59.4788 -3.14463e-08)
(234.335 -56.3246 -3.09198e-08)
(223.218 -50.6289 -3.11427e-08)
(212.947 -46.5936 -3.07393e-08)
(202.441 -40.4926 -3.09374e-08)
(193.063 -35.7298 -3.0581e-08)
(184.39 -29.138 -3.07311e-08)
(177.555 -23.4467 -3.04893e-08)
(173.002 -16.144 -3.06636e-08)
(171.225 -10.0297 -3.04483e-08)
(170.781 -3.05354 -3.05921e-08)
(170.086 1.94695 -3.05331e-08)
(171.929 8.8614 -3.05501e-08)
(171.411 13.8274 -3.05685e-08)
(173.663 19.3879 -3.06477e-08)
(174.019 24.2364 -3.0712e-08)
(176.894 29.286 -3.08552e-08)
(178.493 34.2403 -3.09872e-08)
(182.68 39.573 -3.12076e-08)
(186.689 45.2741 -3.14142e-08)
(193.906 51.8487 -3.17113e-08)
(202.677 59.2861 -3.20039e-08)
(215.656 67.3321 -3.23789e-08)
(229.617 72.9249 -3.27392e-08)
(243.463 72.4298 -3.30948e-08)
(253.075 67.8684 -3.32897e-08)
(260.51 64.4321 -3.33827e-08)
(265.842 61.2143 -3.33792e-08)
(269.456 58.3607 -3.41498e-08)
(271.889 53.3212 -3.41738e-08)
(273.243 47.8195 -3.44063e-08)
(274.316 41.8416 -3.46548e-08)
(274.81 36.1822 -3.44965e-08)
(274.786 30.12 -3.46346e-08)
(273.788 24.6458 -3.46574e-08)
(272.263 19.2628 -3.47749e-08)
(270.006 14.7102 -3.47303e-08)
(267.549 10.5605 -3.48395e-08)
(264.763 7.1985 -3.47997e-08)
(262.126 4.35519 -3.48758e-08)
(259.548 2.23241 -3.48164e-08)
(257.42 0.699566 -3.48543e-08)
(255.657 -0.170958 -3.47968e-08)
(254.53 -0.60082 -3.48186e-08)
(253.913 -0.688084 -3.47884e-08)
(253.672 -0.711093 -3.4796e-08)
(218.382 -2.39076 -1.01367e-08)
(217.831 -3.40166 -1.01184e-08)
(217.747 -4.42397 -1.03059e-08)
(217.565 -5.50721 -1.04033e-08)
(217.729 -6.56651 -1.06321e-08)
(217.841 -7.64777 -1.08247e-08)
(218.201 -8.69268 -1.11105e-08)
(218.564 -9.73719 -1.13869e-08)
(219.153 -10.7427 -1.17401e-08)
(219.826 -11.7528 -1.21004e-08)
(220.732 -12.7417 -1.25358e-08)
(221.794 -13.7445 -1.29932e-08)
(223.119 -14.7413 -1.3534e-08)
(224.688 -15.7625 -1.41167e-08)
(226.589 -16.7942 -1.48001e-08)
(228.858 -17.8657 -1.5555e-08)
(231.604 -18.9734 -1.64407e-08)
(234.846 -20.1432 -1.74194e-08)
(238.338 -21.3344 -1.8455e-08)
(242.283 -22.5859 -1.95635e-08)
(246.503 -23.8595 -2.07232e-08)
(251.108 -25.1716 -2.1926e-08)
(255.93 -26.4833 -2.3149e-08)
(261.019 -27.7997 -2.43746e-08)
(266.205 -29.0905 -2.55926e-08)
(271.438 -30.3495 -2.67531e-08)
(276.503 -31.5361 -2.78479e-08)
(281.879 -32.7976 -2.89305e-08)
(286.005 -33.8531 -2.97338e-08)
(291.789 -35.1754 -3.08064e-08)
(295.88 -36.1751 -3.149e-08)
(301.107 -37.3516 -3.23514e-08)
(304.797 -38.2308 -3.28518e-08)
(309.213 -39.2078 -3.3467e-08)
(312.47 -39.9355 -3.38039e-08)
(316.089 -40.6616 -3.41954e-08)
(318.651 -41.1459 -3.43359e-08)
(321.348 -41.6143 -3.45143e-08)
(323.157 -41.9226 -3.4478e-08)
(324.988 -42.2213 -3.44888e-08)
(326.062 -42.3776 -3.43073e-08)
(327.089 -42.5992 -3.42088e-08)
(327.598 -42.871 -3.39349e-08)
(327.887 -43.3558 -3.37695e-08)
(327.665 -44.1656 -3.34632e-08)
(326.854 -45.5835 -3.32438e-08)
(324.907 -48.0603 -3.29247e-08)
(321.357 -51.8978 -3.26261e-08)
(315.524 -56.9775 -3.22747e-08)
(307.162 -62.2505 -3.18341e-08)
(296.622 -66.1266 -3.14056e-08)
(284.467 -67.1612 -3.07803e-08)
(271.436 -65.6541 -3.11092e-08)
(260.081 -63.7117 -3.05432e-08)
(248.427 -59.3753 -3.07832e-08)
(237.904 -55.8015 -3.03188e-08)
(227.22 -50.1569 -3.05191e-08)
(217.162 -45.7939 -3.01793e-08)
(207.084 -39.6351 -3.03697e-08)
(197.995 -34.5527 -3.00605e-08)
(189.819 -27.767 -3.0199e-08)
(183.4 -21.8492 -3.00094e-08)
(179.157 -14.5953 -3.01835e-08)
(177.254 -8.41463 -3.00088e-08)
(176.595 -1.71459 -3.01396e-08)
(176.131 3.37493 -3.01153e-08)
(177.208 10.2514 -3.00784e-08)
(176.89 15.167 -3.01225e-08)
(178.458 20.9976 -3.01459e-08)
(179.008 25.8186 -3.02265e-08)
(181.385 31.0637 -3.03202e-08)
(183.2 36.0229 -3.04682e-08)
(187.104 41.4281 -3.06519e-08)
(191.374 47.1252 -3.08725e-08)
(198.513 53.5573 -3.11425e-08)
(207.438 60.4399 -3.14455e-08)
(219.773 66.9487 -3.17911e-08)
(232.43 70.3371 -3.21311e-08)
(244.364 69.095 -3.24175e-08)
(252.935 65.7134 -3.25706e-08)
(260.127 62.62 -3.26333e-08)
(265.226 58.8998 -3.2784e-08)
(268.567 55.6924 -3.32988e-08)
(270.583 50.1871 -3.35563e-08)
(271.736 45.2235 -3.36121e-08)
(272.61 39.4472 -3.38288e-08)
(273.04 34.272 -3.36927e-08)
(272.883 28.5952 -3.38538e-08)
(271.97 23.6549 -3.37942e-08)
(270.491 18.6672 -3.39435e-08)
(268.447 14.5368 -3.38823e-08)
(266.144 10.6729 -3.39812e-08)
(263.632 7.64464 -3.39512e-08)
(261.204 5.06234 -3.40064e-08)
(258.896 3.23521 -3.39626e-08)
(256.976 1.89501 -3.39831e-08)
(255.442 1.17731 -3.39414e-08)
(254.444 0.80959 -3.39486e-08)
(253.901 0.740267 -3.39286e-08)
(253.686 0.720363 -3.39309e-08)
(237.353 -1.01992 -1.73502e-08)
(237.226 -2.14018 -1.74719e-08)
(237.799 -3.32672 -1.7798e-08)
(238.323 -4.6336 -1.8059e-08)
(239.459 -5.97156 -1.84996e-08)
(240.623 -7.38486 -1.8907e-08)
(242.321 -8.80172 -1.94703e-08)
(244.105 -10.2528 -2.0024e-08)
(246.355 -11.7012 -2.07093e-08)
(248.735 -13.1879 -2.13969e-08)
(251.535 -14.6961 -2.21906e-08)
(254.495 -16.2535 -2.29892e-08)
(257.814 -17.8373 -2.38668e-08)
(261.279 -19.4565 -2.47398e-08)
(265.003 -21.0814 -2.56572e-08)
(268.787 -22.7059 -2.65449e-08)
(272.654 -24.295 -2.74287e-08)
(276.454 -25.8439 -2.82536e-08)
(280.44 -27.3631 -2.91068e-08)
(284.349 -28.8286 -2.98986e-08)
(288.322 -30.2407 -3.06865e-08)
(292.181 -31.5865 -3.14061e-08)
(296 -32.8641 -3.20969e-08)
(299.659 -34.0701 -3.27135e-08)
(303.196 -35.2032 -3.32851e-08)
(306.534 -36.2652 -3.37785e-08)
(309.695 -37.2548 -3.42204e-08)
(313.015 -38.3084 -3.46336e-08)
(314.434 -38.9682 -3.47134e-08)
(317.505 -39.9327 -3.504e-08)
(319.002 -40.6042 -3.50526e-08)
(321.399 -41.3657 -3.5238e-08)
(322.62 -41.9436 -3.51528e-08)
(324.494 -42.5524 -3.52267e-08)
(325.486 -43.0418 -3.50646e-08)
(326.908 -43.5118 -3.50476e-08)
(327.644 -43.8999 -3.48168e-08)
(328.644 -44.2413 -3.47282e-08)
(329.141 -44.5506 -3.44418e-08)
(329.778 -44.8103 -3.43049e-08)
(330.044 -45.1153 -3.39748e-08)
(330.356 -45.4443 -3.38038e-08)
(330.279 -45.916 -3.34582e-08)
(330.102 -46.6001 -3.32587e-08)
(329.317 -47.7131 -3.29041e-08)
(327.964 -49.5086 -3.26721e-08)
(325.395 -52.2422 -3.22972e-08)
(321.346 -56.0127 -3.20011e-08)
(315.232 -60.4103 -3.15769e-08)
(307.109 -64.5992 -3.11671e-08)
(297.09 -67.4306 -3.06643e-08)
(285.514 -68.0528 -3.01128e-08)
(273.314 -66.1856 -3.03689e-08)
(262.447 -63.8998 -2.98749e-08)
(251.303 -59.4769 -3.00633e-08)
(241.082 -55.5223 -2.96672e-08)
(230.744 -49.8383 -2.98358e-08)
(220.924 -45.0869 -2.95619e-08)
(211.178 -38.8391 -2.97394e-08)
(202.373 -33.333 -2.94737e-08)
(194.561 -26.3599 -2.95984e-08)
(188.422 -20.1497 -2.94517e-08)
(184.309 -12.9555 -2.9624e-08)
(182.246 -6.74022 -2.94806e-08)
(181.403 -0.235385 -2.9601e-08)
(181.003 4.92907 -2.95996e-08)
(181.619 11.6002 -2.95319e-08)
(181.381 16.5628 -2.95865e-08)
(182.5 22.4551 -2.95758e-08)
(183.138 27.2373 -2.96593e-08)
(185.175 32.5479 -2.97204e-08)
(187.154 37.4159 -2.98754e-08)
(190.904 42.7938 -3.00351e-08)
(195.461 48.3363 -3.02657e-08)
(202.598 54.5004 -3.05174e-08)
(211.553 60.7103 -3.08244e-08)
(222.993 65.9068 -3.11418e-08)
(234.306 67.8768 -3.14553e-08)
(244.774 66.5145 -3.16936e-08)
(252.777 63.8007 -3.18365e-08)
(259.642 60.7032 -3.18953e-08)
(264.422 56.7395 -3.20638e-08)
(267.37 53.3143 -3.26196e-08)
(269.122 47.8473 -3.25892e-08)
(270.099 43.252 -3.30103e-08)
(270.898 37.7109 -3.27493e-08)
(271.244 32.9231 -3.3037e-08)
(271.061 27.5763 -3.29467e-08)
(270.209 23.0285 -3.30139e-08)
(268.832 18.3666 -3.30865e-08)
(266.97 14.5701 -3.30544e-08)
(264.86 10.9693 -3.31268e-08)
(262.582 8.21681 -3.31075e-08)
(260.377 5.83523 -3.3147e-08)
(258.314 4.22167 -3.31146e-08)
(256.6 3.04657 -3.31153e-08)
(255.255 2.44727 -3.30921e-08)
(254.37 2.1252 -3.30853e-08)
(253.886 2.06955 -3.30754e-08)
(253.694 2.05183 -3.30718e-08)
(268.098 -0.223211 -2.62557e-08)
(268.89 -1.59346 -2.65925e-08)
(270.059 -3.10192 -2.69999e-08)
(271.416 -4.7636 -2.74147e-08)
(273.123 -6.49632 -2.78961e-08)
(274.978 -8.31354 -2.83779e-08)
(277.136 -10.1495 -2.8919e-08)
(279.384 -12.0135 -2.94501e-08)
(281.864 -13.8603 -3.00262e-08)
(284.373 -15.7027 -3.05803e-08)
(287.048 -17.5211 -3.11623e-08)
(289.714 -19.3382 -3.17103e-08)
(292.495 -21.1365 -3.227e-08)
(295.234 -22.9272 -3.27852e-08)
(298.035 -24.6921 -3.32977e-08)
(300.76 -26.4353 -3.37578e-08)
(303.5 -28.1384 -3.42035e-08)
(306.142 -29.7994 -3.45945e-08)
(308.763 -31.3966 -3.49652e-08)
(311.246 -32.925 -3.52747e-08)
(313.672 -34.3717 -3.55585e-08)
(315.932 -35.7328 -3.57791e-08)
(318.104 -37.0019 -3.59719e-08)
(320.097 -38.1782 -3.61023e-08)
(321.981 -39.2605 -3.62042e-08)
(323.682 -40.2504 -3.62494e-08)
(325.26 -41.15 -3.6267e-08)
(326.799 -42.0694 -3.62273e-08)
(327.013 -42.5526 -3.60574e-08)
(328.317 -43.2838 -3.59895e-08)
(328.768 -43.8568 -3.57446e-08)
(329.647 -44.3266 -3.56498e-08)
(329.97 -44.819 -3.53597e-08)
(330.647 -45.1949 -3.52372e-08)
(330.883 -45.6447 -3.49188e-08)
(331.434 -45.986 -3.47715e-08)
(331.59 -46.3979 -3.44338e-08)
(332.01 -46.6973 -3.4268e-08)
(332.079 -47.067 -3.39141e-08)
(332.344 -47.3543 -3.37297e-08)
(332.261 -47.7474 -3.33726e-08)
(332.278 -48.1704 -3.31705e-08)
(331.875 -48.8185 -3.28118e-08)
(331.356 -49.7333 -3.2591e-08)
(330.161 -51.1369 -3.22265e-08)
(328.386 -53.1811 -3.1974e-08)
(325.364 -56.0309 -3.15833e-08)
(321.019 -59.5409 -3.12756e-08)
(314.863 -63.3277 -3.08314e-08)
(307.046 -66.7144 -3.04316e-08)
(297.526 -68.854 -2.99068e-08)
(286.489 -69.1641 -2.94109e-08)
(275.048 -66.8608 -2.96054e-08)
(264.64 -64.2935 -2.91686e-08)
(253.98 -59.6653 -2.93119e-08)
(244.061 -55.3763 -2.8972e-08)
(234.041 -49.5432 -2.91133e-08)
(224.451 -44.4373 -2.88964e-08)
(214.999 -38.0171 -2.90644e-08)
(206.454 -32.1189 -2.88353e-08)
(198.936 -24.9273 -2.89484e-08)
(192.979 -18.444 -2.88351e-08)
(188.898 -11.2325 -2.90038e-08)
(186.642 -4.95885 -2.8888e-08)
(185.606 1.45407 -2.89996e-08)
(185.163 6.63189 -2.90154e-08)
(185.494 13.1276 -2.89289e-08)
(185.25 18.1802 -2.89875e-08)
(186.057 24.0662 -2.89554e-08)
(186.696 28.8656 -2.90364e-08)
(188.504 34.2122 -2.90766e-08)
(190.567 39.0195 -2.92352e-08)
(194.232 44.3623 -2.93803e-08)
(198.961 49.7069 -2.96174e-08)
(206.02 55.4745 -2.9858e-08)
(214.783 60.7953 -3.01662e-08)
(225.356 64.6674 -3.04582e-08)
(235.624 65.6199 -3.07522e-08)
(245.023 64.3446 -3.09655e-08)
(252.602 61.838 -3.11046e-08)
(259.063 58.5645 -3.11625e-08)
(263.509 54.3918 -3.13243e-08)
(266.148 50.8362 -3.18404e-08)
(267.724 45.5752 -3.16821e-08)
(268.565 41.2759 -3.23894e-08)
(269.303 36.0339 -3.17829e-08)
(269.564 31.5861 -3.23324e-08)
(269.389 26.5826 -3.19663e-08)
(268.574 22.392 -3.23316e-08)
(267.32 18.0625 -3.21465e-08)
(265.606 14.5821 -3.23168e-08)
(263.692 11.263 -3.22471e-08)
(261.622 8.76869 -3.23149e-08)
(259.639 6.61221 -3.22783e-08)
(257.795 5.19043 -3.23007e-08)
(256.275 4.15091 -3.22603e-08)
(255.088 3.64013 -3.22636e-08)
(254.301 3.35388 -3.22481e-08)
(253.869 3.30822 -3.22414e-08)
(253.696 3.29225 -3.22383e-08)
(296.219 0.0229015 -3.31248e-08)
(297.112 -1.45635 -3.34432e-08)
(297.953 -3.11025 -3.37234e-08)
(299.164 -4.93863 -3.40476e-08)
(300.371 -6.86519 -3.43418e-08)
(301.85 -8.89016 -3.46613e-08)
(303.335 -10.947 -3.49565e-08)
(304.987 -13.0326 -3.52594e-08)
(306.624 -15.0991 -3.55395e-08)
(308.33 -17.1504 -3.58119e-08)
(309.994 -19.1592 -3.60606e-08)
(311.664 -21.1454 -3.62898e-08)
(313.299 -23.0986 -3.64943e-08)
(314.912 -25.0274 -3.66712e-08)
(316.496 -26.9164 -3.68223e-08)
(318.036 -28.7662 -3.694e-08)
(319.546 -30.5598 -3.70336e-08)
(320.994 -32.2951 -3.70897e-08)
(322.404 -33.9558 -3.71217e-08)
(323.735 -35.5408 -3.71166e-08)
(325.022 -37.0367 -3.70887e-08)
(326.217 -38.4439 -3.70249e-08)
(327.361 -39.7524 -3.69401e-08)
(328.406 -40.9661 -3.68219e-08)
(329.397 -42.0784 -3.66866e-08)
(330.287 -43.0964 -3.65189e-08)
(331.114 -44.0164 -3.63385e-08)
(331.871 -44.9471 -3.61039e-08)
(331.883 -45.3686 -3.5902e-08)
(332.533 -46.0987 -3.56675e-08)
(332.643 -46.574 -3.53754e-08)
(333.073 -47.0422 -3.51648e-08)
(333.114 -47.4281 -3.48485e-08)
(333.435 -47.7892 -3.46331e-08)
(333.436 -48.1323 -3.431e-08)