/*--------------------------------*- C++ -*----------------------------------*\
  =========                 |
  \\      /  F ield         | OpenFOAM: The Open Source CFD Toolbox
   \\    /   O peration     | Website:  https://openfoam.org
    \\  /    A nd           | Version:  7
     \\/     M anipulation  |
\*---------------------------------------------------------------------------*/
FoamFile
{
    version     2.0;
    format      ascii;
    class       scalarField;
    location    "0.105/lagrangian/reactingCloud1";
    object      age;
}
// * * * * * * * * * * * * * * * * * * * * * * * * * * * * * * * * * * * * * //


210
(
0.004953
0.004977
0.004929
0.001593
0.001569
0.001545
0.001521
0.001497
0.001473
0.001449
0.001425
0.001401
0.001377
0.001353
0.001329
0.001305
0.001281
0.001257
0.001233
0.001209
0.001185
0.001161
0.001137
0.001113
0.001089
0.001065
0.001041
0.001017
0.000993
0.000969
0.000945
0.000921
0.000897
0.000873
0.000849
0.000825
0.000801
0.000777
0.000753
0.000729
0.000705
0.000681
0.000657
0.000633
0.000609
0.000585
0.000561
0.000537
0.000513
0.000489
0.000465
0.000441
0.000417
0.000393
0.000369
0.000345
0.000321
0.000297
0.000273
0.000249
0.000225
0.000201
0.000177
0.000153
0.000129
0.000105
0.000104625
8.1e-05
5.7e-05
3.3e-05
9e-06
0.004761
0.002889
0.002817
0.003513
0.002721
0.002745
0.002697
0.002673
0.002649
0.002625
0.002601
0.002577
0.002553
0.00272062
0.002505
0.002529
0.002481
0.002457
0.003465
0.002433
0.002409
0.002361
0.002337
0.002769
0.002313
0.002289
0.002265
0.003825
0.002241
0.002217
0.002193
0.002145
0.002169
0.002121
0.002097
0.002073
0.002049
0.002001
0.001977
0.001953
0.001929
0.001905
0.001881
0.001857
0.001809
0.001833
0.001785
0.002025
0.001737
0.001713
0.001761
0.001689
0.001665
0.001641
0.002385
0.001617
0.004545
0.004737
0.004161
0.004521
0.003969
0.003921
0.003993
0.003897
0.003945
0.003873
0.003849
0.003801
0.003729
0.003777
0.003657
0.003633
0.003537
0.003489
0.003705
0.003561
0.003441
0.003609
0.003345
0.003393
0.003369
0.003249
0.003297
0.003585
0.003201
0.003273
0.003321
0.003681
0.003225
0.003177
0.003153
0.003057
0.003753
0.003081
0.003009
0.002985
0.003129
0.003033
0.003417
0.002961
0.002937
0.002793
0.002865
0.002913
0.002841
0.003105
0.004881
0.004809
0.004905
0.004689
0.004785
0.004857
0.004569
0.004833
0.004713
0.004497
0.004449
0.004617
0.004425
0.004353
0.004329
0.004233
0.004593
0.004305
0.004185
0.004281
0.004257
0.004377
0.004137
0.004641
0.004401
0.004473
0.004209
0.004089
0.004041
0.004065
0.004665
0.004017
0.004113
)


// ************************************************************************* //
