/*--------------------------------*- C++ -*----------------------------------*\
  =========                 |
  \\      /  F ield         | OpenFOAM: The Open Source CFD Toolbox
   \\    /   O peration     | Website:  https://openfoam.org
    \\  /    A nd           | Version:  7
     \\/     M anipulation  |
\*---------------------------------------------------------------------------*/
FoamFile
{
    version     2.0;
    format      ascii;
    class       labelField;
    location    "0.105/lagrangian/reactingCloud1";
    object      cellId;
}
// * * * * * * * * * * * * * * * * * * * * * * * * * * * * * * * * * * * * * //


210
(
970
972
998
1042
1029
1028
1011
985
966
949
862
929
908
891
882
868
844
842
805
803
788
768
751
721
725
701
688
675
647
621
605
601
584
569
542
521
480
502
487
466
220
421
403
382
320
371
349
333
300
315
283
260
272
249
221
202
197
193
165
150
121
122
60
84
87
62
67
42
21
21
9
955
1018
958
756
1025
980
1006
1029
919
857
858
880
901
757
861
756
862
736
495
757
800
803
760
717
762
761
741
515
721
750
702
705
703
686
665
668
671
603
601
583
562
561
518
522
507
499
503
455
463
440
436
417
418
398
396
398
963
862
1025
740
1041
994
906
911
784
807
828
810
564
564
566
566
551
532
443
465
470
382
436
409
347
379
329
282
337
308
285
241
268
249
208
237
142
168
172
130
103
106
43
66
45
55
28
25
28
1
433
460
517
510
598
652
645
708
706
728
811
815
838
862
1001
994
401
403
389
384
343
341
349
298
280
280
262
240
250
169
164
171
167
)


// ************************************************************************* //
