/*--------------------------------*- C++ -*----------------------------------*\
  =========                 |
  \\      /  F ield         | OpenFOAM: The Open Source CFD Toolbox
   \\    /   O peration     | Website:  https://openfoam.org
    \\  /    A nd           | Version:  7
     \\/     M anipulation  |
\*---------------------------------------------------------------------------*/
FoamFile
{
    version     2.0;
    format      ascii;
    class       vectorField;
    location    "0.105/lagrangian/reactingCloud1";
    object      coordinates;
}
// * * * * * * * * * * * * * * * * * * * * * * * * * * * * * * * * * * * * * //


210
(
(1.21326 0.0371451 -2.58647e-12)
(1.20716 0.0490933 -1.70772e-12)
(1.19244 0.0462635 -2.48707e-12)
(0.428036 0.133491 7.98905e-11)
(0.424283 0.0803159 -1.21822e-11)
(0.421985 0.0858937 -4.18948e-11)
(0.417663 0.0667635 -9.24251e-12)
(0.416668 0.109975 -1.20336e-11)
(0.412766 0.0981803 1.70318e-11)
(0.409102 0.0805731 -1.12325e-11)
(0.393302 0.123715 1.03362e-06)
(0.402971 0.0782337 1.42541e-11)
(0.399769 0.0831733 -4.47701e-11)
(0.395039 0.0637535 1.01858e-12)
(0.395982 0.126403 4.08113e-12)
(0.389772 0.0845972 -7.27196e-12)
(0.388221 0.107058 -1.94228e-12)
(0.385253 0.120677 -1.32018e-10)
(0.380116 0.100136 -1.21494e-10)
(0.378573 0.113739 -1.55324e-11)
(0.371818 0.0758619 -2.36848e-11)
(0.368172 0.0791265 -9.65583e-12)
(0.363813 0.0593966 -3.40463e-11)
(0.362559 0.127188 -3.79014e-11)
(0.358757 0.0977321 -7.28057e-11)
(0.356025 0.125353 -2.2623e-11)
(0.350121 0.0793522 -5.95894e-11)
(0.344483 0.0322437 -1.56936e-11)
(0.342591 0.0817831 -4.32291e-12)
(0.339696 0.123328 -4.62428e-11)
(0.33508 0.0975143 -1.53467e-11)
(0.332046 0.119385 -1.79741e-11)
(0.327856 0.102173 -9.18049e-12)
(0.322417 0.0658166 -3.35224e-11)
(0.319732 0.112461 -6.46043e-11)
(0.315626 0.117051 -2.29177e-10)
(0.305393 0.125645 -3.58834e-07)
(0.308338 0.111935 4.5958e-11)
(0.30296 0.0805446 2.30641e-11)
(0.29983 0.0897386 -6.6024e-11)
(0.242459 0.128138 1.09128e-07)
(0.291707 0.120557 -1.83722e-11)
(0.287477 0.106086 4.8048e-11)
(0.283761 0.114221 7.13897e-11)
(0.265834 0.125584 7.33528e-08)
(0.275536 0.0527091 -2.15107e-11)
(0.271398 0.0690266 -3.67898e-12)
(0.266683 0.0394763 -4.0101e-12)
(0.259705 0.124269 4.47862e-12)
(0.258762 0.0291749 1.29121e-12)
(0.256047 0.109239 -2.29043e-11)
(0.251172 0.122879 -8.89731e-12)
(0.247802 0.0482166 7.0423e-12)
(0.24306 0.0662252 6.25615e-12)
(0.239032 0.120397 1.53036e-11)
(0.235389 0.115291 -5.55765e-12)
(0.231597 0.0192942 -3.87063e-13)
(0.227322 0.0440185 8.56923e-13)
(0.223536 0.0944122 5.2058e-12)
(0.219154 0.0590446 -4.80298e-12)
(0.215392 0.121126 4.01465e-14)
(0.211643 0.113938 1.67838e-11)
(0.199307 0.127311 -1.99491e-12)
(0.204185 0.102816 -1.00303e-12)
(0.200182 0.0801602 2.86795e-11)
(0.19604 0.11087 -1.42023e-13)
(0.196201 0.079066 -2.32367e-13)
(0.192412 0.113057 3.9717e-12)
(0.187802 0.119555 1.34807e-11)
(0.183882 0.120013 1.69203e-11)
(0.180337 0.0688778 -2.68208e-14)
(0.549271 0.149562 -1.77256e-07)
(0.564009 0.1223 -7.87475e-12)
(0.550323 0.130882 1.03118e-10)
(0.509845 0.150994 1.27034e-07)
(0.560533 0.0734719 -1.9604e-13)
(0.553901 0.112293 4.40886e-12)
(0.558671 0.0655995 -3.82166e-12)
(0.559033 0.0408152 -6.88819e-13)
(0.539834 0.120567 -1.61029e-12)
(0.529042 0.134765 -1.18504e-07)
(0.530491 0.130092 -2.32943e-11)
(0.534149 0.116506 -7.64214e-13)
(0.534556 0.106305 4.76315e-12)
(0.509737 0.140229 -1.7399e-07)
(0.529564 0.106076 7.05846e-12)
(0.507236 0.147527 -1.20422e-07)
(0.528807 0.0969841 2.45667e-11)
(0.504344 0.147505 1.84838e-07)
(0.455557 0.16039 -3.59494e-07)
(0.509249 0.14026 -4.93548e-08)
(0.516001 0.118899 1.19e-10)
(0.516136 0.0936225 4.52218e-12)
(0.508388 0.119647 4.08076e-11)
(0.497865 0.143387 8.48869e-08)
(0.509144 0.102196 1.79976e-11)
(0.505627 0.108806 3.95693e-11)
(0.50278 0.11142 1.74725e-11)
(0.457289 0.161525 1.71262e-07)
(0.499724 0.114318 1.76325e-10)
(0.503318 0.038556 2.23486e-13)
(0.495748 0.105927 9.88618e-11)
(0.492955 0.0770412 6.44583e-12)
(0.493964 0.0982762 1.17559e-10)
(0.490651 0.0725136 6.29753e-11)
(0.48745 0.075726 7.28094e-13)
(0.485908 0.0499537 7.50481e-11)
(0.483304 0.0294075 2.39387e-13)
(0.475728 0.0972462 4.8598e-12)
(0.472209 0.107085 4.56453e-11)
(0.470354 0.097634 8.19869e-11)
(0.467208 0.105403 6.22329e-13)
(0.46411 0.11087 1.15768e-11)
(0.458401 0.134529 3.09241e-11)
(0.458807 0.104611 -3.0049e-12)
(0.453888 0.0606694 -1.30716e-11)
(0.455003 0.125553 4.23377e-11)
(0.451256 0.0934648 -2.47727e-11)
(0.443169 0.153696 -4.6773e-08)
(0.445573 0.0909556 -8.91489e-12)
(0.442427 0.119104 -3.84722e-12)
(0.440056 0.144632 3.78297e-07)
(0.437079 0.138207 1.5029e-11)
(0.436223 0.129182 2.06556e-11)
(0.43345 0.129757 -3.08749e-11)
(0.432368 0.146488 -3.45602e-07)
(0.430902 0.129504 -7.95461e-11)
(0.79887 0.0875123 4.13995e-08)
(0.765996 0.0902278 2.39679e-07)
(0.815912 0.0742686 2.05615e-08)
(0.733192 0.099025 6.12077e-08)
(0.821884 0.0172265 -2.81003e-11)
(0.801634 0.0279374 -2.25632e-12)
(0.780313 0.0678367 1.73802e-07)
(0.781308 0.0445364 -7.21461e-11)
(0.747777 0.0777055 -3.90883e-07)
(0.75395 0.0630855 2.69422e-11)
(0.75469 0.056406 -9.96081e-12)
(0.750243 0.0478811 2.86765e-11)
(0.693515 0.08821 5.09107e-11)
(0.691894 0.0919617 -1.61192e-07)
(0.69179 0.0782792 6.00844e-12)
(0.690145 0.0757176 1.62653e-12)
(0.687388 0.0519856 9.15095e-11)
(0.681854 0.0430379 1.30098e-11)
(0.664272 0.103855 5.2703e-07)
(0.667719 0.0885186 -3.16016e-11)
(0.667036 0.0585783 1.22406e-11)
(0.649748 0.110373 4.32432e-07)
(0.660499 0.0218925 -1.16189e-12)
(0.655739 0.0658869 8.10488e-12)
(0.642519 0.0834786 1.38618e-10)
(0.644562 0.00584435 2.47419e-12)
(0.638694 0.0704765 2.72768e-11)
(0.628982 0.117528 -3.60027e-08)
(0.636052 0.0156741 -4.36328e-12)
(0.631775 0.0785949 -4.91434e-13)
(0.627727 0.098245 -4.30777e-11)
(0.622887 0.123353 -2.77038e-07)
(0.625272 0.0772309 1.17822e-11)
(0.619322 0.0747067 3.15051e-11)
(0.614122 0.0787221 -3.63646e-12)
(0.613922 0.0147916 4.28031e-12)
(0.601418 0.125631 -4.46144e-07)
(0.603535 0.0826378 4.46124e-11)
(0.602395 0.0500166 6.89019e-11)
(0.59414 0.0722935 9.56797e-11)
(0.592385 0.116884 1.44667e-10)
(0.591335 0.099483 6.66121e-11)
(0.581234 0.126354 -2.10682e-07)
(0.581565 0.101097 -1.09627e-11)
(0.577657 0.105578 4.65121e-11)
(0.575379 0.0318158 -1.42069e-12)
(0.575202 0.0879259 -5.14156e-13)
(0.574411 0.105563 1.70245e-10)
(0.57213 0.0860002 -1.45286e-11)
(0.569832 0.13968 4.39328e-08)
(1.16169 0.0519142 -3.33961e-13)
(1.13628 0.0476183 -3.28454e-13)
(1.11876 0.0725576 6.45084e-08)
(1.10945 0.0224088 -2.80398e-13)
(1.07667 0.0681867 -8.02488e-07)
(1.05468 0.0726995 -1.56937e-07)
(1.0594 0.0213199 1.58315e-12)
(1.02729 0.0830127 -3.37311e-07)
(1.02847 0.0717958 3.8762e-07)
(1.0158 0.037567 9.75193e-13)
(0.987129 0.0448189 2.31581e-11)
(0.989409 0.0721816 -5.08578e-08)
(0.974531 0.0461172 5.25076e-12)
(0.965706 0.0282846 3.11228e-12)
(0.922129 0.0560751 4.24198e-12)
(0.922173 0.015427 -5.38545e-12)
(0.908236 0.0763213 4.29685e-07)
(0.905554 0.0599781 3.09793e-07)
(0.901309 0.0233241 1.99747e-11)
(0.900073 0.0574116 -2.7668e-11)
(0.886577 0.0597404 3.59988e-11)
(0.883226 0.0761948 -2.32015e-07)
(0.882055 0.0221103 -3.87088e-12)
(0.870459 0.0914712 2.73264e-07)
(0.862322 0.0774592 -3.37815e-07)
(0.859678 0.0796131 3.50901e-07)
(0.853859 0.0665271 -4.02264e-09)
(0.846604 0.0765981 1.4472e-07)
(0.845793 0.0223406 -9.95136e-12)
(0.824468 0.0548326 3.14323e-11)
(0.822803 0.0843757 -8.90234e-08)
(0.820996 0.0446462 -7.42366e-11)
(0.819322 0.0673559 5.7099e-07)
)


// ************************************************************************* //
