/*--------------------------------*- C++ -*----------------------------------*\
  =========                 |
  \\      /  F ield         | OpenFOAM: The Open Source CFD Toolbox
   \\    /   O peration     | Website:  https://openfoam.org
    \\  /    A nd           | Version:  7
     \\/     M anipulation  |
\*---------------------------------------------------------------------------*/
FoamFile
{
    version     2.0;
    format      ascii;
    class       labelField;
    location    "0.105/lagrangian/reactingCloud1";
    object      origId;
}
// * * * * * * * * * * * * * * * * * * * * * * * * * * * * * * * * * * * * * //


210
(
1
0
2
142
143
144
145
146
147
148
149
150
151
152
153
154
155
156
157
158
159
160
161
162
163
164
165
166
167
168
169
170
171
172
173
174
175
176
177
178
179
180
181
182
183
184
185
186
187
188
189
190
191
192
193
194
195
196
197
198
199
200
201
202
203
204
205
206
207
208
209
9
87
90
61
94
93
96
97
98
99
100
101
102
95
104
103
105
106
63
107
108
110
111
92
112
113
114
48
115
116
117
119
118
120
121
122
123
125
126
127
128
129
130
131
133
132
134
124
136
137
135
138
139
140
109
141
18
10
34
19
42
44
41
45
43
46
47
49
52
50
55
56
60
62
53
59
64
57
68
66
67
72
70
58
74
71
69
54
73
75
76
80
51
79
82
83
77
81
65
84
85
91
88
86
89
78
4
7
3
12
8
5
17
6
11
20
22
15
23
26
27
31
16
28
33
29
30
25
35
14
24
21
32
37
39
38
13
40
36
)


// ************************************************************************* //
