/*--------------------------------*- C++ -*----------------------------------*\
  =========                 |
  \\      /  F ield         | OpenFOAM: The Open Source CFD Toolbox
   \\    /   O peration     | Website:  https://openfoam.org
    \\  /    A nd           | Version:  7
     \\/     M anipulation  |
\*---------------------------------------------------------------------------*/
FoamFile
{
    version     2.0;
    format      ascii;
    class       Cloud<passiveParticle>;
    location    "0.105/lagrangian/reactingCloud1";
    object      positions;
}
// * * * * * * * * * * * * * * * * * * * * * * * * * * * * * * * * * * * * * //

210
(
(0.818399 0.0909142 0.00195965 0.0887272) 47379 94080 1
(0.182221 0.430177 0.106154 0.281448) 47381 94169 1
(0.0257216 0.487234 0.408463 0.0785821) 47424 94170 1
(0.462194 0.1251 0.269537 0.143169) 3442 6690 2
(0.722456 0.0792243 0.142733 0.0555867) 3429 6701 2
(0.10885 0.185304 0.251848 0.453998) 3428 6660 2
(0.175005 0.407613 0.0879184 0.329464) 3411 6627 1
(0.714842 0.141175 0.101849 0.0421352) 3385 6615 1
(0.312433 0.343311 0.24928 0.0949761) 3366 6542 1
(0.0925341 0.450535 0.386566 0.0703653) 3349 6545 1
(0.150603 0.275845 0.4333 0.140252) 3262 6375 2
(0.573727 0.209915 0.00222231 0.214136) 3329 6468 2
(0.589583 0.180323 0.213405 0.0166887) 3308 6465 2
(0.244658 0.376877 0.17849 0.199975) 3291 6394 1
(0.745967 0.126657 0.0808174 0.0465585) 3282 6376 1
(0.149674 0.257628 0.166416 0.426282) 3268 6349 2
(0.313223 0.34332 0.327092 0.0163648) 3244 6304 1
(0.0871352 0.154245 0.297651 0.460969) 3242 6297 2
(0.0476209 0.369839 0.489398 0.0931418) 3205 6264 2
(0.802957 0.0982565 0.0297729 0.0690132) 3203 6224 1
(0.0991622 0.168133 0.45104 0.281665) 3188 6195 2
(0.722318 0.136855 0.0476695 0.0931578) 3168 6153 1
(0.497837 0.248301 0.0019539 0.251908) 3151 6121 2
(0.326481 0.336554 0.0657877 0.271177) 3121 6062 1
(0.206728 0.384582 0.361625 0.0470655) 3125 6069 1
(0.540813 0.0408267 0.188647 0.229713) 3101 6023 2
(0.150767 0.210962 0.21308 0.425191) 3088 5998 2
(0.270436 0.193368 0.17093 0.365267) 3075 5973 2
(0.778622 0.110666 0.100511 0.0102014) 3047 5920 1
(0.476464 0.261664 0.0507931 0.211079) 3021 5867 1
(0.227213 0.386342 0.0283222 0.358123) 3005 5836 1
(0.141886 0.207726 0.215561 0.434827) 3001 5827 2
(0.531143 0.232787 0.0525126 0.183557) 2984 5794 1
(0.258 0.168895 0.371227 0.201878) 2969 5768 2
(0.68339 0.127306 0.158444 0.0308596) 2942 5715 2
(0.167274 0.416077 0.0746739 0.341975) 2921 5674 1
(0.770959 0.071629 0.041174 0.116238) 2880 5592 2
(0.132082 0.262437 0.163803 0.441678) 2902 5634 2
(0.180402 0.385983 0.00773305 0.425882) 2887 5605 2
(0.195056 0.297175 0.105275 0.402494) 2866 5565 2
(0.293642 0.0461132 0.307114 0.35313) 2620 96693 1
(0.646351 0.176825 0.093503 0.0833218) 2821 5477 1
(0.445415 0.212606 0.283936 0.0580418) 2803 5480 2
(0.0236024 0.480138 0.206069 0.29019) 2782 5439 1
(0.71749 0.0967787 0.0418951 0.143836) 2720 5280 2
(0.327626 0.336187 0.0472946 0.288892) 2771 5382 1
(0.619177 0.190412 0.0377257 0.152686) 2749 5337 1
(0.227503 0.386249 0.301072 0.0851763) 2733 5308 1
(0.311233 0.0980492 0.243754 0.346964) 2700 5241 2
(0.490374 0.230472 0.243411 0.035743) 2715 5270 1
(0.149324 0.407124 0.0182136 0.425338) 2683 5208 2
(0.0784911 0.457523 0.460754 0.00323132) 2660 5165 2
(0.0541703 0.441506 0.502547 0.00177703) 2672 5186 1
(0.122353 0.19917 0.229695 0.448782) 2649 5141 2
(0.339761 0.325472 0.176613 0.158154) 2621 5086 1
(0.274995 0.350634 0.0118688 0.362503) 2602 5050 2
(0.0223802 0.48881 0.0410607 0.447749) 2597 5041 1
(0.173523 0.406454 0.0949886 0.325035) 2593 5032 1
(0.583928 0.205281 0.0826531 0.128138) 2565 4977 1
(0.292254 0.353873 0.0245597 0.329313) 2550 4951 1
(0.46827 0.265865 0.0210854 0.24478) 2521 4892 1
(0.130718 0.426833 0.281094 0.161355) 2522 4893 1
(0.357975 0.318605 0.227119 0.0963012) 2460 4812 1
(0.139584 0.430208 0.211419 0.218789) 2484 4820 1
(0.0230671 0.408804 0.0626285 0.5055) 2487 4825 2
(0.354244 0.0704853 0.322878 0.252393) 2462 4779 2
(0.495204 0.0477258 0.252398 0.204672) 2467 4789 2
(0.798636 0.0982711 0.0162954 0.0867977) 2442 4776 1
(0.433926 0.276182 0.0293788 0.260514) 2421 4735 1
(0.1898 0.39693 0.310484 0.102787) 2421 4696 1
(0.666037 0.148945 0.018036 0.166981) 2409 4684 2
(0.626721 0.0137377 0.172609 0.186932) 4020 7815 2
(0.128514 0.0266388 0.436575 0.408272) 4083 7976 2
(0.114455 0.443486 0.291105 0.150954) 4023 7821 1
(0.199744 0.393767 0.166583 0.239905) 3821 7465 1
(0.711978 0.143443 0.0113594 0.13322) 4090 7951 1
(0.800847 0.0995977 0.00853316 0.0910225) 4045 7864 1
(0.095327 0.432104 0.108391 0.364178) 4071 7953 1
(0.32233 0.183634 0.136838 0.357198) 4094 7959 2
(0.407922 0.217437 0.0713543 0.303287) 3984 7744 2
(0.0465296 0.47777 0.0617176 0.413982) 3922 7626 1
(0.140403 0.390936 0.442015 0.0266459) 3923 7664 2
(0.26959 0.363272 0.309147 0.0579906) 3945 7707 1
(0.0177403 0.474345 0.469972 0.0379421) 3966 7709 1
(0.16196 0.250354 0.426311 0.161375) 3822 7467 2
(0.368209 0.229131 0.324708 0.0779517) 3926 7670 2
(0.359407 0.110025 0.319995 0.210573) 3821 7429 2
(0.507774 0.246281 0.175246 0.0706991) 3927 7636 1
(0.243139 0.378964 0.0971848 0.280712) 3801 7390 1
(0.0442762 0.471382 0.220086 0.264255) 3560 6957 1
(0.395875 0.126512 0.305763 0.17185) 3822 7467 2
(0.394797 0.303285 0.292318 0.00959928) 3865 7513 1
(0.678945 0.16055 0.00949504 0.15101) 3868 7519 1
(0.460949 0.26973 0.0883095 0.181011) 3825 7435 1
(0.133096 0.421684 0.422459 0.0227615) 3782 7350 1
(0.129798 0.42342 0.143083 0.303699) 3827 7477 1
(0.126506 0.331184 0.0928248 0.449485) 3826 7436 2
(0.656909 0.0415627 0.130072 0.171456) 3806 7398 2
(0.364696 0.31814 0.205113 0.112051) 3580 96645 2
(0.0202032 0.490565 0.364143 0.125089) 3786 7359 1
(0.406062 0.290649 0.240092 0.0631971) 3815 7454 1
(0.15658 0.422019 0.213851 0.20755) 3767 7322 1
(0.302348 0.229868 0.106187 0.361596) 3770 7327 2
(0.0495223 0.286279 0.189372 0.474827) 3768 7324 2
(0.364772 0.317828 0.201227 0.116174) 3751 7291 1
(0.324062 0.0330527 0.339805 0.30308) 3730 7288 2
(0.127607 0.436437 0.0624426 0.373513) 3733 7258 1
(0.0214275 0.436582 0.421631 0.120359) 3736 7261 1
(0.068581 0.458677 0.303971 0.168771) 3668 7167 1
(0.00570153 0.0937944 0.497199 0.403305) 3666 7127 2
(0.277464 0.361107 0.177066 0.184363) 3648 7090 1
(0.177635 0.40787 0.328361 0.0861338) 3627 7087 1
(0.313906 0.331364 0.327113 0.0276167) 3626 7046 1
(0.543188 0.208915 0.234934 0.0129618) 3583 7001 2
(0.180022 0.406012 0.310554 0.103413) 3587 7009 1
(0.288572 0.314025 0.378144 0.0192581) 3572 6980 2
(0.115385 0.376381 0.454854 0.0533808) 3564 6964 2
(0.267257 0.352531 0.332175 0.0480371) 3568 6933 1
(0.0279593 0.207152 0.273434 0.491454) 3520 6840 2
(0.451444 0.0883695 0.278295 0.181892) 3528 6894 2
(0.130999 0.433449 0.404007 0.0315445) 3505 6849 1
(0.371173 0.0960291 0.314928 0.217869) 3501 6805 2
(0.854483 0.0478607 0.0741661 0.0234901) 3482 6804 2
(0.717078 0.0334903 0.141602 0.10783) 3483 6770 2
(0.58046 0.204513 0.036269 0.178759) 3463 6767 1
(0.560063 0.104815 0.114799 0.220323) 3461 6725 2
(0.166095 0.407548 0.319759 0.106599) 3463 6728 1
(0.496827 0.25156 1.28067e-05 0.2516) 5083 9899 1
(0.181902 0.399957 0.336157 0.0819845) 4982 9696 1
(0.0996491 0.44953 0.0493085 0.401512) 5145 10025 1
(0.30428 0.122664 0.221932 0.351124) 4860 9453 2
(0.455826 0.225595 0.0474494 0.27113) 5176 10085 2
(0.312983 0.0144591 0.32909 0.343467) 5114 9961 2
(0.19864 0.400106 0.0805265 0.320728) 5026 9787 1
(0.286836 0.356644 0.11442 0.242101) 5031 9795 1
(0.273151 0.089013 0.366087 0.27175) 4904 9580 2
(0.080337 0.308604 0.472984 0.138075) 4927 9626 2
(0.140884 0.019859 0.42957 0.409687) 4948 9631 2
(0.601105 0.139581 0.0519246 0.20739) 4930 9592 2
(0.410212 0.164711 0.300385 0.124692) 4684 9148 2
(0.0876388 0.393296 0.0653583 0.453707) 4684 9110 2
(0.845045 0.018338 0.0592504 0.077367) 4686 9114 2
(0.164548 0.00708409 0.417683 0.410685) 4686 9116 2
(0.156623 0.42399 0.383443 0.0359444) 4671 9085 1
(0.558585 0.0793122 0.220245 0.141858) 4652 9050 2
(0.411046 0.127964 0.166925 0.294065) 4563 8874 2
(0.287379 0.299669 0.045939 0.367013) 4585 8916 2
(0.14455 0.408851 0.377477 0.0691224) 4590 8926 1
(0.0844329 0.1925 0.259394 0.463673) 4502 8754 2
(0.546283 0.199059 0.0322603 0.222398) 4556 8899 1
(0.888354 0.0559299 0.0357697 0.0199468) 4529 8810 1
(0.346515 0.317875 0.0104763 0.325134) 4467 8687 2
(0.286124 0.0771912 0.280143 0.356542) 4499 8750 2
(0.525607 0.237552 0.0705765 0.166264) 4449 8652 1
(0.514658 0.230482 0.0054284 0.249432) 4402 8559 2
(0.530441 0.096745 0.113848 0.258966) 4457 8667 2
(0.105879 0.440379 0.160363 0.293379) 4428 8610 1
(0.0871931 0.44418 0.366692 0.101934) 4405 8565 1
(0.206711 0.397144 0.31849 0.0776541) 4361 8482 1
(0.819939 0.0901663 0.0617601 0.0281341) 4388 8535 1
(0.203952 0.0929758 0.305488 0.397585) 4369 8496 2
(0.0618834 0.322952 0.483738 0.131427) 4328 8454 2
(0.259603 0.0708374 0.369868 0.299691) 4357 8475 2
(0.45346 0.268578 0.101865 0.176097) 4262 8325 1
(0.710932 0.120253 0.0248218 0.143994) 4288 8338 2
(0.0856659 0.317574 0.45574 0.14102) 4292 8348 2
(0.00620444 0.3097 0.188558 0.495538) 4250 8264 2
(0.144133 0.429039 0.17432 0.252508) 4223 8213 1
(0.686655 0.157295 0.142133 0.0139168) 4226 8217 1
(0.0397043 0.480271 0.00960894 0.470415) 4163 8094 1
(0.366447 0.309269 0.210201 0.114082) 4186 8138 1
(0.253122 0.1104 0.373119 0.263359) 4165 8100 2
(0.167872 0.166697 0.22853 0.436901) 4175 8117 2
(0.498898 0.249746 0.23203 0.0193267) 4148 8103 1
(0.135593 0.405099 0.431174 0.028133) 4145 8061 2
(0.072916 0.398968 0.0464387 0.481677) 4148 8064 2
(0.443687 0.270703 0.282555 0.00305436) 4121 8011 1
(0.13923 0.102891 0.334268 0.423611) 47557 94433 2
(0.13181 0.447429 0.245165 0.175595) 47601 94609 1
(0.274289 0.128678 0.36279 0.234243) 47692 94706 2
(0.0260377 0.508184 0.295625 0.170153) 47685 94777 1
(0.542829 0.229367 0.09996 0.127844) 47824 94968 1
(0.032963 0.471304 0.483012 0.0127214) 47912 95146 2
(0.0356079 0.0628266 0.41944 0.482126) 47905 95130 2
(0.174592 0.193156 0.405836 0.226416) 48002 95411 2
(0.226823 0.386345 0.306084 0.0807475) 48000 95322 1
(0.0611136 0.0976474 0.461462 0.379777) 48039 95485 2
(0.00741267 0.496528 0.272861 0.223198) 48173 95666 1
(0.0131518 0.492257 0.00156224 0.493029) 48177 95674 2
(0.0290031 0.500242 0.278435 0.19232) 48217 95841 1
(0.212998 0.424335 0.0834252 0.279241) 48258 95923 1
(0.575011 0.212528 0.163734 0.0487281) 48482 96286 1
(0.333458 0.333421 0.158509 0.174612) 48475 96272 1
(0.376051 0.311422 0.121063 0.191464) 5406 10545 1
(0.615143 0.047764 0.192775 0.144318) 5408 10551 2
(0.355325 0.287383 0.0048348 0.352457) 5394 10560 1
(0.113183 0.443178 0.276265 0.167373) 5389 10511 1
(0.135803 0.25287 0.446546 0.164781) 5348 10468 2
(0.112298 0.438547 0.00466452 0.444491) 5346 10425 2
(0.267724 0.174669 0.365305 0.192302) 5354 10443 2
(0.0483967 0.475317 0.200784 0.275503) 5303 10339 1
(0.609517 0.195365 0.119674 0.0754435) 5285 10305 1
(0.489497 0.253507 0.0437568 0.213239) 5285 10302 1
(0.776726 0.106109 0.000451667 0.116713) 5267 10266 2
(0.518853 0.0681751 0.240799 0.172173) 5245 10225 2
(0.0225013 0.140513 0.348814 0.488171) 5255 10243 2
(0.199328 0.387549 0.170551 0.242572) 5169 10110 1
(0.173027 0.413156 0.249525 0.164292) 5164 10061 1
(0.112632 0.281545 0.162305 0.443518) 5171 10075 2
(0.184771 0.40262 0.106886 0.305723) 5167 10066 1
)


// ************************************************************************* //
