/*--------------------------------*- C++ -*----------------------------------*\
  =========                 |
  \\      /  F ield         | OpenFOAM: The Open Source CFD Toolbox
   \\    /   O peration     | Website:  https://openfoam.org
    \\  /    A nd           | Version:  7
     \\/     M anipulation  |
\*---------------------------------------------------------------------------*/
FoamFile
{
    version     2.0;
    format      ascii;
    class       scalarField;
    location    "0.105/lagrangian/reactingCloud1";
    object      tTurb;
}
// * * * * * * * * * * * * * * * * * * * * * * * * * * * * * * * * * * * * * //


210
(
0.004953
0.004977
0.004929
0.001593
0.001569
0.001545
0.001521
0.001497
0.001473
0.001449
0.00084505
0.001401
0.001377
0.001353
0.001329
0.001305
0.001281
0.001257
0.001233
0.001209
0.001185
0.001161
0.001137
0.001113
0.001089
0.001065
0.001041
0.001017
0.000993
0.000969
0.000945
0.000921
0.000897
0.000873
0.000849
0.000825
0.00022505
0.000777
0.000753
0.000729
9.085e-05
0.000681
0.000657
0.000633
2.455e-05
0.000585
0.000561
0.000537
0.000513
0.000489
0.000465
0.000441
0.000417
0.000393
0.000369
0.000345
0.000321
0.000297
0.000273
0.000249
0.000225
0.000201
0.000177
0.000153
0.000129
0.000105
0.000104625
8.1e-05
5.7e-05
3.3e-05
9e-06
0.0001892
0.002889
0.002817
0.00029135
0.002721
0.002745
0.002697
0.002673
0.002649
0.000116809
0.002601
0.002577
0.002553
0.001596
0.002505
0.00111024
0.002481
0.001043
0.000340139
0.0004332
0.002409
0.002361
0.002337
0.00142105
0.002313
0.002289
0.002265
0.00011785
0.002241
0.002217
0.002193
0.002145
0.002169
0.002121
0.002097
0.002073
0.002049
0.002001
0.001977
0.001953
0.001929
0.001905
0.001881
0.001857
0.001809
0.001833
0.001785
0.000195
0.001737
0.001713
0.000333601
0.001689
0.001665
0.001641
0.00065635
0.001617
0.0002182
9.82283e-05
0.00027705
0.000107033
0.003969
0.003921
4.57141e-05
0.003897
6.105e-05
0.003873
0.003849
0.003801
0.003729
0.00235952
0.003657
0.003633
0.003537
0.003489
0.000412044
0.003561
0.003441
0.0002575
0.003345
0.003393
0.003369
0.003249
0.003297
0.0001507
0.003201
0.003273
0.003321
0.00047605
0.003225
0.003177
0.003153
0.003057
0.0013692
0.003081
0.003009
0.002985
0.003129
0.003033
0.00199912
0.002961
0.002937
0.002793
0.002865
0.002913
0.002841
0.00167952
0.004881
0.004809
0.00102428
0.004689
0.000834632
0.0010982
0.004569
0.00077776
0.00082905
0.004497
0.004449
0.000724046
0.004425
0.004353
0.004329
0.004233
0.00141205
3.955e-05
0.004185
0.004281
0.004257
0.000477
0.004137
0.000415
0.000702783
0.00030005
0.000257
0.000300118
0.004041
0.004065
0.000245237
0.004017
0.000161773
)


// ************************************************************************* //
