/*--------------------------------*- C++ -*----------------------------------*\
  =========                 |
  \\      /  F ield         | OpenFOAM: The Open Source CFD Toolbox
   \\    /   O peration     | Website:  https://openfoam.org
    \\  /    A nd           | Version:  7
     \\/     M anipulation  |
\*---------------------------------------------------------------------------*/
FoamFile
{
    version     2.0;
    format      ascii;
    class       vectorField;
    location    "0.105/lagrangian/reactingCloud1";
    object      U;
}
// * * * * * * * * * * * * * * * * * * * * * * * * * * * * * * * * * * * * * //


210
(
(436.623 0.854029 -5.25999e-05)
(436.11 1.15285 -3.39758e-05)
(435.735 1.16762 -5.07169e-05)
(109.208 23.5742 0.00161662)
(127.764 11.598 -0.000248444)
(127.874 13.0213 -0.000830424)
(131.56 9.70147 -0.000181866)
(126.139 20.0458 -0.000250879)
(130.24 17.1228 0.000335494)
(133.778 13.1634 -0.000230248)
(126.794 12.7 20.6722)
(136.56 12.9964 0.000287218)
(137.736 14.2863 -0.00090345)
(140.245 10.121 2.01798e-05)
(134.772 28.0004 8.00181e-05)
(142.331 14.8472 -0.000146355)
(143.068 21.3502 -3.57535e-05)
(143.74 26.4214 -0.00261114)
(147.537 18.9957 -0.00244098)
(148.816 24.3538 -0.000303511)
(149.798 11.9978 -0.000478807)
(151.495 12.3829 -0.000186952)
(151.467 8.32139 -0.000685594)
(156.295 26.4702 -0.000738874)
(157.632 15.6475 -0.00144931)
(161.073 24.6557 -0.000474532)
(157.653 10.3127 -0.00120169)
(155.054 3.53854 -0.000316701)
(159.972 9.57886 -7.6045e-05)
(167.737 17.905 -0.000894183)
(164.569 10.3038 -0.000289985)
(169.163 13.5632 -0.000356323)
(166.604 9.04337 -0.000177935)
(161.509 5.25433 -0.000677555)
(169.451 7.5513 -0.00131111)
(169.744 7.42889 -0.00455978)
(159.124 9.73056 -7.1767)
(168.913 5.10939 0.000913006)
(164.796 4.01722 0.00045923)
(165.823 3.92864 -0.00132838)
(93.6307 -1.19765 2.18255)
(167.332 1.59645 -0.000361052)
(167.272 2.45155 0.000968989)
(167.521 1.54689 0.00143611)
(144.463 5.41943 1.46705)
(164.246 1.62825 -0.000427745)
(165 1.7483 -7.06815e-05)
(164.219 1.07463 -7.87118e-05)
(153.954 -0.0203316 8.82318e-05)
(164.335 0.703862 2.56568e-05)
(166.417 0.621519 -0.000459941)
(164.263 -0.0505209 -0.000178571)
(164.94 0.866327 0.000140404)
(165.324 0.938626 0.000124121)
(165.206 -0.0435233 0.00030342)
(165.95 0.0829298 -0.000111657)
(165.019 0.305288 -7.46934e-06)
(165.245 0.590607 1.68699e-05)
(165.736 0.494803 0.000102258)
(165.436 0.641288 -9.5614e-05)
(165.139 -0.114777 7.46273e-07)
(165.699 0.0322979 0.000333898)
(112.09 -0.147757 -4.03198e-05)
(165.671 0.247993 -1.99212e-05)
(165.591 0.537301 0.000341225)
(165.646 0.0746329 -2.90139e-06)
(165.587 0.539978 -4.80002e-06)
(165.634 0.0245005 8.08254e-05)
(165.507 -0.0575833 0.000271125)
(165.503 -0.0786509 0.000336855)
(165.58 0.564341 -5.4024e-07)
(74.7615 -9.89596 -3.54505)
(112.747 -17.2259 -0.000166547)
(106.234 -14.8488 0.00205356)
(75.9325 -8.37601 2.54068)
(123.291 -10.6999 -3.55472e-06)
(113.706 -14.2534 7.80753e-05)
(123.967 -9.36208 -7.6739e-05)
(127.028 -5.93186 -1.36631e-05)
(108.499 -12.1368 -3.20182e-05)
(99.5785 -14.5207 -2.3701)
(103.129 -11.1861 -0.000467414)
(108.594 -10.7327 -1.56332e-05)
(111.142 -9.88652 0.000144385)
(89.9985 -15.1735 -3.47981)
(110.348 -8.88291 0.000142025)
(84.0906 -5.44789 -2.40843)
(112.211 -8.00235 0.000482224)
(86.5565 -4.96119 3.69675)
(34.2977 -0.921049 -7.18985)
(100.389 -10.7667 -0.987093)
(105.011 -7.18738 0.00237123)
(111.307 -5.33394 8.1141e-05)
(103.92 -5.47853 0.000805462)
(92.8319 -10.8001 1.69773)
(108.799 -4.45062 0.000361437)
(106.911 -4.03471 0.000788434)
(106.118 -3.44983 0.000361561)
(34.2931 8.3528 3.42524)
(105.219 -2.87904 0.00351486)
(119.307 -1.03178 4.57385e-06)
(107.724 -1.45393 0.00196587)
(114.337 -0.30274 0.000128164)
(109.772 -0.818679 0.00236243)
(115.256 0.108059 0.00125117)
(114.86 0.66876 1.5261e-05)
(118.74 0.605077 0.00149523)
(120.727 0.508813 3.48008e-06)
(111.253 3.44962 9.79599e-05)
(108.982 4.69937 0.000925836)
(111.866 4.76816 0.00162762)
(110.188 5.98475 1.26429e-05)
(108.996 7.19041 0.000230639)
(99.0702 10.2812 0.000622013)
(111.984 8.2334 -6.09009e-05)
(121.826 4.9871 -0.00026267)
(104.841 11.2747 0.000849569)
(116.705 8.94956 -0.000493459)
(61.0601 14.6115 -0.935529)
(118.841 9.85 -0.000181245)
(111.522 15.1002 -8.07416e-05)
(89.1955 16.8573 7.56592)
(100.798 20.5414 0.000308576)
(109.169 19.253 0.000432139)
(109.782 20.578 -0.000622476)
(97.7032 22.5076 -6.91197)
(110.775 21.5121 -0.00158464)
(335.134 -15.4176 0.828029)
(307.174 -50.362 4.79369)
(349.153 -9.19328 0.41125)
(251.977 -63.5327 1.22506)
(350.67 -1.23145 -0.000569391)
(335.872 -3.99282 -5.83744e-05)
(329.969 -15.2559 3.47612)
(319.988 -10.9021 -0.00140927)
(292.306 -40.5788 -7.8178)
(295.156 -26.099 0.000543009)
(294.163 -22.6067 -0.0002402)
(286.937 -19.6684 0.000562693)
(205.716 -43.3699 0.00103286)
(207.359 -53.7543 -3.22387)
(206.686 -37.6894 0.000139671)
(205.492 -35.977 4.16461e-05)
(206.663 -23.6394 0.00181993)
(201.923 -18.9204 0.00026784)
(166.456 -46.676 10.5408)
(179.319 -36.5231 -0.000627893)
(185.627 -23.7898 0.000243505)
(154.06 -34.8997 8.64877)
(183.911 -8.46798 -2.34415e-05)
(174.622 -24.8766 0.000149174)
(160.675 -28.3446 0.00278884)
(171.858 -2.20364 5.08045e-05)
(160.876 -23.3286 0.000532344)
(134.226 -36.6043 -0.720059)
(165.484 -5.13582 -8.55533e-05)
(154.507 -24.5037 -9.7241e-06)
(146.875 -29.3317 -0.0008576)
(135.584 -38.7372 -5.54084)
(150.739 -22.7322 0.000222826)
(147.718 -20.9467 0.00064247)
(143.952 -21.0089 -7.31241e-05)
(151.671 -4.07347 8.78549e-05)
(119.434 -33.5976 -8.92296)
(137.69 -19.8525 0.00090498)
(142.676 -12.0771 0.00138531)
(135.397 -15.8729 0.00192383)
(122.719 -24.2453 0.0028764)
(128.196 -20.679 0.00131957)
(103.34 -26.9596 -4.21368)
(124.127 -18.7111 -0.00021771)
(121.673 -18.559 0.000942821)
(132.969 -5.77242 -2.81434e-05)
(125.095 -15.3156 -1.12973e-05)
(120.699 -17.7967 0.00341714)
(124.473 -14.4485 -0.00028949)
(105.108 -17.6069 0.878688)
(434.274 1.45654 -6.78244e-06)
(433.057 1.41674 -6.50994e-06)
(427.016 3.31713 1.29017)
(431.517 0.678427 -3.06971e-06)
(414.235 5.45223 -16.0497)
(421.993 -3.87629 -3.13875)
(426.342 0.545554 3.0805e-05)
(411.544 -3.87166 -6.74621)
(416.431 0.0169146 7.75239)
(419.737 0.513299 1.91503e-05)
(414.144 0.133716 0.000466729)
(419.53 -3.08847 -1.01715)
(411.346 -0.106454 0.000103275)
(409.248 -0.245258 6.17637e-05)
(397.067 -1.42461 8.92793e-05)
(397.56 -0.0669717 -0.000109155)
(400.414 -14.153 8.59373)
(396.727 7.3685 6.19586)
(390.433 -0.110393 0.000402154)
(389.738 -2.048 -0.00054844)
(384.716 -2.66624 0.000727408)
(373.424 -0.875287 -4.64031)
(382.997 -0.141517 -7.85512e-05)
(346.391 -0.0512568 5.46531)
(374.023 -11.8167 -6.75632)
(352.649 -6.6486 7.01804)
(370.362 -4.64831 -0.0804617)
(356.554 -11.7723 2.8944)
(365.753 -0.702062 -0.000203238)
(354.731 -5.49031 0.000636243)
(350.055 -11.6199 -1.78045)
(351.755 -4.3041 -0.00149981)
(351.541 -3.41305 11.4198)
)


// ************************************************************************* //
