/*--------------------------------*- C++ -*----------------------------------*\
  =========                 |
  \\      /  F ield         | OpenFOAM: The Open Source CFD Toolbox
   \\    /   O peration     | Website:  https://openfoam.org
    \\  /    A nd           | Version:  7
     \\/     M anipulation  |
\*---------------------------------------------------------------------------*/
FoamFile
{
    version     2.0;
    format      ascii;
    class       vectorField;
    location    "0.105/lagrangian/reactingCloud1";
    object      UTurb;
}
// * * * * * * * * * * * * * * * * * * * * * * * * * * * * * * * * * * * * * //


210
(
(0 0 0)
(0 0 0)
(0 0 0)
(0 0 0)
(0 0 0)
(0 0 0)
(0 0 0)
(0 0 0)
(0 0 0)
(0 0 0)
(-10.6336 -14.9328 20.6761)
(0 0 0)
(0 0 0)
(0 0 0)
(0 0 0)
(0 0 0)
(0 0 0)
(0 0 0)
(0 0 0)
(0 0 0)
(0 0 0)
(0 0 0)
(0 0 0)
(0 0 0)
(0 0 0)
(0 0 0)
(0 0 0)
(0 0 0)
(0 0 0)
(0 0 0)
(0 0 0)
(0 0 0)
(0 0 0)
(0 0 0)
(0 0 0)
(0 0 0)
(-0.540124 6.86661 -7.17819)
(0 0 0)
(0 0 0)
(0 0 0)
(-0.98579 -1.06784 2.18256)
(0 0 0)
(0 0 0)
(0 0 0)
(-8.84102 5.45956 1.46692)
(0 0 0)
(0 0 0)
(0 0 0)
(0 0 0)
(0 0 0)
(0 0 0)
(0 0 0)
(0 0 0)
(0 0 0)
(0 0 0)
(0 0 0)
(0 0 0)
(0 0 0)
(0 0 0)
(0 0 0)
(0 0 0)
(0 0 0)
(0 0 0)
(0 0 0)
(0 0 0)
(0 0 0)
(0 0 0)
(0 0 0)
(0 0 0)
(0 0 0)
(0 0 0)
(-5.99684 2.79381 -3.5438)
(0 0 0)
(0 0 0)
(-2.1793 -0.406272 2.54226)
(0 0 0)
(0 0 0)
(0 0 0)
(0 0 0)
(0 0 0)
(-0.968462 -3.34882 -2.37304)
(0 0 0)
(0 0 0)
(0 0 0)
(-3.4793 -7.72714 -3.48067)
(0 0 0)
(-1.81267 2.2001 -2.40945)
(0 0 0)
(1.05016 1.83387 3.69386)
(1.58438 -6.2587 -7.20533)
(6.78936 -3.50813 -0.98752)
(0 0 0)
(0 0 0)
(0 0 0)
(3.57771 -6.42978 1.69597)
(0 0 0)
(0 0 0)
(0 0 0)
(4.14482 3.31596 3.42416)
(0 0 0)
(0 0 0)
(0 0 0)
(0 0 0)
(0 0 0)
(0 0 0)
(0 0 0)
(0 0 0)
(0 0 0)
(0 0 0)
(0 0 0)
(0 0 0)
(0 0 0)
(0 0 0)
(0 0 0)
(0 0 0)
(0 0 0)
(0 0 0)
(0 0 0)
(-0.487949 0.850879 -0.956192)
(0 0 0)
(0 0 0)
(-3.68546 -1.90809 7.56395)
(0 0 0)
(0 0 0)
(0 0 0)
(7.63452 -0.294285 -6.91429)
(0 0 0)
(2.19553 -1.40982 0.828095)
(-4.36522 -25.5872 4.80271)
(-1.47043 0.343987 0.414159)
(1.95831 0.357007 1.26954)
(0 0 0)
(0 0 0)
(5.01186 1.74396 3.4822)
(0 0 0)
(-0.0935298 -4.5976 -7.81855)
(0 0 0)
(0 0 0)
(0 0 0)
(0 0 0)
(5.01275 -8.43384 -3.2289)
(0 0 0)
(0 0 0)
(0 0 0)
(0 0 0)
(-3.71456 -5.03419 10.5396)
(0 0 0)
(0 0 0)
(-1.83455 3.62386 8.64969)
(0 0 0)
(0 0 0)
(0 0 0)
(0 0 0)
(0 0 0)
(-4.96138 -2.70635 -0.719449)
(0 0 0)
(0 0 0)
(0 0 0)
(4.09838 -4.49162 -5.5419)
(0 0 0)
(0 0 0)
(0 0 0)
(0 0 0)
(-1.26832 -5.7657 -8.92301)
(0 0 0)
(0 0 0)
(0 0 0)
(0 0 0)
(0 0 0)
(-10.7151 -5.19898 -4.21389)
(0 0 0)
(0 0 0)
(0 0 0)
(0 0 0)
(0 0 0)
(0 0 0)
(5.45125 0.558263 0.885197)
(0 0 0)
(0 0 0)
(-1.52834 1.19641 1.29019)
(0 0 0)
(-12.3793 3.52702 -16.0498)
(-0.629658 -5.70983 -3.13931)
(0 0 0)
(4.98895 -5.46765 -6.74615)
(-3.04002 -1.39766 7.75224)
(0 0 0)
(0 0 0)
(7.00133 -3.61766 -1.01835)
(0 0 0)
(0 0 0)
(0 0 0)
(0 0 0)
(10.731 -10.8798 8.59422)
(5.12372 9.43598 6.19596)
(0 0 0)
(0 0 0)
(0 0 0)
(-7.84997 3.65714 -4.63889)
(0 0 0)
(6.61676 5.29358 5.46629)
(1.4856 -5.86847 -6.75608)
(-17.3533 -0.263726 7.01799)
(-0.244356 0.302334 -0.0808331)
(-9.32834 -4.86868 2.89469)
(0 0 0)
(0 0 0)
(1.20704 -1.35337 -1.77876)
(0 0 0)
(-0.953014 4.58948 11.4198)
)


// ************************************************************************* //
