/*--------------------------------*- C++ -*----------------------------------*\
  =========                 |
  \\      /  F ield         | OpenFOAM: The Open Source CFD Toolbox
   \\    /   O peration     | Website:  https://openfoam.org
    \\  /    A nd           | Version:  7
     \\/     M anipulation  |
\*---------------------------------------------------------------------------*/
FoamFile
{
    version     2.0;
    format      ascii;
    class       scalarField;
    location    "0.13/lagrangian/reactingCloud1";
    object      age;
}
// * * * * * * * * * * * * * * * * * * * * * * * * * * * * * * * * * * * * * //


1186
(
0.006697
0.006313
0.006937
0.006289
0.006457
0.006169
0.006193
0.006481
0.006121
0.006265
0.006385
0.006073
0.006049
0.006097
0.006001
0.006025
0.005953
0.006241
0.005929
0.006433
0.005977
0.005905
0.005809
0.005785
0.005761
0.005857
0.005881
0.006337
0.005713
0.006409
0.005737
0.006145
0.005833
0.005689
0.010873
0.005617
0.005641
0.005593
0.005569
0.005545
0.005473
0.005521
0.005377
0.005425
0.005401
0.005353
0.005305
0.005329
0.005497
0.005665
0.005449
0.00520862
0.005161
0.005137
0.005281
0.005233
0.005065
0.005113
0.007801
0.005257
0.004969
0.005209
0.005185
0.005041
0.005017
0.004849
0.001825
0.001633
0.001609
0.001585
0.001561
0.001537
0.001513
0.001489
0.001465
0.001441
0.001417
0.001393
0.001369
0.001345
0.001321
0.001297
0.001273
0.001249
0.001225
0.001201
0.001177
0.001153
0.001129
0.001105
0.001081
0.001057
0.001033
0.001009
0.000985
0.000961
0.000960625
0.000937
0.000913
0.000889
0.000865
0.000841
0.000817
0.000793
0.000769
0.000745
0.000721
0.000697
0.000673
0.000649
0.000625
0.000601
0.000577
0.000553
0.000529
0.000505
0.000481
0.000457
0.000433
0.000409
0.000385
0.000361
0.000337
0.000313
0.000289
0.000265
0.000241
0.000217
0.000193
0.000169
0.000145
0.000121
9.7e-05
7.3e-05
4.9e-05
2.5e-05
1e-06
0.006217
0.004177
0.00458463
0.003841
0.004585
0.003145
0.003385
0.002905
0.002785
0.002809
0.003049
0.002761
0.002713
0.002737
0.003313
0.002665
0.002641
0.002569
0.002617
0.002545
0.002977
0.002497
0.002521
0.002473
0.002449
0.002401
0.002425
0.002689
0.002593
0.002377
0.002329
0.002353
0.002281
0.002257
0.002233
0.002185
0.002209
0.002161
0.002113
0.002065
0.002137
0.002089
0.002041
0.001969
0.001993
0.002017
0.003505
0.001921
0.001945
0.001897
0.001873
0.001849
0.001801
0.002305
0.001705
0.001729
0.001753
0.001681
0.001777
0.001657
0.003025
0.004993
0.007609
0.004321
0.004465
0.004489
0.004081
0.004153
0.004105
0.004033
0.004057
0.003913
0.003793
0.004201
0.004009
0.003865
0.003889
0.003769
0.003697
0.004681
0.003985
0.003721
0.003745
0.003937
0.003673
0.003553
0.003433
0.003529
0.003961
0.003649
0.003625
0.003457
0.003337
0.003577
0.003601
0.003361
0.003289
0.003265
0.00328863
0.00340863
0.003241
0.003409
0.003169
0.003073
0.003193
0.003217
0.003817
0.003001
0.003481
0.002953
0.003097
0.003121
0.002929
0.004537
0.002833
0.002881
0.00300063
0.002857
0.006577
0.004825
0.005089
0.004729
0.004945
0.004753
0.004897
0.004921
0.004777
0.00472863
0.004801
0.004705
0.004657
0.004393
0.004633
0.004609
0.004417
0.004561
0.004297
0.00432063
0.004345
0.004441
0.004873
0.004513
0.004273
0.004249
0.004225
0.004369
0.004129
0.015481
0.014593
0.014761
0.013681
0.014209
0.013393
0.013825
0.014161
0.012985
0.012841
0.013249
0.012793
0.012673
0.013417
0.013009
0.012289
0.012025
0.012241
0.012433
0.012097
0.012481
0.012001
0.012865
0.011953
0.012049
0.011977
0.012073
0.011929
0.013105
0.011833
0.011809
0.011737
0.012937
0.011857
0.011641
0.011617
0.011665
0.012337
0.011593
0.012817
0.011689
0.013321
0.011569
0.011497
0.012625
0.011473
0.011713
0.011377
0.012697
0.0112806
0.011761
0.011545
0.012121
0.011425
0.011881
0.011257
0.011281
0.011161
0.011137
0.011113
0.011209
0.011089
0.011185
0.011785
0.011329
0.010921
0.010969
0.011233
0.010825
0.010897
0.010753
0.011449
0.012505
0.010777
0.010993
0.011353
0.011305
0.010633
0.011041
0.010609
0.010585
0.010945
0.010561
0.010513
0.010465
0.010441
0.011521
0.010417
0.010729
0.011065
0.015961
0.010129
0.010057
0.010153
0.010705
0.010009
0.010681
0.00991262
0.010225
0.009913
0.010033
0.009889
0.010537
0.010297
0.009841
0.010081
0.010321
0.009937
0.009817
0.010201
0.010273
0.010801
0.009721
0.010849
0.009673
0.010369
0.009601
0.011017
0.009577
0.010249
0.009793
0.009649
0.00979262
0.009985
0.009553
0.009481
0.009385
0.009505
0.010105
0.010177
0.010489
0.009529
0.009409
0.009745
0.009769
0.009361
0.009697
0.010393
0.009313
0.009265
0.011905
0.009433
0.009097
0.009289
0.009625
0.009337
0.009049
0.009193
0.009073
0.009121
0.009217
0.013921
0.009457
0.008953
0.008977
0.008905
0.008881
0.009001
0.010657
0.008809
0.009241
0.008785
0.00876062
0.009865
0.012169
0.009961
0.008929
0.008665
0.008761
0.008713
0.008497
0.008545
0.011401
0.008473
0.008737
0.008449
0.008833
0.008425
0.009169
0.009025
0.008353
0.00832862
0.008617
0.013945
0.008401
0.008233
0.008377
0.008521
0.00825662
0.008041
0.008209
0.008185
0.008113
0.008641
0.007969
0.008329
0.008257
0.008017
0.008137
0.008089
0.008281
0.008593
0.007897
0.015049
0.008857
0.008305
0.007657
0.007873
0.007705
0.007753
0.007633
0.007849
0.008161
0.007681
0.007825
0.007585
0.007513
0.007945
0.007489
0.007993
0.007537
0.007729
0.007921
0.008065
0.010345
0.007273
0.007321
0.007417
0.007393
0.007441
0.007225
0.007201
0.008689
0.007177
0.007129
0.007345
0.007249
0.007561
0.007081
0.006745
0.006961
0.006985
0.007105
0.007033
0.007009
0.007297
0.006865
0.006793
0.006817
0.006841
0.007153
0.00696062
0.009145
0.006889
0.007777
0.006769
0.007465
0.006625
0.006721
0.006601
0.008569
0.006505
0.006553
0.006913
0.006529
0.006649
0.006361
0.007057
0.006673
0.007369
0.024433
0.022369
0.019393
0.021145
0.016513
0.022873
0.019585
0.021361
0.019753
0.019153
0.019969
0.019273
0.025609
0.019441
0.020449
0.018937
0.018889
0.018577
0.020473
0.018985
0.018745
0.020785
0.018553
0.018481
0.018769
0.019201
0.018697
0.019249
0.018433
0.019561
0.018361
0.018817
0.018913
0.018385
0.018625
0.018337
0.018241
0.019009
0.018121
0.018409
0.020401
0.018265
0.018457
0.019825
0.018289
0.017977
0.018097
0.018673
0.018169
0.018505
0.019609
0.018313
0.017929
0.017881
0.018001
0.018145
0.019345
0.022393
0.020953
0.019537
0.018073
0.020353
0.017713
0.017761
0.017809
0.019729
0.017641
0.020089
0.018601
0.020017
0.017521
0.017905
0.017737
0.017425
0.017833
0.017305
0.017281
0.017665
0.017449
0.017569
0.017545
0.0178806
0.017257
0.017497
0.017377
0.017161
0.017473
0.017617
0.016969
0.019873
0.017065
0.016945
0.021793
0.016873
0.016849
0.016921
0.017689
0.016801
0.016897
0.017329
0.020569
0.017185
0.017353
0.016609
0.016681
0.017041
0.016561
0.016825
0.016753
0.019105
0.019081
0.017857
0.019897
0.016465
0.016393
0.016297
0.016273
0.016345
0.016777
0.016249
0.017089
0.018193
0.016705
0.018049
0.016153
0.016057
0.015985
0.015793
0.016489
0.017113
0.015913
0.017401
0.024145
0.018025
0.015841
0.015601
0.015769
0.015817
0.019225
0.015865
0.015457
0.015937
0.015577
0.015505
0.015385
0.015889
0.018793
0.017593
0.015529
0.015673
0.016009
0.015433
0.015265
0.015241
0.016369
0.015553
0.017209
0.015625
0.015217
0.018649
0.015121
0.015649
0.015745
0.015169
0.016129
0.017785
0.016321
0.015289
0.017233
0.020593
0.018529
0.015697
0.014977
0.0151686
0.015409
0.015073
0.014905
0.015193
0.014881
0.014857
0.015337
0.015025
0.016441
0.014929
0.017137
0.014713
0.016417
0.020137
0.016537
0.014569
0.014545
0.014689
0.014641
0.014617
0.015001
0.014425
0.016633
0.018217
0.014449
0.014353
0.016081
0.014521
0.015721
0.017953
0.014329
0.014257
0.014377
0.016729
0.014233
0.014113
0.014041
0.014065
0.014281
0.014401
0.014089
0.014017
0.013969
0.016225
0.014809
0.013849
0.016177
0.013777
0.014137
0.014473
0.013801
0.013873
0.015361
0.013753
0.013993
0.016105
0.014953
0.013705
0.014305
0.016585
0.016993
0.013609
0.0136566
0.014737
0.013513
0.016657
0.014785
0.015097
0.013369
0.013297
0.013729
0.013465
0.015313
0.014833
0.013129
0.013177
0.013345
0.013201
0.012961
0.014665
0.013273
0.013153
0.015145
0.013489
0.012889
0.013657
0.013585
0.013537
0.016201
0.013081
0.013897
0.017017
0.012745
0.012913
0.013561
0.012577
0.013033
0.016033
0.012457
0.012553
0.012769
0.014185
0.012649
0.012529
0.013057
0.013633
0.012409
0.012385
0.012361
0.012217
0.012265
0.012145
0.012721
0.012313
0.012601
0.013441
0.012193
0.013225
0.014497
0.029377
0.028369
0.027193
0.029329
0.028273
0.027817
0.028585
0.027073
0.027481
0.029665
0.028561
0.027649
0.027505
0.0277206
0.026281
0.027169
0.026809
0.026977
0.027241
0.026857
0.026353
0.026545
0.027937
0.027145
0.028105
0.029521
0.027217
0.026473
0.026569
0.026641
0.026209
0.026017
0.027601
0.027457
0.026881
0.027409
0.026449
0.026905
0.026185
0.026593
0.026425
0.025873
0.026953
0.026713
0.025777
0.026761
0.025753
0.026305
0.026665
0.026929
0.027097
0.026377
0.027529
0.027625
0.026257
0.026233
0.025489
0.026065
0.025321
0.026113
0.026089
0.026161
0.026137
0.026689
0.025945
0.025297
0.025561
0.025729
0.025657
0.025393
0.026833
0.027769
0.027001
0.025417
0.025897
0.025009
0.025921
0.025537
0.025081
0.025681
0.025129
0.026041
0.024817
0.027337
0.025585
0.024721
0.025993
0.0251046
0.026617
0.025969
0.025153
0.027313
0.025633
0.024793
0.024457
0.025249
0.027025
0.025273
0.024361
0.024841
0.025801
0.025201
0.024697
0.025465
0.024193
0.026401
0.024625
0.024601
0.024481
0.024097
0.024409
0.024769
0.025105
0.024337
0.024745
0.023881
0.024529
0.025033
0.024577
0.024985
0.024073
0.023833
0.023905
0.025825
0.027913
0.024169
0.024913
0.024121
0.023713
0.023977
0.023545
0.023737
0.023641
0.023569
0.023377
0.023353
0.024865
0.023665
0.024385
0.025177
0.023281
0.023593
0.024001
0.023257
0.023041
0.023113
0.024265
0.024289
0.025345
0.025057
0.022945
0.024961
0.023089
0.024049
0.023617
0.026497
0.022849
0.023161
0.024937
0.024649
0.024889
0.022705
0.026329
0.029761
0.022633
0.023305
0.022993
0.023185
0.023761
0.027385
0.025441
0.022729
0.022801
0.022969
0.022585
0.023329
0.024673
0.023209
0.022513
0.023689
0.023857
0.023497
0.022201
0.023449
0.022177
0.022465
0.022297
0.023233
0.022489
0.024217
0.022441
0.022273
0.022057
0.022657
0.022753
0.022009
0.025369
0.022825
0.023017
0.023929
0.022537
0.023137
0.022777
0.023065
0.022561
0.021817
0.023809
0.024313
0.021985
0.021649
0.023953
0.025225
0.024025
0.022681
0.022033
0.021913
0.025705
0.022321
0.022081
0.021673
0.022153
0.022345
0.028465
0.023401
0.022417
0.022225
0.021937
0.021553
0.021601
0.021865
0.023473
0.021193
0.020905
0.024241
0.022921
0.021961
0.021265
0.020881
0.021241
0.021409
0.022105
0.021769
0.021577
0.022609
0.020929
0.020641
0.023425
0.020833
0.022897
0.020617
0.021073
0.021121
0.021505
0.021217
0.020737
0.020377
0.021481
0.021001
0.021097
0.020713
0.020977
0.021457
0.020689
0.021169
0.0217926
0.024505
0.020425
0.028825
0.0230886
0.020065
0.020209
0.021841
0.022129
0.020305
0.019705
0.020545
0.020809
0.019849
0.020113
0.021721
0.020257
0.021433
0.021337
0.019489
0.0205206
0.019801
0.020281
0.019681
0.020521
0.021049
0.020497
0.019513
0.022249
0.019417
0.020185
0.021697
0.021025
0.019921
0.021529
0.020665
0.019777
0.021289
0.019321
0.019057
0.021745
0.019633
0.019033
0.020857
0.018961
0.019177
0.019297
0.019945
0.020329
0.019465
0.020041
0.021625
0.019657
0.018865
0.021889
0.020233
0.020761
0.021313
0.019369
0.028513
0.019129
0.018841
0.020161
0.019993
0.018721
0.027721
0.028705
0.027289
0.025849
0.023785
0.024553
0.023521
0.0244806
0.025513
0.021385
)


// ************************************************************************* //
