/*--------------------------------*- C++ -*----------------------------------*\
  =========                 |
  \\      /  F ield         | OpenFOAM: The Open Source CFD Toolbox
   \\    /   O peration     | Website:  https://openfoam.org
    \\  /    A nd           | Version:  7
     \\/     M anipulation  |
\*---------------------------------------------------------------------------*/
FoamFile
{
    version     2.0;
    format      ascii;
    class       labelField;
    location    "0.13/lagrangian/reactingCloud1";
    object      cellId;
}
// * * * * * * * * * * * * * * * * * * * * * * * * * * * * * * * * * * * * * //


1186
(
55
17
88
50
85
76
81
118
111
154
189
147
144
150
143
184
179
259
212
181
254
289
323
358
358
362
361
365
355
399
431
471
433
430
545
464
465
500
499
498
605
606
600
639
638
672
671
708
746
746
745
772
808
834
839
839
858
892
897
921
942
949
976
1029
1029
1050
1000
1041
1043
1022
1023
1016
992
961
840
952
930
926
902
887
886
862
843
828
801
803
767
767
756
420
722
692
688
664
647
628
626
620
590
564
568
556
521
504
484
464
442
443
422
380
392
364
376
350
335
311
283
283
240
243
223
201
208
185
161
166
146
124
111
105
87
75
41
48
23
7
8
715
755
915
875
856
895
937
977
1043
1021
635
979
1027
938
856
941
898
948
816
949
716
883
860
864
892
845
800
656
717
737
781
697
763
740
699
730
679
658
618
645
596
640
645
607
599
537
475
589
580
538
542
521
478
478
452
460
436
443
416
416
395
860
380
903
1006
882
1027
985
985
988
843
868
833
621
722
684
622
666
690
644
541
626
564
503
586
591
518
487
361
402
382
344
370
283
302
326
350
330
286
263
288
243
228
212
185
163
121
173
121
132
104
83
68
41
52
48
23
6
437
432
521
484
546
596
655
654
625
681
707
734
760
835
842
869
865
1005
1000
1029
403
381
358
361
322
322
241
162
166
19
21
35
14
33
0
249
333
247
192
361
192
148
449
276
146
143
234
483
190
232
188
403
186
141
234
232
231
315
229
230
231
270
226
228
228
269
523
268
264
270
357
310
311
565
309
348
350
435
348
350
393
476
347
435
390
386
388
388
387
432
430
472
516
427
466
470
505
509
510
508
544
596
510
552
595
504
547
549
548
548
634
593
632
588
627
631
628
675
716
797
709
748
798
796
749
793
788
791
790
833
831
878
824
830
831
833
828
831
875
915
864
912
916
910
915
910
907
911
1014
913
911
953
953
948
951
945
950
23
26
24
7
7
22
5
22
128
61
42
39
204
58
32
57
131
58
33
94
56
91
129
33
162
91
92
89
124
127
197
121
161
123
120
194
308
160
195
156
229
229
219
227
368
226
227
259
367
255
255
368
292
293
296
437
330
328
365
475
398
394
433
433
432
469
429
433
576
463
464
429
537
537
465
579
538
536
526
535
532
534
527
535
533
568
603
601
599
634
599
694
631
664
693
693
692
683
688
689
719
719
716
715
706
714
743
749
776
774
774
772
799
803
835
834
835
867
862
857
861
862
858
894
894
894
895
891
925
914
949
947
881
1004
1006
1009
1052
1058
1050
1060
1053
1059
481
126
728
443
909
98
55
130
82
21
110
80
29
113
82
144
48
15
55
107
137
147
46
137
105
167
136
75
73
137
131
102
195
137
103
226
135
102
135
194
207
195
104
109
227
133
194
160
189
103
172
132
131
131
263
225
102
232
326
162
194
167
189
190
189
230
160
287
218
198
189
219
252
191
364
217
248
245
278
246
245
277
306
273
335
275
330
392
336
250
363
274
393
331
301
332
301
361
392
421
434
329
419
330
330
421
357
359
358
419
368
417
388
387
448
418
413
413
416
413
424
519
526
422
441
502
469
470
529
450
469
505
549
501
528
529
558
558
544
525
525
557
555
525
555
584
605
540
588
553
616
586
585
583
616
581
541
645
611
597
581
614
644
615
616
635
614
644
564
601
597
609
609
642
638
638
640
671
641
637
637
637
624
637
590
669
655
620
589
696
693
694
724
727
755
722
687
617
754
753
683
749
783
711
778
749
752
646
783
781
777
809
811
809
806
806
811
770
840
806
730
834
869
867
836
837
762
835
898
768
787
866
898
791
792
863
889
816
893
816
926
816
918
949
947
917
848
898
950
980
945
979
975
870
973
974
873
1007
1004
1008
1003
1006
1004
1006
1001
903
1016
1018
1012
1023
1022
942
1037
1034
1039
956
1032
1035
1051
1031
1048
1049
1057
1057
1058
1054
1061
1052
1052
985
1055
985
986
17
24
13
104
159
78
105
142
4
29
1
102
24
131
24
83
53
49
144
52
28
48
204
153
127
101
192
48
100
74
72
31
178
125
98
100
122
202
123
100
122
96
175
175
147
121
144
168
240
144
302
172
194
223
179
168
197
148
170
192
145
192
283
217
301
216
325
274
216
269
377
242
326
270
241
240
268
317
264
293
292
342
315
373
341
313
442
288
372
370
292
394
288
340
344
315
339
312
290
315
339
336
386
360
336
447
360
362
388
361
361
437
409
389
463
360
466
384
435
490
408
408
412
516
523
384
410
433
432
434
456
435
433
483
487
456
542
480
504
567
480
531
619
528
504
528
593
528
588
528
528
556
555
580
552
635
553
553
554
577
659
576
634
636
577
576
577
600
605
601
657
605
604
627
601
627
656
687
626
660
630
631
624
759
624
624
651
650
675
672
650
648
648
649
651
676
703
675
704
732
696
709
675
782
708
672
728
727
700
698
751
725
777
718
718
718
803
741
746
741
743
768
748
768
741
772
765
821
765
768
787
790
790
813
793
817
787
787
811
813
840
874
867
843
813
835
863
812
863
833
837
836
862
864
861
863
862
862
856
856
881
882
878
914
912
905
903
916
908
900
905
933
955
926
922
922
957
923
948
954
948
976
944
944
947
944
974
969
971
995
967
969
966
991
984
993
1001
991
997
989
988
1006
989
1010
1023
1014
1010
1018
1012
1011
1012
1010
1016
1015
1010
1025
1010
1032
1026
1043
1037
1043
1032
671
1035
1036
1032
1040
1032
641
447
566
795
829
851
880
926
1014
1005
)


// ************************************************************************* //
