/*--------------------------------*- C++ -*----------------------------------*\
  =========                 |
  \\      /  F ield         | OpenFOAM: The Open Source CFD Toolbox
   \\    /   O peration     | Website:  https://openfoam.org
    \\  /    A nd           | Version:  7
     \\/     M anipulation  |
\*---------------------------------------------------------------------------*/
FoamFile
{
    version     2.0;
    format      ascii;
    class       vectorField;
    location    "0.13/lagrangian/reactingCloud1";
    object      coordinates;
}
// * * * * * * * * * * * * * * * * * * * * * * * * * * * * * * * * * * * * * //


1186
(
(1.78819 0.0848662 -1.54075e-08)
(1.80444 0.042024 6.94403e-14)
(1.75196 0.0890448 -4.32311e-08)
(1.78709 0.0475353 -1.25686e-12)
(1.76518 0.0681694 1.03119e-07)
(1.76484 0.01024 -3.04559e-14)
(1.75871 0.0364955 3.26699e-13)
(1.72371 0.073895 -2.23093e-07)
(1.73467 0.0280074 -2.12133e-14)
(1.70047 0.0797692 2.99714e-07)
(1.68475 0.0792904 1.86044e-07)
(1.71046 0.0331976 -1.29863e-13)
(1.70947 0.0176012 9.85185e-15)
(1.69884 0.0552474 -1.93395e-07)
(1.69172 0.0104834 -1.92785e-14)
(1.674 0.046547 -1.10453e-12)
(1.66813 0.018114 -9.3838e-15)
(1.63298 0.0834577 3.5181e-07)
(1.65836 0.00807662 -2.7456e-14)
(1.67331 0.0268001 -5.35123e-08)
(1.64039 0.0441536 9.69568e-08)
(1.61853 0.047073 -1.19855e-12)
(1.5846 0.0406761 -1.05455e-12)
(1.57366 0.0417239 -1.10877e-14)
(1.56987 0.0355125 -7.38246e-13)
(1.56551 0.0655478 1.02206e-08)
(1.56596 0.0631286 1.5608e-07)
(1.55568 0.0856316 -6.66286e-07)
(1.56112 0.0190541 -5.2383e-13)
(1.54232 0.0830103 1.30039e-08)
(1.52863 0.0568818 -1.05797e-07)
(1.50129 0.0924102 -2.34875e-07)
(1.51134 0.0737366 2.31339e-07)
(1.51542 0.0513629 -3.94623e-07)
(1.44817 0.109572 -1.28578e-07)
(1.49353 0.0459481 -1.05541e-13)
(1.48991 0.0538568 3.56506e-07)
(1.47519 0.051688 -2.9881e-13)
(1.47207 0.0458528 -1.19332e-13)
(1.46895 0.0414223 -8.72168e-13)
(1.4272 0.0487547 -2.6966e-13)
(1.42694 0.0594124 -1.70663e-07)
(1.41304 0.0222193 -1.47041e-12)
(1.40714 0.0478039 -9.80021e-13)
(1.40578 0.0399314 2.73951e-16)
(1.38761 0.0396738 1.85249e-15)
(1.37164 0.0328081 6.74144e-14)
(1.35774 0.0514983 -7.76769e-13)
(1.34836 0.080234 5.47731e-08)
(1.3447 0.0812053 -8.14151e-08)
(1.3438 0.070603 -4.78093e-08)
(1.33394 0.0276506 -5.12444e-13)
(1.30441 0.0369766 -2.64583e-13)
(1.30039 0.0308721 -8.84874e-14)
(1.29809 0.0663999 5.46697e-07)
(1.29795 0.0683991 -2.10302e-07)
(1.27715 0.0164187 -3.36374e-12)
(1.2566 0.0548677 -7.21523e-12)
(1.25946 0.0878621 -4.02916e-07)
(1.24676 0.0731409 2.3014e-07)
(1.2297 0.0279432 -7.14148e-12)
(1.22229 0.0777279 -1.22219e-07)
(1.20734 0.076772 9.11246e-08)
(1.18156 0.0707806 3.86995e-08)
(1.17983 0.0682555 2.6107e-07)
(1.17402 0.0309102 -8.32498e-15)
(0.422858 0.148905 -5.00371e-09)
(0.43016 0.142228 -2.7888e-07)
(0.430241 0.12664 -4.73776e-11)
(0.426226 0.136226 -3.89084e-11)
(0.424433 0.129156 1.66766e-10)
(0.419651 0.0297673 9.92821e-12)
(0.416514 0.0569485 -2.38885e-11)
(0.413288 0.139108 -3.51544e-07)
(0.387938 0.134706 -6.44846e-07)
(0.407447 0.0580092 1.18042e-11)
(0.404213 0.0730787 9.70604e-12)
(0.402712 0.0980233 -5.00004e-11)
(0.400949 0.124082 1.20913e-11)
(0.395165 0.0889626 1.8327e-13)
(0.393152 0.0990233 -3.26763e-11)
(0.390823 0.125626 -8.43401e-13)
(0.387702 0.116243 -4.4842e-11)
(0.381133 0.0835448 -2.91591e-11)
(0.380977 0.127769 -2.35715e-11)
(0.377426 0.116575 -2.23111e-11)
(0.370705 0.0829356 -4.08677e-12)
(0.368028 0.0878991 -3.58651e-11)
(0.361415 0.0241308 -1.47066e-12)
(0.289107 0.128997 -1.60573e-07)
(0.359049 0.116138 -1.84431e-10)
(0.350533 0.0528873 -5.69577e-11)
(0.348782 0.0772859 -1.17075e-11)
(0.346408 0.101219 -1.67268e-11)
(0.340556 0.0828785 -1.69421e-11)
(0.337301 0.0778431 -9.29579e-11)
(0.337039 0.0885419 -1.84165e-11)
(0.338038 0.126093 5.14593e-07)
(0.328355 0.0637072 -3.67902e-11)
(0.325783 0.0997902 -2.84763e-11)
(0.321513 0.0724718 3.7302e-13)
(0.316153 0.0202917 -3.26454e-12)
(0.314285 0.119764 6.3548e-11)
(0.309913 0.101815 -7.4747e-11)
(0.30604 0.102283 -7.15521e-11)
(0.301849 0.101026 9.32763e-12)
(0.298304 0.114409 6.80535e-11)
(0.294918 0.108725 -3.67594e-11)
(0.28982 0.112289 4.91334e-11)
(0.283555 0.123667 1.00318e-08)
(0.281413 0.047258 1.49029e-12)
(0.277862 0.0993661 3.69124e-11)
(0.273515 0.0251484 -4.47391e-12)
(0.269422 0.063706 -1.1163e-11)
(0.266374 0.0284741 1.19525e-12)
(0.262202 0.0535888 3.59009e-12)
(0.257779 0.109653 -9.912e-12)
(0.253985 0.10355 -2.98196e-12)
(0.246005 0.124428 -3.2581e-12)
(0.246695 0.107774 -1.19727e-12)
(0.241838 0.106439 2.32306e-11)
(0.237915 0.12253 -2.93974e-13)
(0.23423 0.0718446 -6.85387e-12)
(0.229812 0.0920175 -6.23116e-12)
(0.226151 0.118528 7.51362e-12)
(0.221924 0.0864453 2.44425e-11)
(0.218837 0.0875875 5.78541e-13)
(0.21405 0.102594 -3.63534e-12)
(0.210286 0.0580013 -9.01658e-13)
(0.206743 0.0950915 4.36361e-12)
(0.203012 0.0801157 -5.27671e-13)
(0.198358 0.028341 3.85726e-13)
(0.194436 0.116954 4.12223e-12)
(0.190383 0.0758036 1.65572e-13)
(0.186715 0.106562 4.82847e-12)
(0.182934 0.0795523 1.05101e-11)
(0.178733 0.0765191 -1.23223e-14)
(0.501198 0.160467 -6.8713e-08)
(0.507499 0.162284 -3.81302e-07)
(0.543384 0.152117 3.72466e-07)
(0.533171 0.157665 -8.81247e-08)
(0.529735 0.143048 -9.43484e-08)
(0.538175 0.153323 -1.06309e-07)
(0.543521 0.135898 1.21601e-07)
(0.553629 0.135103 3.90912e-08)
(0.564791 0.0909915 9.18697e-11)
(0.563126 0.105811 4.10006e-11)
(0.483285 0.159526 9.29366e-08)
(0.553947 0.116515 1.01826e-10)
(0.561743 0.0570129 -1.66439e-12)
(0.547295 0.125924 1.83676e-07)
(0.528772 0.1433 -4.22716e-09)
(0.546166 0.107823 4.53488e-11)
(0.534976 0.129593 -1.23253e-10)
(0.544748 0.0498567 -3.34804e-13)
(0.520005 0.144744 -1.47749e-07)
(0.542428 0.0422809 -4.0804e-13)
(0.498245 0.153539 8.18678e-08)
(0.531856 0.0869025 1.29932e-10)
(0.529149 0.114237 5.48875e-13)
(0.529271 0.0860386 1.51536e-11)
(0.531976 0.0220526 1.55959e-12)
(0.522335 0.0749847 3.83763e-12)
(0.517828 0.117811 1.41972e-11)
(0.487301 0.155761 1.10161e-07)
(0.500932 0.145973 5.267e-09)
(0.501921 0.140935 -4.43756e-08)
(0.509782 0.108354 3.59205e-11)
(0.494434 0.146556 -2.22168e-08)
(0.506769 0.0933466 6.02731e-12)
(0.501513 0.114329 1.70109e-11)
(0.495838 0.127484 1.95232e-11)
(0.499591 0.040741 1.72398e-11)
(0.492821 0.129654 2.78539e-11)
(0.487058 0.132182 2.49532e-10)
(0.479653 0.138431 1.87435e-11)
(0.483852 0.078193 8.57686e-12)
(0.473785 0.150964 -3.96979e-09)
(0.482166 0.122369 1.45138e-10)
(0.481189 0.0800153 8.06574e-12)
(0.473332 0.0618148 6.94863e-13)
(0.47212 0.125325 4.13912e-11)
(0.463809 0.14197 2.60994e-07)
(0.450737 0.157774 8.50868e-09)
(0.467646 0.0423796 8.38984e-12)
(0.467808 0.11537 8.10285e-13)
(0.460364 0.131825 5.74849e-11)
(0.460884 0.100801 4.4417e-11)
(0.457787 0.109889 1.06834e-12)
(0.450077 0.133991 1.28211e-11)
(0.44719 0.136737 1.23046e-07)
(0.441297 0.0185114 2.32747e-12)
(0.444429 0.112922 1.91951e-10)
(0.440994 0.14357 -1.63479e-07)
(0.438471 0.0902437 -4.68844e-11)
(0.435044 0.145617 -8.46439e-09)
(0.435693 0.143142 -4.52735e-07)
(0.432142 0.155159 -9.53144e-08)
(0.769955 0.0990979 2.18932e-07)
(0.650932 0.127797 -8.69216e-09)
(0.782593 0.0874165 1.88693e-07)
(0.807624 0.0708746 5.98852e-07)
(0.773855 0.0903072 4.63951e-07)
(0.81452 0.0638944 1.95619e-07)
(0.805389 0.0776996 4.54326e-08)
(0.802388 0.0748165 -3.94134e-07)
(0.803666 0.0611054 -1.32003e-10)
(0.762886 0.0870439 5.52703e-07)
(0.768855 0.0603126 -1.69113e-10)
(0.75797 0.0333268 -1.95769e-13)
(0.707643 0.100894 1.52631e-07)
(0.72776 0.093503 -2.55009e-07)
(0.721911 0.0835041 6.51246e-11)
(0.704944 0.095137 -7.48799e-07)
(0.71668 0.0741718 5.7501e-12)
(0.721992 0.0521503 4.31082e-12)
(0.710369 0.0840321 -2.8134e-07)
(0.689282 0.108493 -3.29283e-08)
(0.7064 0.0751632 3.61817e-12)
(0.694464 0.0890456 1.308e-10)
(0.677741 0.0956502 -9.29426e-08)
(0.696847 0.0757232 6.03061e-11)
(0.694193 0.0462266 1.32824e-11)
(0.678372 0.0108684 6.92775e-12)
(0.67191 0.0760629 -9.76475e-13)
(0.646055 0.121436 6.46878e-08)
(0.656987 0.107826 -2.31181e-08)
(0.653145 0.108209 -4.26915e-07)
(0.644388 0.0988029 3.38589e-12)
(0.647589 0.0637658 7.20469e-11)
(0.63095 0.109542 -2.045e-07)
(0.634819 0.119313 1.27568e-07)
(0.637696 0.0906786 6.33218e-11)
(0.640914 0.0596367 2.03328e-11)
(0.636358 0.0626657 1.93845e-13)
(0.627747 0.090586 7.70656e-12)
(0.623659 0.113959 -5.73642e-11)
(0.628059 0.0753584 5.88679e-13)
(0.620545 0.115765 2.03959e-07)
(0.617239 0.0784825 -8.11992e-13)
(0.61105 0.052949 -3.05831e-13)
(0.607715 0.104077 6.83233e-11)
(0.60377 0.113963 1.72918e-10)
(0.596314 0.134188 -1.54582e-07)
(0.601461 0.0445557 -8.15928e-13)
(0.594782 0.133783 4.21125e-08)
(0.59364 0.0540885 -1.83498e-12)
(0.591053 0.114433 3.30021e-11)
(0.587175 0.12228 2.00856e-11)
(0.582974 0.0865858 3.69911e-11)
(0.580997 0.136183 -7.22491e-07)
(0.57787 0.0553968 7.94757e-12)
(0.576679 0.0882557 -3.53209e-12)
(0.574998 0.122725 6.1884e-11)
(0.569448 0.101662 -9.26033e-12)
(1.15918 0.0778863 -1.6516e-07)
(1.15097 0.04288 -2.2173e-13)
(1.11609 0.0911486 -6.4408e-08)
(1.12366 0.0296524 -7.71505e-14)
(1.10417 0.0814943 -7.71182e-08)
(1.07898 0.057804 1.009e-07)
(1.05816 0.0860761 1.38634e-08)
(1.0586 0.0831315 -7.83481e-07)
(1.06141 0.0682093 -1.21015e-07)
(1.0448 0.0801715 -6.72777e-08)
(1.03411 0.0756568 2.44658e-07)
(1.01856 0.0748479 -3.53007e-08)
(1.00491 0.0721116 -7.03959e-08)
(0.980624 0.028406 1.22489e-13)
(0.978377 0.0755771 -9.01074e-08)
(0.970777 0.0730711 -2.0712e-07)
(0.96668 0.0493662 1.93728e-12)
(0.919783 0.0833809 4.73439e-08)
(0.921798 0.0479657 -1.10026e-11)
(0.914188 0.0580283 -3.81354e-10)
(0.904612 0.0632803 3.37353e-08)
(0.899665 0.0765176 1.5019e-08)
(0.890462 0.0877844 -4.28407e-09)
(0.888654 0.0739462 -1.97872e-07)
(0.879491 0.0645922 -4.20738e-08)
(0.872845 0.0654145 3.23217e-07)
(0.851112 0.0724567 3.16924e-07)
(0.822746 0.091272 -2.62677e-08)
(0.822599 0.070155 -4.91192e-07)
(4.63111 0.127596 1.44089e-07)
(4.6401 0.142587 -4.872e-07)
(4.59618 0.133483 8.403e-08)
(4.62178 0.0900696 7.02872e-07)
(4.57726 0.11771 -1.02319e-06)
(4.70962 0.09496 -2.59527e-07)
(4.19964 0.183489 8.61918e-08)
(4.08278 0.214028 9.31354e-08)
(4.16805 0.168931 3.05272e-07)
(4.23197 0.0811761 -5.8556e-08)
(4.02539 0.131254 1.23669e-07)
(4.27465 0.080396 1.03661e-07)
(4.29637 0.0697833 -9.16584e-08)
(3.90955 0.176236 -2.82834e-07)
(4.12778 0.102366 2.38094e-07)
(4.31298 0.0495705 2.70115e-07)
(4.34255 0.0262974 -2.93919e-08)
(4.19718 0.0823089 4.93873e-07)
(3.86463 0.141576 -3.39754e-07)
(4.25876 0.0610264 5.166e-07)
(4.21853 0.0632456 -1.37082e-07)
(4.28543 0.0492599 -6.86287e-08)
(3.95732 0.140108 1.7626e-08)
(4.27885 0.0314351 1.5103e-07)
(4.29956 0.00685518 2.13384e-07)
(4.18098 0.0803313 -9.55074e-07)
(4.17435 0.0673562 -7.62045e-08)
(4.2063 0.0547916 -1.28207e-07)
(4.05368 0.0911244 2.3171e-07)
(4.209 0.0376959 4.52462e-08)
(4.20382 0.0471191 2.24669e-07)
(4.20565 0.0509986 -2.60732e-07)
(4.14838 0.0449673 1.25351e-07)
(4.16643 0.0176944 -3.52707e-08)
(4.17058 0.0339798 -1.6861e-08)
(4.16969 0.0334084 -3.43429e-08)
(4.14776 0.0392684 -1.81423e-07)
(3.79462 0.139898 -1.95268e-08)
(4.14173 0.0295551 -5.67551e-08)
(4.15258 0.00438527 -1.03209e-07)
(4.10544 0.0467299 1.69233e-07)
(3.99996 0.103089 -2.4459e-07)
(4.0581 0.0467655 2.90473e-07)
(4.05664 0.0519302 1.48575e-07)
(3.72521 0.14994 -1.45452e-07)
(4.06332 0.033621 2.95963e-07)
(4.02431 0.0332201 1.76818e-07)
(4.02634 0.0431203 1.54779e-10)
(3.8812 0.0893319 -3.61355e-07)
(4.00912 0.0302941 -7.63547e-08)
(3.9973 0.0428714 -1.29542e-07)
(3.9423 0.0689428 3.80653e-07)
(3.82459 0.100298 -7.02984e-08)
(4.00431 0.0199967 -7.04579e-08)
(3.90148 0.0889122 1.30627e-07)
(3.96464 0.0448139 6.26218e-08)
(3.97878 0.0132025 8.50518e-08)
(3.96314 0.0270909 9.54288e-08)
(3.94463 0.027354 2.47414e-07)
(3.95217 0.0205406 -7.54766e-08)
(3.88549 0.0629394 6.14254e-07)
(3.8992 0.0462013 -1.65702e-08)
(3.8486 0.0648992 -5.07105e-08)
(3.78204 0.0929273 -5.60497e-08)
(3.87409 0.0230206 7.32787e-08)
(3.86402 0.0162791 2.62644e-08)
(3.83464 0.0441571 -4.31067e-07)
(3.80366 0.00972428 -3.7388e-08)
(3.80185 0.0344828 1.75665e-08)
(3.77773 0.043387 -1.05069e-07)
(3.77545 0.0312808 1.59667e-07)
(3.75504 0.00149701 -2.7033e-07)
(3.69494 0.0916874 -6.02272e-08)
(3.76324 0.0434582 -9.01512e-09)
(3.7454 0.0612663 -1.67699e-07)
(3.69296 0.0884861 -5.20566e-08)
(3.76506 9.57334e-12 -3.90433e-14)
(3.73664 0.0238036 7.2959e-10)
(3.74437 0.0395317 4.88119e-08)
(3.72129 0.0274857 1.10972e-09)
(3.70261 0.0313145 -1.13531e-08)
(3.63546 0.0772803 2.34152e-07)
(3.64569 0.065819 -7.42115e-09)
(3.63712 0.0579888 5.9271e-08)
(3.64791 0.0308759 -5.24758e-08)
(3.64048 0.0225586 -3.76867e-07)
(3.64225 0.0514489 2.29211e-07)
(3.62432 0.0281902 1.53735e-07)
(3.57058 0.0891187 1.87292e-07)
(3.50049 0.0920103 -1.01489e-06)
(3.40275 0.098779 3.17817e-07)
(3.49789 0.0335858 -1.68704e-07)
(3.47079 0.0306338 7.62464e-08)
(3.37847 0.110363 2.71778e-07)
(3.41969 0.092367 1.4077e-07)
(3.43228 0.038033 9.00205e-08)
(3.39695 0.0697825 1.21689e-07)
(3.40881 0.0298908 -1.67709e-07)
(3.40254 0.0529543 -4.80727e-07)
(3.39753 0.0415444 1.50917e-07)
(3.37765 0.0675387 1.58618e-07)
(3.37682 0.0491811 7.99935e-08)
(3.29922 0.104294 2.95344e-08)
(3.37368 5.9595e-10 -3.16925e-12)
(3.37405 0.0426139 3.82417e-08)
(3.36301 0.0531647 -1.62059e-07)
(3.34302 0.0637436 -1.66626e-07)
(3.35068 0.0300883 2.53438e-07)
(3.33733 0.0472483 -3.16958e-09)
(3.2967 0.0836388 -4.14393e-07)
(3.27042 0.0796601 -1.74817e-07)
(3.27736 5.37509e-11 3.4779e-13)
(3.2653 0.0588348 1.26717e-07)
(3.25736 0.0909961 -9.62786e-08)
(3.26836 0.0411406 -1.85894e-07)
(3.25619 0.0803844 2.5226e-07)
(3.26285 0.0380145 4.98005e-08)
(3.25137 0.0224229 3.75812e-07)
(3.24296 0.0455603 1.46608e-08)
(3.08293 0.137782 6.2549e-07)
(3.23499 0.0636395 4.52719e-07)
(3.23659 0.0482624 7.58113e-08)
(3.22412 0.0660804 -2.965e-08)
(3.21891 0.0691418 -1.21615e-07)
(3.2208 0.0298912 -1.8419e-07)
(3.20589 0.0526381 2.14988e-07)
(3.18785 0.00602012 -8.75371e-14)
(3.18135 0.0392348 4.02307e-07)
(3.10714 0.0769321 -1.38295e-07)
(3.10353 0.0943402 2.3602e-08)
(3.09485 0.0835627 -1.96934e-07)
(3.15023 0.0519198 -1.10398e-06)
(3.1526 0.0497043 -5.04406e-09)
(3.12752 0.061147 3.01325e-08)
(3.13273 0.0321005 9.19706e-08)
(3.12303 0.0647169 -1.4436e-07)
(2.93357 0.0840249 4.17351e-07)
(2.99363 0.0848978 9.94406e-09)
(3.04336 0.0777329 -1.83907e-07)
(3.07215 0.0571803 2.73727e-08)
(2.84442 0.126903 -2.35522e-07)
(3.0117 0.0684348 -4.88919e-07)
(3.06054 0.00688367 -3.60739e-13)
(2.99192 0.055066 -1.26319e-07)
(2.89638 0.105353 -3.06706e-08)
(3.00959 0.0648562 2.70539e-07)
(3.03857 0.0148204 6.6963e-13)
(2.97589 0.0773172 7.33643e-08)
(3.02528 0.050393 -5.35159e-07)
(2.97229 0.0562474 1.25914e-07)
(2.91578 0.0894133 1.57274e-08)
(3.04057 0.0122735 4.6122e-08)
(2.89205 0.0805407 -4.17916e-08)
(2.96472 0.0551679 1.18448e-07)
(2.95146 0.0597614 -3.15339e-08)
(2.95218 0.0399766 -1.00388e-07)
(2.91761 0.0448215 -1.17042e-07)
(2.91124 0.0732178 4.92473e-08)
(2.82695 0.0837136 -1.67381e-07)
(2.92718 0.0249008 -4.16456e-13)
(2.85534 0.0719954 -2.21971e-07)
(2.90328 0.036266 3.79684e-08)
(2.90661 0.0207684 -8.35921e-15)
(2.84896 0.0657892 -1.90905e-07)
(2.70024 0.13629 -8.15822e-08)
(2.86645 0.0670844 -1.78594e-08)
(2.83453 0.0680696 4.13464e-07)
(2.85448 0.034673 -5.74792e-08)
(2.8015 0.0724199 3.18678e-08)
(2.77869 0.0725996 -4.37575e-08)
(2.79645 0.0039815 -8.91034e-15)
(2.76615 0.0533409 -6.19323e-09)
(2.63215 0.0906289 -1.75589e-07)
(2.76405 0.0431067 2.85691e-07)
(2.78385 0.0523908 -4.1517e-07)
(2.7542 0.0383146 6.53539e-08)
(2.60915 0.0853364 -3.60441e-08)
(2.72438 0.0110666 -1.80695e-07)
(2.72917 0.0128513 -1.62348e-06)
(2.59926 0.0916813 -8.28198e-09)
(2.67867 0.0295866 5.05797e-07)
(2.69863 0.0407316 -1.32567e-07)
(2.68109 0.064343 1.46404e-07)
(2.52965 0.101487 7.7537e-07)
(2.65516 0.0617033 -1.681e-08)
(2.63795 0.0486443 -4.54696e-08)
(2.60462 0.0698006 -6.48012e-08)
(2.4979 0.119638 -7.23901e-07)
(2.59404 0.0617898 -8.1738e-08)
(2.57979 0.0335107 -4.21274e-13)
(2.52637 0.0705237 -1.82461e-07)
(2.53879 0.0692546 9.44877e-09)
(2.54991 0.0606444 5.40467e-08)
(2.4915 0.0847307 5.85114e-09)
(2.54088 0.036057 -4.71059e-07)
(2.51889 0.0663418 5.96024e-07)
(2.38369 0.112074 -9.9647e-07)
(2.50158 0.0392063 3.08537e-07)
(2.50671 0.0435456 -3.08931e-07)
(2.52725 0.0346063 2.46361e-07)
(2.43609 0.0817117 7.05692e-08)
(2.4289 0.0815534 4.34252e-08)
(2.48665 0.0484461 4.73185e-08)
(2.36357 0.125106 4.82196e-07)
(2.41071 0.0894235 8.26722e-08)
(2.4217 0.0773637 9.76936e-08)
(2.42234 0.00706185 -7.83755e-15)
(2.40326 0.0674943 -1.7273e-07)
(2.41613 0.0467713 -1.11559e-07)
(2.41158 0.0595835 -1.36283e-07)
(2.41023 0.013833 -2.6327e-14)
(2.40649 0.0663456 -2.80654e-08)
(2.40568 0.0507698 -6.03968e-07)
(2.38841 0.0572416 5.31484e-08)
(2.34586 0.0638045 -5.91295e-07)
(2.35531 0.0537648 -5.21751e-08)
(2.34151 0.0373836 -4.51538e-14)
(2.29408 0.0805512 -2.11224e-07)
(2.3343 0.0351507 -3.04815e-13)
(2.25 0.0944756 9.89708e-08)
(2.31323 0.0583708 -9.85728e-10)
(2.26132 0.0852183 -1.09226e-07)
(2.22489 0.0883811 1.76864e-07)
(2.2216 0.08489 3.32979e-07)
(2.22988 0.0824796 -1.07828e-07)
(2.25069 0.0187806 -2.87023e-14)
(2.24838 0.0469815 1.76444e-07)
(2.22157 0.0584561 2.10554e-07)
(2.21489 0.0695474 -5.38795e-08)
(2.20477 0.0637191 2.46283e-07)
(2.20982 0.0402988 7.00337e-08)
(2.20648 0.0348644 -1.18396e-14)
(2.23208 0.154088 4.64956e-07)
(2.19861 0.0307165 -1.43321e-15)
(2.18011 0.0268252 -1.13268e-14)
(2.15647 0.0765982 7.36667e-08)
(2.13532 0.061062 -2.23382e-07)
(2.13248 0.0448463 1.16647e-08)
(2.13667 0.0441943 8.85939e-08)
(2.13646 0.0283954 -3.35864e-07)
(2.11323 0.0183038 -4.50072e-14)
(2.10446 0.0391492 -6.81421e-13)
(2.07298 0.0680351 -2.3742e-07)
(2.07835 0.057499 9.4197e-08)
(2.07481 0.061842 -3.99927e-08)
(2.05089 0.0831555 1.99459e-07)
(2.03606 0.0495751 1.89096e-07)
(2.03704 0.0182087 1.32475e-13)
(2.03251 0.0381336 -8.08096e-14)
(2.02679 0.0525735 -2.6462e-07)
(2.02507 0.0217949 6.96199e-07)
(2.01094 0.0718045 -9.17841e-08)
(2.01187 0.0689702 -1.14284e-07)
(2.01223 0.0734027 -5.55581e-07)
(1.9993 0.0778514 6.69823e-07)
(1.99823 0.0477718 -2.24566e-08)
(1.979 0.0855953 -6.32941e-08)
(1.96488 0.0107458 -7.34822e-14)
(1.94073 0.044856 4.1493e-07)
(1.93874 0.0374488 7.14367e-13)
(2.02604 0.158596 9.07621e-08)
(1.8893 0.0434763 -1.61364e-13)
(1.88756 0.0575936 8.41897e-09)
(1.88372 0.0810081 2.13566e-07)
(1.84486 0.0484238 2.72799e-07)
(1.8365 0.0886211 1.54948e-07)
(1.83717 0.0316177 1.90211e-13)
(1.83034 0.103816 1.9741e-07)
(1.8233 0.0546573 3.65795e-07)
(1.82136 0.098589 -3.89611e-07)
(7.12782 0.7276 4.40195e-08)
(7.12198 0.492023 4.17224e-08)
(5.86094 0.319517 -5.6742e-07)
(7.12403 0.321639 -5.47352e-07)
(5.08911 0.346925 -3.79294e-07)
(7.0052 0.224984 -1.27135e-07)
(7.11752 0.117101 -3.95453e-07)
(6.93279 0.249602 -8.44718e-07)
(7.0056 0.09365 -1.19377e-07)
(7.16388 0.0573838 -8.13277e-09)
(6.96707 0.0799316 7.10178e-08)
(7.02822 0.0735246 1.07798e-07)
(7.13608 0.147901 -1.13432e-06)
(6.94119 0.114931 -2.83725e-07)
(7.0099 0.0931936 -7.32806e-08)
(6.87522 0.13711 5.38034e-07)
(7.11417 0.0365516 1.53219e-07)
(7.14759 3.2767e-09 5.64316e-12)
(7.07131 0.113892 -6.42816e-07)
(6.95938 0.0558812 6.58588e-09)
(6.90493 0.0597098 6.32785e-07)
(6.89558 0.165703 -8.70968e-07)
(7.09097 0.0217681 -9.39045e-08)
(6.84748 0.0626492 -9.47331e-07)
(6.924 0.0326014 -3.17325e-07)
(6.79315 0.0679949 -1.75805e-07)
(6.84825 0.055586 -1.958e-07)
(7.02413 0.0239488 -2.57463e-07)
(6.99881 1.06243e-10 5.37962e-13)
(6.83686 0.0602674 8.46846e-09)
(6.89312 2.86705e-10 -3.59924e-13)
(6.96788 0.000180778 -1.40836e-07)
(6.75998 0.0629925 5.09567e-07)
(6.84407 0.0632215 4.3092e-07)
(6.95159 0.00962594 9.61751e-08)
(6.62199 0.0939611 7.86084e-07)
(6.85383 0.0354111 -2.41704e-06)
(6.9416 7.65333e-11 4.26582e-13)
(6.86858 0.0399959 -2.52693e-09)
(6.69514 0.0540947 -1.82322e-07)
(6.72965 0.173898 3.14021e-07)
(6.71032 0.0603263 -2.51939e-07)
(6.90951 0.0220436 5.38901e-07)
(6.96698 0.0784982 3.20309e-08)
(6.68075 0.102777 -2.02908e-07)
(6.89521 0.0195427 -5.87659e-08)
(6.72987 0.0532201 -1.17711e-07)
(6.81191 1.59482e-11 -7.33581e-14)
(6.7387 0.00100026 3.56682e-07)
(6.90981 0.0124726 -5.90967e-10)
(6.78566 0.12341 1.41713e-07)
(6.89804 0.0114881 -3.33985e-07)
(6.88283 0.00581771 3.91809e-07)
(6.85426 2.58506e-11 -6.69686e-16)
(6.59956 0.172412 -3.20798e-07)
(6.66049 0.0777549 -8.79752e-07)
(6.95226 0.000339375 -1.60062e-07)
(6.67416 0.149575 1.22556e-07)
(6.47299 0.214381 -9.51147e-09)
(6.81471 0.0174231 1.1716e-07)
(6.72024 0.0465441 4.92141e-08)
(6.83302 0.0678411 -3.30912e-07)
(6.75081 2.39326e-11 2.00585e-14)
(6.72518 0.0114745 -1.83597e-07)
(6.73463 1.50125e-10 6.79542e-13)
(6.68068 0.134012 3.17943e-08)
(6.76351 7.31713e-11 -1.81528e-13)
(6.51101 0.145583 4.86714e-07)
(6.67392 0.0140958 4.26743e-07)
(6.69426 0.0964755 -1.80425e-06)
(6.73688 1.20284e-11 7.60549e-14)
(6.63606 0.0195302 1.84647e-07)
(6.56082 0.0700674 4.82897e-07)
(6.69837 0.0189516 5.37103e-08)
(6.32164 0.0741046 -8.90428e-07)
(6.65433 5.80117e-10 2.50603e-12)
(6.55597 0.0261219 -2.81804e-08)
(6.59821 0.00119881 6.87906e-08)
(6.51505 0.0467043 1.15619e-07)
(6.5604 0.0094769 4.94386e-07)
(6.57844 0.00395979 -1.55992e-07)
(6.50595 0.0343901 -4.95038e-08)
(6.4304 0.0445943 1.04206e-08)
(6.53687 3.43011e-11 -2.9321e-13)
(6.34748 0.0587262 3.34359e-07)
(6.51411 0.0201789 -5.70727e-08)
(6.37633 0.0151594 -2.90394e-07)
(6.24049 0.0710874 5.48611e-09)
(6.36407 0.0684539 5.24795e-08)
(6.59221 0.0479096 -1.12367e-07)
(6.31265 0.0607908 8.93437e-07)
(6.47614 0.00840775 2.26052e-07)
(6.24123 0.0757615 -2.60993e-08)
(6.3733 0.0211361 1.25469e-07)
(6.42878 0.000652475 3.8824e-08)
(6.33947 0.0260234 1.04334e-08)
(6.40396 2.23828e-10 -2.00319e-13)
(6.29717 0.0351882 -1.42231e-07)
(6.25284 0.0714772 1.39036e-07)
(6.15218 0.0781228 1.52449e-08)
(6.17976 0.183738 -1.38629e-07)
(6.35383 1.65036e-11 -4.62838e-14)
(6.18254 0.0614193 -3.18465e-08)
(6.34346 0.00876839 -1.6401e-07)
(6.35163 0.00917588 7.32019e-08)
(6.12546 0.0735018 1.94598e-08)
(6.32005 4.50271e-07 -7.18702e-10)
(6.30348 0.0164221 -2.82806e-07)
(6.28741 0.0133909 -6.05522e-08)
(6.12404 0.0573101 -4.52872e-07)
(6.3082 0.114195 7.92971e-07)
(6.1452 0.0329242 1.52911e-07)
(6.18761 0.0256992 1.87535e-07)
(6.25579 0.0228828 -4.45721e-07)
(6.06766 0.0647848 1.90449e-07)
(6.1835 0.0426353 1.83043e-07)
(6.18259 0.00321392 4.89855e-07)
(6.17854 1.98092e-11 -2.23356e-14)
(6.15158 0.0239928 -2.55874e-08)
(6.12877 4.02222e-12 2.40947e-14)
(6.16514 0.115015 -3.07396e-07)
(5.94044 0.184082 -8.39216e-08)
(5.88956 0.0112888 -6.18418e-08)
(6.15574 0.0872477 1.06999e-07)
(6.06441 0.00342103 -9.60067e-08)
(5.9564 0.0505451 1.51907e-08)
(5.99352 5.30287e-10 4.14069e-12)
(5.97566 0.0109573 -1.60115e-07)
(5.89243 0.0387244 -1.33445e-07)
(6.06361 0.088907 -7.84575e-08)
(5.98242 3.7216e-10 1.62529e-12)
(5.90164 0.0809084 -1.424e-07)
(5.82966 0.199149 -1.09443e-06)
(5.94319 0.0399083 -1.88896e-07)
(5.89192 0.0314696 3.13739e-08)
(5.84033 0.0404178 -2.91836e-07)
(5.82569 0.042951 2.46501e-07)
(5.78121 0.0443212 3.20566e-10)
(5.89454 0.166376 1.14528e-07)
(5.86864 1.76457e-10 1.42018e-12)
(5.82981 0.00519829 1.09069e-07)
(5.79527 0.0319524 -4.17473e-07)
(5.81645 0.0159813 -1.11263e-07)
(5.83489 3.13378e-09 -6.70066e-13)
(5.80692 0.0178938 -1.54886e-07)
(5.73451 0.0267807 -5.3708e-07)
(5.73452 0.194909 3.13091e-09)
(5.83822 0.13965 -2.96545e-07)
(5.69058 0.0687077 -9.80712e-07)
(5.78274 0.00484028 -1.20349e-07)
(5.64223 0.0682638 -1.22358e-07)
(5.71075 0.0479239 -1.03869e-07)
(5.72927 0.0387839 3.6514e-07)
(5.74176 0.0169286 -2.90803e-08)
(5.63799 0.0694187 -1.33463e-06)
(5.72097 0.00708627 1.87963e-07)
(5.85944 0.148153 -1.82513e-07)
(5.58452 0.0714116 5.44926e-08)
(5.68492 0.0197964 -5.66306e-08)
(5.71783 0.146786 2.10171e-07)
(5.71421 0.00280468 -3.94029e-09)
(5.63568 0.0481159 4.81688e-07)
(5.56969 0.0634716 2.78524e-07)
(5.63526 0.0496344 4.79519e-10)
(5.61766 0.0637712 -8.11652e-08)
(5.67593 0.210335 -4.44046e-07)
(5.64097 0.0464347 -7.91455e-07)
(5.59574 0.066408 -1.06245e-06)
(5.819 0.106907 -2.74567e-07)
(5.69918 0.170176 -4.50088e-08)
(5.72037 0.15029 -2.20419e-08)
(5.65655 3.4679e-09 -2.66637e-11)
(5.64419 0.00420807 3.39597e-09)
(5.56107 0.0467417 -2.84107e-07)
(5.57754 0.0142334 -9.65352e-08)
(5.59288 0.00967809 1.2553e-07)
(5.55187 0.0237196 3.16151e-07)
(5.51509 0.0563125 1.56095e-07)
(5.54961 0.0351669 2.39149e-08)
(5.57415 3.15604e-10 -2.2898e-12)
(5.58128 0.000910977 -2.40841e-09)
(5.56374 0.000817327 8.65635e-08)
(5.67125 0.143631 -2.19265e-07)
(5.55128 1.39591e-11 -1.4736e-14)
(5.7176 0.0909888 -2.6908e-07)
(5.47778 0.0353311 -5.17236e-08)
(5.58443 0.158738 -1.80847e-07)
(5.65031 0.109308 5.25676e-08)
(5.70014 0.0785376 -2.0052e-07)
(5.44708 0.0249325 -5.66977e-09)
(5.4512 0.000146834 3.24041e-07)
(5.438 0.0104077 -3.74327e-08)
(5.40601 0.022376 -4.07002e-09)
(5.34347 0.0523786 7.30906e-07)
(5.31816 0.050999 5.71033e-07)
(5.36664 0.0115326 -2.66649e-08)
(5.48031 0.178344 6.57106e-07)
(5.63965 0.0793481 3.41841e-07)
(5.3292 0.0408348 -6.83546e-08)
(5.33173 0.0325461 -8.24984e-08)
(5.4869 0.155683 -1.68867e-07)
(5.33137 2.04642e-11 -1.68744e-13)
(5.26125 0.0524441 3.88138e-07)
(5.43346 0.15404 1.56347e-07)
(5.26516 0.00708306 7.36266e-07)
(5.30522 0.000202686 -7.45549e-08)
(5.27264 0.023918 1.64174e-07)
(5.55268 0.0805789 3.97839e-07)
(5.20309 0.0477325 -3.95627e-07)
(5.22684 0.0317811 1.33269e-07)
(5.25009 0.00335394 -6.97857e-08)
(5.18276 0.0338194 9.78489e-08)
(5.14885 0.0542855 2.15665e-07)
(5.19106 0.0325122 -1.11756e-09)
(5.19118 0.012537 1.13488e-07)
(5.19001 0.00828167 1.14738e-07)
(5.14225 0.047063 1.9036e-07)
(5.31532 0.170137 -5.39618e-08)
(5.07889 0.059015 -3.46792e-08)
(5.15823 0.00744903 -4.87892e-09)
(5.38333 0.080801 -3.10766e-07)
(5.1178 0.0108012 -7.73837e-09)
(5.04587 0.0665957 -4.31105e-07)
(5.04487 0.054892 2.13472e-08)
(5.0967 0.02863 4.52386e-08)
(5.08536 0.0338803 6.04753e-08)
(5.33708 0.119655 -4.0411e-08)
(5.07825 0.0169612 1.77524e-07)
(4.99107 0.0809776 1.15947e-07)
(5.27123 0.161197 -4.87579e-07)
(5.25808 0.0923774 -1.63837e-07)
(5.02981 0.0432519 7.43967e-08)
(4.96493 0.0797665 1.07365e-07)
(5.24647 0.129505 -1.95357e-08)
(5.24653 0.136119 -7.49835e-08)
(5.01602 0.0178312 3.60463e-07)
(4.9914 1.11356e-10 8.95698e-13)
(5.19602 0.104338 4.80648e-07)
(4.96864 0.0302864 -2.97739e-08)
(5.19845 0.105171 1.01828e-07)
(4.86475 0.0823113 4.82849e-07)
(5.16264 0.101384 4.76955e-07)
(4.87832 0.0127538 -5.68831e-08)
(4.86196 0.031163 1.43452e-07)
(4.86031 0.013823 8.57884e-08)
(4.86801 9.52046e-05 -9.2085e-08)
(5.12626 0.13673 2.73701e-08)
(4.93705 0.0758967 -2.95168e-07)
(4.82679 0.038809 3.49177e-07)
(4.79427 0.0553523 -2.68699e-08)
(4.79796 0.00431262 -7.78366e-08)
(4.75297 0.0532138 6.6456e-08)
(4.75914 0.0156761 -1.33381e-07)
(5.02522 0.0814843 -5.1289e-08)
(4.75146 0.000168934 -2.47601e-10)
(4.74722 0.0130805 1.10372e-07)
(5.05877 0.107515 -9.77406e-08)
(4.718 0.045424 1.33854e-08)
(4.71902 0.0233442 -2.54797e-07)
(4.66964 0.0612321 2.40341e-07)
(4.70311 0.0185373 7.81393e-08)
(4.69212 0.0390332 1.88899e-07)
(4.66981 0.0258531 5.05588e-07)
(4.67074 0.042597 -2.39628e-07)
(4.67077 7.15944e-05 -3.51416e-08)
(4.97494 0.121346 2.98287e-08)
(4.64482 0.031167 -6.40036e-08)
(4.62777 0.0508325 5.09894e-07)
(4.63707 0.000280878 7.06732e-08)
(4.60029 0.00841574 -6.93843e-09)
(4.59218 0.00177565 7.25435e-08)
(4.87009 0.18954 -2.80007e-07)
(4.52849 0.0406789 -5.31525e-07)
(4.51562 0.0148931 1.74401e-07)
(4.49657 0.0536563 1.09745e-08)
(4.86138 0.0975203 -1.43574e-07)
(4.49657 2.80422e-10 7.56819e-13)
(4.47648 0.0246977 2.15809e-07)
(4.46114 0.0766119 1.00713e-06)
(4.57043 0.0811344 -6.59267e-08)
(4.45428 0.0461482 -1.12788e-06)
(4.41754 0.05284 1.13098e-08)
(4.40522 0.0359784 7.51827e-08)
(4.39984 0.0381825 2.3759e-07)
(4.3851 0.0463425 -1.18348e-07)
(4.38414 0.0186098 1.7113e-07)
(4.37802 0.071069 -7.88066e-07)
(4.37683 2.66941e-11 -1.19649e-14)
(4.37228 0.00339914 -6.97475e-08)
(4.75058 0.109314 1.72842e-07)
(4.36815 0.0268722 -7.48909e-08)
(4.73895 0.109589 -3.78882e-07)
(4.73685 0.111286 -2.17067e-07)
(9.97458 0.208927 -1.35406e-07)
(9.93876 2.52191e-08 -9.23245e-11)
(9.97885 0.172704 6.08889e-08)
(9.78102 0.107048 -7.62376e-08)
(9.67354 0.190171 -3.85213e-07)
(9.84552 0.0720181 4.89942e-07)
(9.77669 0.113676 5.76234e-07)
(9.70636 0.239146 -3.98115e-07)
(9.98867 0.0501442 1.0032e-07)
(9.91901 0.0701597 2.58711e-08)
(9.95972 0.0105927 -4.94638e-07)
(9.77272 0.0755292 5.59963e-07)
(9.92781 3.75393e-08 -1.48275e-10)
(9.72607 0.141795 -3.88145e-07)
(9.92562 0.00928768 6.24181e-07)
(9.83844 0.141089 1.57165e-06)
(9.89312 0.0612748 -2.57363e-07)
(9.88221 0.0138179 3.52624e-07)
(9.66463 0.00479075 -7.11521e-08)
(9.8786 0.0564047 -3.65798e-07)
(9.91054 0.0509568 -4.09148e-07)
(9.8846 0.00552463 1.77686e-07)
(9.55848 0.149661 -1.3758e-08)
(9.67833 0.113241 3.38416e-07)
(9.73428 0.0933551 -3.08883e-07)
(9.75247 0.0570838 3.30213e-08)
(9.57229 8.37632e-08 -2.67557e-10)
(9.85784 1.1225e-06 -2.65184e-09)
(9.7999 0.0473382 2.3897e-07)
(9.85183 0.0274183 -1.15529e-06)
(9.85508 0.00891527 -3.98198e-08)
(9.95502 0.0932741 -5.11899e-07)
(9.63003 0.12557 2.96979e-07)
(9.7267 0.0665547 1.0423e-06)
(9.77944 0.0276887 3.46272e-07)
(9.78215 0.0560596 -5.75257e-07)
(9.7477 0.0265753 1.33135e-07)
(9.55475 0.124898 2.49851e-07)
(9.73056 0.0346584 -2.36945e-08)
(9.79147 0.0504327 -1.10627e-06)
(9.74657 0.0288052 1.24808e-08)
(9.7559 0.0036164 -2.15415e-07)
(9.62311 0.0838233 -5.28999e-07)
(9.60483 0.0913345 -5.88586e-07)
(9.65049 0.0334642 -5.90128e-08)
(9.70929 0.0125747 2.42243e-07)
(9.67261 0.00751268 1.12786e-08)
(9.61329 0.00669864 3.18828e-07)
(9.44332 0.00193541 7.58214e-07)
(9.66269 1.52356e-07 6.19614e-10)
(9.3649 0.174251 -5.95931e-09)
(9.60787 0.0478911 8.18242e-08)
(9.58201 0.0281642 -1.1538e-06)
(9.49353 0.0911487 -1.4067e-07)
(9.64433 0.14513 6.06205e-07)
(9.61764 0.00630149 -5.7473e-10)
(9.589 0.0580194 6.71289e-08)
(9.69014 0.0550717 2.27935e-07)
(9.60893 0.0237436 -1.5099e-07)
(9.56372 1.5775e-07 8.9509e-10)