/*--------------------------------*- C++ -*----------------------------------*\
  =========                 |
  \\      /  F ield         | OpenFOAM: The Open Source CFD Toolbox
   \\    /   O peration     | Website:  https://openfoam.org
    \\  /    A nd           | Version:  7
     \\/     M anipulation  |
\*---------------------------------------------------------------------------*/
FoamFile
{
    version     2.0;
    format      ascii;
    class       scalarField;
    location    "0.13/lagrangian/reactingCloud1";
    object      d;
}
// * * * * * * * * * * * * * * * * * * * * * * * * * * * * * * * * * * * * * //


1186
(
2e-07
2e-07
2e-07
2e-07
2e-07
2e-07
2e-07
2e-07
2e-07
2e-07
2e-07
2e-07
2e-07
2e-07
2e-07
2e-07
2e-07
2e-07
2e-07
2e-07
2e-07
2e-07
2e-07
2e-07
2e-07
2e-07
2e-07
2e-07
2e-07
2e-07
2e-07
2e-07
2e-07
2e-07
1.14135e-06
2e-07
2e-07
2e-07
2e-07
2e-07
2e-07
2e-07
2e-07
2e-07
2e-07
2e-07
2e-07
2e-07
2e-07
2e-07
2e-07
2e-07
2e-07
2e-07
2e-07
2e-07
2e-07
2e-07
2e-07
2e-07
2e-07
2e-07
2e-07
2e-07
2e-07
2e-07
2e-07
2e-07
2e-07
2e-07
2e-07
2e-07
2e-07
2e-07
2e-07
2e-07
2e-07
2e-07
2e-07
2e-07
2e-07
2e-07
2e-07
2e-07
2e-07
2e-07
2e-07
2e-07
2e-07
2e-07
2e-07
2e-07
2e-07
2e-07
2e-07
2e-07
2e-07
2e-07
2e-07
2e-07
2e-07
2e-07
2e-07
2e-07
2e-07
2e-07
2e-07
2e-07
2e-07
2e-07
2e-07
2e-07
2e-07
2e-07
2e-07
2e-07
2e-07
2e-07
2e-07
2e-07
2e-07
2e-07
2e-07
2e-07
2e-07
2e-07
2e-07
2e-07
2e-07
2e-07
2e-07
2e-07
2e-07
2e-07
2e-07
2e-07
2e-07
2e-07
2e-07
2e-07
2e-07
2e-07
2e-07
2e-07
2e-07
2e-07
2e-07
2e-07
2e-07
2e-07
2e-07
2e-07
2e-07
2e-07
2e-07
2e-07
2e-07
2e-07
2e-07
2e-07
2e-07
2e-07
2e-07
2e-07
2e-07
2e-07
2e-07
2e-07
2e-07
2e-07
2e-07
2e-07
2e-07
2e-07
2e-07
2e-07
2e-07
2e-07
2e-07
2e-07
2e-07
2e-07
2e-07
2e-07
2e-07
2e-07
2e-07
2e-07
2e-07
2e-07
2e-07
2e-07
2e-07
2e-07
2e-07
2e-07
2e-07
2e-07
2e-07
2e-07
2e-07
2e-07
2e-07
2e-07
2e-07
2e-07
2e-07
2e-07
2e-07
2e-07
2e-07
2e-07
2e-07
2e-07
2e-07
2e-07
2e-07
2e-07
2e-07
2e-07
2e-07
2e-07
2e-07
2e-07
2e-07
2e-07
2e-07
2e-07
2e-07
2e-07
2e-07
2e-07
2e-07
2e-07
2e-07
2e-07
2e-07
2e-07
2e-07
2e-07
2e-07
2e-07
2e-07
2e-07
2e-07
2e-07
2e-07
2e-07
2e-07
2e-07
2e-07
2e-07
2e-07
2e-07
2e-07
2e-07
2e-07
2e-07
2e-07
2e-07
2e-07
2e-07
2e-07
2e-07
2e-07
2e-07
2e-07
2e-07
2e-07
2e-07
2e-07
2e-07
2e-07
2e-07
2e-07
2e-07
2e-07
2e-07
2e-07
2e-07
2e-07
2e-07
2e-07
2e-07
2.11652e-06
1.57457e-06
1.72589e-06
2.15095e-06
2.47656e-06
9.81749e-07
1.17446e-06
7.87314e-07
1.20028e-06
2.37872e-06
1.13497e-06
2e-07
2e-07
1.36863e-06
2.33482e-06
2e-07
2e-07
2e-07
7.72721e-07
2e-07
2e-07
2e-07
1.17595e-06
2e-07
2e-07
2e-07
2e-07
2e-07
3.02149e-06
2e-07
2e-07
2e-07
3.85804e-06
2e-07
2e-07
2e-07
2e-07
1.23057e-06
2e-07
2e-07
2e-07
3.33924e-06
2e-07
2e-07
1.49641e-06
2e-07
2e-07
2e-07
1.96958e-06
2e-07
2e-07
2e-07
2.2011e-06
2e-07
5.94149e-07
2e-07
2e-07
2e-07
2e-07
2e-07
2e-07
2e-07
2e-07
1.3016e-06
2e-07
2e-07
2e-07
2e-07
2e-07
2e-07
2e-07
2e-07
2.82612e-06
2e-07
2e-07
2e-07
2e-07
2e-07
2e-07
2e-07
2e-07
2e-07
2e-07
2e-07
2e-07
2e-07
2e-07
2e-07
2e-07
9.14361e-07
2.4515e-06
2e-07
2e-07
1.17362e-06
1.65938e-06
2e-07
2e-07
2e-07
2e-07
2e-07
2e-07
2e-07
1.3148e-06
2e-07
2e-07
2e-07
2e-07
2e-07
2e-07
2e-07
2e-07
2e-07
2e-07
2.26924e-06
2e-07
2e-07
2e-07
2e-07
2e-07
1.08151e-06
2e-07
2e-07
2e-07
2e-07
2e-07
2e-07
2e-07
2e-07
2e-07
7.1329e-07
2e-07
2e-07
2e-07
2e-07
2e-07
2e-07
2e-07
2e-07
2e-07
2e-07
1.18057e-06
2e-07
2e-07
2e-07
1.4365e-06
2e-07
2e-07
2e-07
2e-07
2e-07
2e-07
2e-07
2e-07
2e-07
2e-07
2e-07
2e-07
2e-07
2e-07
2e-07
2e-07
2e-07
2e-07
2e-07
1.05405e-06
2e-07
2e-07
2e-07
2e-07
2e-07
2e-07
2e-07
1.86381e-06
2e-07
2e-07
2e-07
2e-07
2e-07
2e-07
2e-07
2e-07
2e-07
2e-07
1.91208e-06
2e-07
2e-07
2e-07
1.25848e-06
2e-07
2e-07
2e-07
2e-07
2e-07
2e-07
2e-07
2e-07
1.11683e-06
2e-07
2e-07
2e-07
2e-07
2e-07
2e-07
1.33611e-06
2e-07
2e-07
2e-07
2e-07
2e-07
2e-07
2e-07
2e-07
2e-07
2e-07
2e-07
2e-07
2e-07
2e-07
2e-07
1.35639e-06
2e-07
2e-07
2e-07
2e-07
2e-07
2e-07
2e-07
2e-07
2e-07
2e-07
2e-07
2e-07
5.50805e-07
2e-07
2e-07
2e-07
2e-07
2e-07
2e-07
2e-07
2e-07
2e-07
2e-07
2e-07
2e-07
2e-07
2e-07
2e-07
2e-07
2e-07
2e-07
2e-07
2e-07
2e-07
2e-07
2e-07
2e-07
2e-07
2e-07
2e-07
6.0716e-07
2e-07
2e-07
2e-07
2e-07
2e-07
2e-07
1.15638e-06
2e-07
3.72648e-07
7.02174e-07
8.76663e-07
1.08916e-06
1.09949e-06
7.34614e-07
2.04871e-06
2.01725e-06
1.4525e-06
2.39416e-06
1.4349e-06
2.31052e-06
2.27093e-06
4.25816e-06
1.91545e-06
3.54493e-06
1.73888e-06
2e-07
2e-07
2.96533e-06
1.19858e-06
1.75415e-06
1.90891e-06
2e-07
1.07235e-06
2e-07
1.59423e-06
1.02877e-06
2e-07
2e-07
1.01698e-06
2e-07
2e-07
1.5895e-06
1.02626e-06
2e-07
1.94187e-06
2e-07
2e-07
2e-07
1.57877e-06
2.81531e-06
7.84222e-07
2e-07
2.7543e-06
1.78776e-06
2e-07
2e-07
2e-07
2e-07
2e-07
2.29751e-06
2e-07
2e-07
2e-07
1.37618e-06
1.40486e-06
3.12995e-06
1.23206e-06
1.11602e-06
2e-07
2e-07
2.51217e-06
2e-07
2e-07
2e-07
2.41642e-06
2e-07
1.764e-06
2e-07
2.00619e-06
2e-07
2e-07
1.32844e-06
2e-07
1.04732e-06
2e-07
2e-07
2e-07
2e-07
2e-07
2e-07
2e-07
2e-07
2e-07
2e-07
2e-07
2e-07
1.56955e-06
7.99208e-07
3.04407e-06
2e-07
2e-07
1.51711e-06
2e-07
2e-07
2e-07
2e-07
2e-07
8.80776e-07
1.43255e-06
7.12094e-07
2e-07
2e-07
2e-07
2e-07
1.40155e-06
2e-07
2e-07
2e-07
1.50839e-06
1.55175e-06
2e-07
2e-07
2e-07
3.61213e-07
2e-07
2e-07
2e-07
2e-07
2e-07
2.10209e-06
1.33074e-06
2e-07
2.74103e-06
2e-07
2e-07
2e-07
2e-07
2e-07
2.18662e-06
2e-07
2.28518e-06
1.78017e-06
3.61583e-06
2e-07
2e-07
2e-07
2e-07
1.31433e-06
2e-07
2e-07
2e-07
2e-07
2e-07
2e-07
2e-07
1.04903e-06
2.11199e-06
2e-07
2e-07
2e-07
2e-07
2e-07
2e-07
2e-07
2e-07
2.23132e-06
4.22391e-07
2e-07
1.26723e-06
2e-07
2e-07
2e-07
2e-07
2e-07
1.12646e-06
4.39869e-06
2e-07
1.96909e-06
8.07051e-07
2.17452e-06
2e-07
2e-07
2e-07
2e-07
2e-07
2e-07
2e-07
2e-07
2e-07
2e-07
2e-07
1.55757e-06
2e-07
2.56367e-06
2e-07
1.545e-06
3.29522e-06
2.27098e-06
2e-07
2e-07
2e-07
2e-07
2e-07
2e-07
2e-07
2.62937e-06
3.24076e-06
2e-07
2e-07
2.02349e-06
2e-07
2e-07
1.10723e-06
2e-07
2e-07
2e-07
1.5747e-06
2e-07
2e-07
2e-07
2e-07
2e-07
2e-07
2e-07
2e-07
2e-07
1.30931e-06
2e-07
2e-07
2.77502e-06
2e-07
2e-07
2e-07
2e-07
2e-07
1.95592e-06
2e-07
2e-07
1.44001e-06
1.65506e-06
2e-07
2e-07
1.66689e-06
1.29687e-06
2e-07
2e-07
1.51549e-06
2e-07
2.5061e-06
2e-07
2.52297e-06
2e-07
2e-07
5.1354e-06
2e-07
1.81207e-06
3.25127e-06
2e-07
2e-07
2e-07
2e-07
2e-07
2.15021e-06
2e-07
2e-07
2.47749e-06
2e-07
2e-07
2e-07
2e-07
2e-07
3.87208e-06
2e-07
2e-07
1.44028e-06
2e-07
2e-07
2e-07
2e-07
2e-07
9.59384e-07
2e-07
2e-07
2e-07
2.22631e-06
2e-07
2e-07
2e-07
8.18131e-07
2e-07
2e-07
2e-07
2e-07
2e-07
2e-07
2e-07
2e-07
2e-07
1.62466e-06
2e-07
9.44003e-07
2.12809e-06
3.15202e-06
2.68535e-06
2.19924e-06
3.16303e-06
2.77574e-06
2.68825e-06
3.05973e-06
1.83726e-06
3.0786e-06
3.9729e-06
3.98727e-06
2.80149e-06
3.87746e-06
2.47998e-06
2.48611e-06
2.27345e-06
2.48097e-06
2.86419e-06
2.58471e-06
2.39632e-06
2.40255e-06
2.45432e-06
2.69131e-06
2.85973e-06
3.23938e-06
3.35649e-06
2.90267e-06
2.43947e-06
2.64822e-06
2.41302e-06
2.42582e-06
2.30048e-06
3.98158e-06
5.37992e-06
2.41953e-06
4.38792e-06
2.56458e-06
2.70992e-06
2.35048e-06
2.35932e-06
2.35982e-06
2.46666e-06
3.32939e-06
2.5472e-06
2.49917e-06
2.45081e-06
2.35667e-06
2.99569e-06
2.46534e-06
3.38219e-06
2.89788e-06
2.61125e-06
3.46429e-06
5.01923e-06
2.66222e-06
2.33392e-06
2.33798e-06
2.28935e-06
2.30932e-06
2.32264e-06
2.59835e-06
4.03025e-06
2.10843e-06
2.30135e-06
2.00725e-06
2.38454e-06
2.00135e-06
2.19723e-06
2.27598e-06
2.61777e-06
3.27368e-06
4.09972e-06
2.20417e-06
2.42189e-06
2.24379e-06
2.25021e-06
2.27111e-06
2.82876e-06
2.22679e-06
2.32479e-06
2.42608e-06
2.99078e-06
2.16863e-06
2.58117e-06
3.21637e-06
2.18464e-06
2.60931e-06
2.19282e-06
3.31295e-06
2.18918e-06
2.3105e-06
3.35324e-06
2.17706e-06
2.31764e-06
2.32071e-06
3.11246e-06
2.22704e-06
2.1547e-06
2.13893e-06
2.58643e-06
2.43301e-06
2.12722e-06
2.43651e-06
2.23367e-06
2.11951e-06
2.02239e-06
2.09926e-06
2.26946e-06
2.50581e-06
2.08579e-06
2.08456e-06
2.85236e-06
4.93615e-06
2.17622e-06
2.81584e-06
2.03533e-06
2.19539e-06
2.04097e-06
1.99323e-06
2.46705e-06
2.38986e-06
2.00479e-06
2.07343e-06
3.04739e-06
1.17693e-06
2.00885e-06
1.97327e-06
2.09845e-06
1.9806e-06
1.95735e-06
1.97195e-06
2.06231e-06
1.95783e-06
2.10944e-06
1.9808e-06
1.92388e-06
1.9415e-06
1.91421e-06
1.89623e-06
2.1789e-06
1.87014e-06
2.2004e-06
1.82575e-06
1.83736e-06
1.82882e-06
1.80755e-06
2.86942e-06
1.81425e-06
2.19949e-06
4.34069e-06
1.77988e-06
1.95662e-06
2.12662e-06
2.27549e-06
2.67791e-06
2.18373e-06
1.74077e-06
1.73674e-06
4.23671e-06
4.44227e-06
3.35427e-06
1.85261e-06
2.54305e-06
1.99175e-06
1.69962e-06
1.697e-06
1.68441e-06
1.67793e-06
2.20123e-06
3.51878e-06
3.12494e-06
1.72891e-06
2.01254e-06
2.03188e-06
1.63023e-06
2.24799e-06
3.40313e-06
2.12001e-06
1.73492e-06
2.63797e-06
2.72254e-06
2.35533e-06
1.57912e-06
1.79799e-06
1.58101e-06
1.57577e-06
1.79609e-06
3.16431e-06
1.95943e-06
3.76906e-06
1.66411e-06
1.53364e-06
1.53044e-06
1.52416e-06
1.62312e-06
1.73327e-06
3.56772e-06
1.7505e-06
2.60378e-06
3.04021e-06
1.45674e-06
1.82469e-06
1.92955e-06
1.94187e-06
1.63414e-06
1.43425e-06
3.47376e-06
3.7624e-06
2.03547e-06
1.52298e-06
3.37039e-06
3.79759e-06
2.70126e-06
1.31039e-06
1.31802e-06
1.31626e-06
3.51412e-06
1.44079e-06
2.23719e-06
1.22832e-06
2.69728e-06
1.71409e-06
3.10397e-06
4.06567e-06
1.18462e-06
3.10547e-06
1.14853e-06
2.0721e-06
1.10639e-06
1.2875e-06
1.08563e-06
1.43331e-06
1.06638e-06
3.98064e-06
2.7867e-06
2.66532e-06
1.01317e-06
9.92775e-07
9.639e-07
1.34233e-06
2.90736e-06
1.6454e-06
2.09892e-06
3.32233e-06
1.56263e-06
1.10482e-06
2.51582e-06
8.49905e-07
3.78095e-06
8.20902e-07
1.22901e-06
1.24318e-06
2.01763e-06
2.41531e-06
1.41041e-06
1.50975e-06
3.0454e-06
1.95764e-06
6.41273e-07
6.42274e-07
1.09796e-06
1.70056e-06
2.37131e-07
1.924e-06
2.5172e-06
2.31176e-06
1.2998e-06
2.70649e-06
2.63205e-06
2e-07
1.22704e-06
2.57658e-06
3.07699e-06
1.52327e-06
2e-07
6.08608e-06
2.05903e-06
2e-07
1.48069e-06
2.307e-06
1.08047e-06
2.79308e-06
2e-07
2e-07
3.09645e-06
2e-07
2.05629e-06
3.09849e-07
1.3519e-06
3.05712e-06
2e-07
2.20312e-07
2e-07
2e-07
1.43881e-06
6.88809e-06
1.90797e-06
2e-07
3.17667e-06
2e-07
2e-07
1.95413e-06
2e-07
2e-07
1.891e-06
5.73577e-07
2e-07
2.26675e-06
2e-07
2e-07
2e-07
2e-07
1.57298e-06
1.14787e-06
4.55936e-06
1.57613e-06
2e-07
2e-07
1.29631e-06
1.77145e-06
3.46297e-06
2.48767e-06
2e-07
2.87881e-06
2e-07
3.44784e-07
2e-07
1.86459e-06
2e-07
1.06433e-06
1.02229e-06
2.68984e-06
2.02918e-06
1.68571e-06
1.41944e-06
1.9598e-06
2.17262e-06
9.83326e-07
1.33108e-06
)


// ************************************************************************* //
