/*--------------------------------*- C++ -*----------------------------------*\
  =========                 |
  \\      /  F ield         | OpenFOAM: The Open Source CFD Toolbox
   \\    /   O peration     | Website:  https://openfoam.org
    \\  /    A nd           | Version:  7
     \\/     M anipulation  |
\*---------------------------------------------------------------------------*/
FoamFile
{
    version     2.0;
    format      ascii;
    class       labelField;
    location    "0.13/lagrangian/reactingCloud1";
    object      origId;
}
// * * * * * * * * * * * * * * * * * * * * * * * * * * * * * * * * * * * * * //


1186
(
986
1002
976
1003
996
1008
1007
995
1010
1004
999
1012
1013
1011
1015
1014
1017
1005
1018
997
1016
1019
1023
1024
1025
1021
1020
1001
1027
998
1026
1009
1022
1028
806
1031
1030
1032
1033
1034
1037
1035
1041
1039
1040
1042
1044
1043
1036
1029
1038
1049
1051
1052
1045
1047
1055
1053
939
1046
1059
1048
1050
1056
1057
1064
1196
1204
1205
1206
1207
1208
1209
1210
1211
1212
1213
1214
1215
1216
1217
1218
1219
1220
1221
1222
1223
1224
1225
1226
1227
1228
1229
1230
1231
1232
1233
1234
1235
1236
1237
1238
1239
1240
1241
1242
1243
1244
1245
1246
1247
1248
1249
1250
1251
1252
1253
1254
1255
1256
1257
1258
1259
1260
1261
1262
1263
1264
1265
1266
1267
1268
1269
1270
1271
1272
1273
1006
1095
1077
1109
1076
1140
1129
1151
1156
1155
1144
1157
1159
1158
1132
1161
1162
1165
1163
1166
1148
1168
1167
1169
1170
1172
1171
1160
1164
1173
1175
1174
1177
1178
1179
1181
1180
1182
1184
1186
1183
1185
1187
1190
1189
1188
1123
1192
1191
1193
1194
1195
1197
1176
1201
1200
1199
1202
1198
1203
1145
1058
947
1088
1082
1081
1099
1096
1098
1101
1100
1106
1111
1094
1102
1108
1107
1112
1115
1072
1103
1114
1113
1105
1116
1121
1126
1122
1104
1117
1118
1125
1131
1120
1119
1130
1133
1135
1134
1128
1136
1127
1139
1143
1138
1137
1110
1146
1124
1149
1142
1141
1150
1079
1154
1152
1147
1153
991
1065
1054
1069
1060
1068
1062
1061
1067
1070
1066
1071
1073
1085
1074
1075
1084
1078
1090
1089
1087
1083
1063
1080
1091
1092
1093
1086
1097
611
649
642
687
665
700
681
667
717
723
706
725
730
699
716
746
757
748
740
754
738
758
722
760
756
759
755
761
712
765
766
769
719
764
773
774
772
744
775
724
771
703
776
779
732
780
770
784
729
789
768
777
753
782
763
790
788
794
795
796
792
797
793
767
786
804
802
791
808
805
811
781
737
810
801
785
787
816
799
817
818
803
819
821
823
824
778
825
812
798
591
837
840
836
813
842
814
847
833
846
841
848
820
830
850
839
829
845
851
834
831
809
856
807
858
827
861
800
862
832
852
859
853
843
863
866
870
865
838
835
822
864
869
855
854
871
857
826
873
875
762
868
882
874
860
872
884
878
883
881
877
677
867
888
887
890
891
886
815
894
876
895
897
849
751
844
889
901
896
899
908
906
783
909
898
910
893
911
879
885
914
916
903
676
912
921
913
907
920
929
922
923
926
902
932
915
919
930
925
927
918
904
935
630
892
917
945
936
943
941
946
937
924
944
938
948
951
933
952
931
950
942
934
928
828
961
959
955
956
954
963
964
900
965
967
958
962
949
969
984
974
973
968
971
972
960
979
982
981
980
966
975
880
978
940
983
953
989
985
990
905
994
992
977
993
988
1000
970
987
957
234
321
447
373
568
300
439
364
432
457
423
452
183
445
403
466
468
481
402
464
474
388
482
485
473
455
476
453
487
440
490
471
467
489
479
491
495
463
500
488
405
494
486
429
493
506
501
477
498
484
438
492
508
510
505
499
449
320
381
441
502
407
518
516
514
433
521
418
480
421
526
509
517
530
513
535
536
520
529
524
525
511
537
527
532
541
528
522
549
427
545
550
345
553
554
551
519
556
552
534
397
540
533
564
561
546
566
555
558
459
460
512
426
570
573
577
578
575
557
579
544
497
560
503
583
587
590
598
569
543
593
531
246
504
596
606
599
597
454
595
612
592
607
610
615
594
472
523
609
603
589
613
620
621
574
608
539
605
622
478
627
604
600
624
584
515
576
619
538
396
483
602
633
625
614
629
636
623
637
638
617
631
571
635
542
644
572
416
567
650
651
645
647
648
632
656
563
496
655
659
586
652
601
507
660
663
658
559
664
669
672
671
662
657
670
673
675
580
640
680
582
683
668
654
682
679
616
684
674
585
634
686
661
565
548
691
689
643
695
562
641
628
701
704
685
697
618
639
711
709
702
708
718
646
705
710
626
696
721
688
692
694
581
713
678
547
727
720
693
734
715
588
739
735
726
666
731
736
714
690
741
742
743
749
747
752
728
745
733
698
750
707
653
25
67
117
27
71
90
58
122
105
13
59
98
104
95
155
118
133
126
115
131
152
144
85
119
78
19
116
147
143
140
158
166
100
106
130
108
148
129
159
142
149
172
127
137
176
135
177
154
139
128
121
151
103
99
156
157
188
164
195
162
163
160
161
138
169
196
185
178
181
192
132
92
125
191
171
209
170
186
206
180
203
165
217
111
184
221
167
205
141
168
202
112
182
218
233
198
124
197
237
216
175
200
222
189
244
150
225
226
231
248
235
219
204
238
220
257
229
208
227
210
249
259
256
174
86
245
213
247
264
253
271
263
267
270
278
279
215
266
236
201
282
269
252
283
293
289
241
240
194
207
297
211
290
250
268
146
301
287
212
224
214
307
153
9
310
281
295
286
262
109
190
306
303
296
312
280
223
285
315
265
258
273
328
275
329
317
324
284
316
243
318
325
334
309
305
336
193
302
294
255
314
288
304
292
313
344
260
239
337
352
254
199
251
308
335
340
179
323
333
351
330
322
63
277
319
327
339
356
354
342
274
371
383
242
298
338
368
384
369
362
332
347
355
311
382
394
276
386
299
395
376
374
358
370
390
406
359
379
375
391
380
360
392
372
346
230
404
48
291
419
413
343
331
409
434
398
387
428
417
349
411
361
365
443
400
430
410
435
399
377
401
442
326
446
414
350
378
425
357
393
431
367
450
461
348
437
462
385
465
456
451
424
408
444
420
353
436
469
341
412
389
366
448
61
458
470
415
422
475
94
53
113
173
261
228
272
232
187
363
)


// ************************************************************************* //
