/*--------------------------------*- C++ -*----------------------------------*\
  =========                 |
  \\      /  F ield         | OpenFOAM: The Open Source CFD Toolbox
   \\    /   O peration     | Website:  https://openfoam.org
    \\  /    A nd           | Version:  7
     \\/     M anipulation  |
\*---------------------------------------------------------------------------*/
FoamFile
{
    version     2.0;
    format      ascii;
    class       Cloud<passiveParticle>;
    location    "0.13/lagrangian/reactingCloud1";
    object      positions;
}
// * * * * * * * * * * * * * * * * * * * * * * * * * * * * * * * * * * * * * //

1186
(
(0.460612 0.0938092 0.179506 0.266073) 46153 91625 2
(0.498859 0.250838 0.122387 0.127916) 46103 91528 1
(0.772231 0.113946 0.112891 0.000931688) 46198 91803 1
(0.544661 0.191518 0.0498272 0.213994) 46148 91615 2
(0.20728 0.409772 0.240582 0.142365) 46195 91709 1
(0.233405 0.40665 0.0910855 0.268859) 46186 91691 1
(0.000992036 0.352711 0.147534 0.498764) 46191 91702 2
(0.364271 0.318211 0.100436 0.217082) 46240 91800 1
(0.573094 0.046136 0.171878 0.208892) 46233 91785 2
(0.104083 0.448231 0.304217 0.143469) 46285 91890 1
(0.00982952 0.27454 0.220845 0.494786) 46329 91978 2
(0.486728 0.233473 0.0438468 0.235952) 46278 91875 2
(0.429421 0.0683423 0.285144 0.217093) 46275 91872 2
(0.581096 0.031499 0.207236 0.180169) 46281 91969 2
(0.0111127 0.56782 0.13431 0.286757) 46274 91955 1
(0.561371 0.207477 0.204426 0.026726) 46324 92055 2
(0.0818434 0.0297915 0.455275 0.43309) 46319 92045 2
(0.578196 0.142824 0.210926 0.0680542) 46417 92156 2
(0.490136 0.120416 0.254707 0.134741) 46361 92044 2
(0.505015 0.235267 0.224109 0.035609) 46321 92049 2
(0.233231 0.391511 0.0984361 0.276822) 46412 92143 1
(0.0936443 0.305625 0.169526 0.431205) 46456 92231 2
(0.469981 0.265441 0.0273507 0.237228) 46499 92320 1
(0.0228838 0.0511548 0.441498 0.484463) 46543 92405 2
(0.0399434 0.162647 0.317683 0.479727) 46543 92406 2
(0.46905 0.144773 0.12092 0.265258) 46547 92414 2
(0.193203 0.262467 0.403128 0.141202) 46546 92414 2
(0.354769 0.323233 0.317384 0.00461296) 46550 92507 1
(0.353952 0.323504 0.24597 0.076574) 46540 92400 1
(0.419137 0.22405 0.29013 0.0666835) 46593 92508 2
(0.128344 0.438062 0.0326048 0.40099) 46634 92587 1
(0.709323 0.148075 0.0848064 0.0577963) 46683 92685 1
(0.248462 0.392052 0.0249772 0.334509) 46636 92679 1
(0.631215 0.187141 0.15094 0.0307041) 46633 92673 1
(0.0897799 0.369042 0.449757 0.0914219) 46775 92957 2
(0.547655 0.114741 0.217879 0.119725) 46676 92759 2
(0.201244 0.175808 0.388347 0.234601) 46677 92761 2
(0.766876 0.120288 0.062871 0.0499655) 46721 92849 1
(0.462015 0.147811 0.258299 0.131875) 46720 92847 2
(0.00382671 0.498215 0.421067 0.076891) 46719 92760 1
(0.043299 0.483216 0.0651203 0.408364) 46853 93025 1
(0.0699254 0.401148 0.0872953 0.441631) 46854 93027 2
(0.188495 0.406013 0.256468 0.149024) 46848 93018 1
(0.0505889 0.0390923 0.474647 0.435671) 46896 93114 2
(0.273219 0.0303223 0.33551 0.360949) 46895 93109 2
(0.202164 0.0855907 0.320224 0.392022) 46939 93197 2
(0.0697143 0.193984 0.447804 0.288498) 46938 93283 2
(0.536022 0.192367 0.21944 0.0521706) 46985 93377 2
(0.509186 0.0652601 0.182672 0.242882) 47033 93385 2
(0.324469 0.299037 0.337362 0.0391329) 47033 93388 2
(0.483979 0.258357 0.246328 0.0113368) 47032 93384 1
(0.0923605 0.0226928 0.453784 0.431162) 47069 93460 2
(0.430809 0.303927 0.260027 0.00523693) 47115 93637 2
(0.0422357 0.459969 0.0601066 0.437688) 47158 93635 2
(0.318099 0.137883 0.209728 0.334291) 47163 93645 2
(0.0225156 0.156004 0.488383 0.333097) 47163 93648 2
(0.375102 0.236583 0.312092 0.0762233) 47199 93720 2
(0.265912 0.367254 0.169536 0.197299) 47250 93820 1
(0.2238 0.388747 0.369683 0.0177703) 47255 93830 1
(0.488823 0.0757908 0.255684 0.179703) 47296 93914 2
(0.184485 0.326483 0.0817331 0.407298) 47334 93988 2
(0.195427 0.402736 0.386279 0.0155582) 47341 94089 2
(0.207297 0.407914 0.114016 0.270773) 47385 94177 1
(0.671785 0.16197 0.156756 0.00948862) 47472 94351 2
(0.267728 0.365999 0.0823543 0.283919) 47472 94264 1
(0.384645 0.171155 0.151904 0.292295) 47510 94339 2
(0.00359261 0.485711 0.0109126 0.499784) 3400 6645 1
(0.294987 0.12142 0.355765 0.227827) 3441 6724 2
(0.140542 0.184131 0.435483 0.239843) 3443 6728 2
(0.210048 0.388688 0.174872 0.226393) 3422 6687 1
(0.349516 0.301541 0.0220991 0.326844) 3423 6651 2
(0.191912 0.403139 0.174033 0.230916) 3416 6638 1
(0.289389 0.335804 0.0627776 0.31203) 3392 6629 1
(0.66455 0.167512 0.154471 0.0134668) 3361 6568 1
(0.219691 0.389167 0.087534 0.303607) 3240 6296 1
(0.292249 0.353015 0.17788 0.176857) 3352 6513 1
(0.0395381 0.479488 0.157472 0.323502) 3330 6470 1
(0.646126 0.123668 0.0485126 0.181694) 3326 6461 2
(0.234882 0.381953 0.251007 0.132158) 3302 6417 1
(0.800111 0.0998445 0.0775637 0.0224809) 3287 6388 1
(0.0809116 0.456497 0.0853338 0.377258) 3286 6383 1
(0.582162 0.0336776 0.175095 0.209065) 3262 6337 2
(0.706137 0.126497 0.150884 0.0164817) 3243 6338 2
(0.0487022 0.295361 0.179097 0.47684) 3228 6271 2
(0.00377657 0.360996 0.508139 0.127088) 3201 6256 2
(0.299617 0.0957552 0.254066 0.350562) 3203 6222 2
(0.167823 0.022532 0.417028 0.392618) 3167 6190 2
(0.222679 0.160072 0.228026 0.389223) 3167 6152 2
(0.365349 0.284666 0.261277 0.088708) 3156 6130 1
(0.0250027 0.487427 0.0044986 0.483071) 2820 96683 2
(0.1002 0.228902 0.214266 0.456632) 3122 6063 2
(0.128835 0.434529 0.388626 0.0480093) 3092 6006 1
(0.00101772 0.484228 0.366314 0.14844) 3088 5997 1
(0.567852 0.0391937 0.216172 0.176782) 3064 5953 2
(0.29085 0.344192 0.26996 0.0949985) 3047 5917 1
(0.29247 0.315343 0.0377722 0.354415) 3028 5881 2
(0.678871 0.148442 0.00641324 0.166274) 3026 5876 2
(0.425399 0.119882 0.287784 0.166934) 3020 5867 2
(0.469408 0.265024 0.171496 0.094072) 2990 5807 1
(0.334888 0.169453 0.338204 0.157455) 2964 5794 2
(0.132871 0.0950434 0.334201 0.437885) 2968 5763 2
(0.250834 0.0717367 0.374661 0.302768) 2956 5743 2
(0.554099 0.217352 0.212761 0.0157887) 2921 5671 1
(0.494198 0.19992 0.0528664 0.253016) 2904 5639 2
(0.324029 0.337923 0.206015 0.132034) 2884 5600 1
(0.474303 0.25929 0.152543 0.113864) 2864 5599 1
(0.067191 0.459747 0.233385 0.239677) 2842 5556 1
(0.310282 0.137949 0.20691 0.34486) 2843 5520 2
(0.462223 0.165403 0.0986206 0.273753) 2822 5478 2
(0.178824 0.0715252 0.412475 0.337176) 2780 5436 2
(0.465431 0.0845091 0.273321 0.176739) 2792 5459 2
(0.300276 0.244597 0.358015 0.0971118) 2764 5404 2
(0.217098 0.125483 0.265968 0.391451) 2776 5390 2
(0.262698 0.141582 0.227069 0.368651) 2750 5339 2
(0.450974 0.178062 0.296771 0.0741928) 2735 5348 2
(0.283207 0.15896 0.368332 0.189501) 2711 5301 2
(0.0195326 0.490234 0.170561 0.319673) 2683 5208 1
(0.0885206 0.0492912 0.45574 0.406449) 2683 5210 2
(0.554386 0.218575 0.222807 0.00423201) 2640 5126 2
(0.608051 0.195975 0.0281317 0.167843) 2643 5130 1
(0.527756 0.225767 0.243177 0.00330027) 2623 5129 2
(0.0290674 0.485466 0.0329512 0.452515) 2601 5048 1
(0.260226 0.222039 0.369887 0.147848) 2608 5064 2
(0.509533 0.221013 0.245234 0.0242211) 2585 5019 2
(0.514171 0.105908 0.245856 0.134064) 2561 5008 2
(0.00351151 0.392577 0.0905682 0.513343) 2566 4979 2
(0.851602 0.073906 0.00821039 0.0662821) 2546 4940 1
(0.209237 0.395381 0.374468 0.0209132) 2524 4898 1
(0.0263791 0.48681 0.109045 0.377766) 2511 4873 1
(0.381246 0.306791 0.0775681 0.234394) 2505 4860 1
(0.816179 0.0919106 0.0255259 0.0663847) 2487 4828 1
(0.563624 0.0990188 0.230565 0.106792) 2475 4841 2
(0.0849582 0.0786809 0.459706 0.376654) 2441 4774 2
(0.512206 0.243806 0.00219134 0.241797) 2448 4749 1
(0.808039 0.0933681 0.0097724 0.0888205) 2423 4739 1
(0.128173 0.261357 0.446803 0.163667) 2407 4708 2
(0.291635 0.0545936 0.299589 0.354182) 2408 4683 2
(0.412192 0.290282 0.151703 0.145823) 3780 7386 1
(1.55092e-05 0.499185 0.291712 0.209088) 3820 96633 2
(0.194847 0.39299 0.0341869 0.377976) 3980 7776 1
(7.6976e-06 0.498904 0.445511 0.0555781) 3940 96627 2
(0.159989 0.420588 0.190691 0.228732) 3921 7624 1
(0.684201 0.155477 0.06189 0.0984312) 3960 7737 1
(0.021569 0.441891 0.034275 0.502265) 4002 7779 2
(0.832978 0.0826041 0.0320646 0.0523531) 4042 7857 1
(0.0147129 0.269721 0.223598 0.491968) 4108 7987 2
(0.175142 0.412687 0.103278 0.308893) 4086 7944 1
(0.697371 0.151304 0.0500557 0.101269) 3700 7193 1
(0.301419 0.349952 0.0805526 0.268077) 4044 7864 1
(0.550038 0.210135 0.00228937 0.237538) 4092 7994 1
(0.0885658 0.201463 0.462098 0.247874) 4003 7820 2
(0.183867 0.368266 0.407193 0.0406742) 3921 7624 2
(0.205318 0.397645 0.124736 0.272301) 4006 7788 1
(0.00647068 0.479581 0.0021971 0.511752) 3963 7703 2
(0.58251 0.125704 0.21922 0.072566) 4013 7840 2
(0.187995 0.26418 0.405325 0.1425) 3881 7546 2
(0.378503 0.239687 0.0470927 0.334717) 4014 7803 2
(0.2347 0.379229 0.128866 0.257206) 3781 7348 1
(0.0472469 0.427169 0.47536 0.0502247) 3948 7677 2
(0.639621 0.114789 0.184289 0.061301) 3925 7668 2
(0.238583 0.380816 0.0453048 0.335296) 3929 7638 1
(0.42422 0.287922 0.013406 0.274452) 3957 7693 1
(0.44064 0.187957 0.0812813 0.290122) 3910 7600 2
(0.0941089 0.444491 0.207771 0.253629) 3865 7551 1
(0.178477 0.410977 0.397979 0.0125673) 3721 7232 1
(0.252944 0.373683 0.0855147 0.287859) 3782 7351 1
(0.0885234 0.229634 0.219369 0.462474) 3802 7389 2
(0.125327 0.337996 0.0863399 0.450336) 3846 7475 2
(0.292964 0.0917079 0.261951 0.353378) 3762 7312 2
(0.803629 0.0942637 0.0941178 0.00798913) 3828 7440 1
(0.027341 0.0402417 0.486243 0.446174) 3805 7398 2
(0.708288 0.142735 0.0490996 0.0998775) 3764 7354 1
(0.0194261 0.490472 0.101243 0.388858) 3795 7377 1
(0.163177 0.414134 0.285807 0.136882) 3744 7315 1
(0.0975809 0.451474 0.0394112 0.411534) 3723 7238 1
(0.425418 0.287288 0.0249784 0.262316) 3683 7158 1
(0.0626769 0.444566 0.0108457 0.481911) 3710 7249 1
(0.646892 0.00922806 0.176557 0.167322) 3661 7117 2
(0.317078 0.254498 0.0870236 0.3414) 3705 7201 2
(0.599792 0.0262915 0.173819 0.200098) 3710 7211 2
(0.983354 0.00832287 0.00791167 0.000411639) 3672 7139 1
(0.0372924 0.200181 0.2745 0.488027) 3664 7120 2
(0.00941057 0.312436 0.504591 0.173562) 3602 7038 2
(0.339754 0.321979 0.012602 0.325666) 3540 6918 1
(0.298655 0.0569832 0.350724 0.293637) 3654 7104 2
(0.0487048 0.0106427 0.464625 0.476028) 3645 7083 2
(0.242596 0.0828353 0.378842 0.295727) 3603 7004 2
(0.630304 0.101078 0.185019 0.0835987) 3607 7012 2
(0.698202 0.115195 0.15533 0.0312733) 3586 7007 2
(0.524935 0.23266 0.0767308 0.165675) 3543 6923 1
(0.0318747 0.0195458 0.464408 0.484172) 3543 6885 2
(0.092181 0.266986 0.520656 0.120177) 3517 6873 2
(0.162252 0.355026 0.420068 0.062654) 3525 6852 2
(0.0445229 0.476061 0.0154505 0.463966) 3501 6805 1
(0.123842 0.304212 0.120039 0.451907) 3508 6816 2
(0.101545 0.437327 0.452333 0.00879465) 3481 6763 1
(0.311046 0.0625027 0.344558 0.281894) 3481 6766 2
(0.309633 0.345819 0.144035 0.200513) 3460 96651 2
(0.423233 0.183774 0.292924 0.10007) 4980 9732 2
(4.12881e-05 0.498655 0.253407 0.247897) 4500 96599 2
(0.0347997 0.479229 0.370647 0.115324) 5023 9818 1
(0.387372 0.293976 0.315932 0.00272016) 5126 9984 1
(0.935031 0.0320431 0.0058428 0.0270832) 5002 9736 1
(0.441502 0.0930923 0.27953 0.185875) 5147 10029 2
(0.338907 0.328285 0.266961 0.0658476) 5105 9982 1
(0.491944 0.083733 0.25385 0.170474) 5105 9945 2
(0.445351 0.277061 0.245951 0.0316361) 5108 9949 1
(0.0980607 0.450078 0.408696 0.0431654) 4963 9659 1
(0.482435 0.258604 0.173563 0.0853972) 4988 9709 1
(0.663089 0.167728 0.159309 0.0098736) 4953 9678 1
(0.3931 0.0605986 0.305222 0.24108) 4741 9259 2
(0.0637989 0.466718 0.0553556 0.414127) 4842 9417 1
(0.354092 0.320054 0.23307 0.0927828) 4804 9382 1
(0.184202 0.143536 0.406531 0.265731) 4742 9225 2
(0.465366 0.267513 0.0291408 0.237981) 4786 9309 1
(0.280758 0.358031 0.329416 0.0317946) 4810 9394 1
(0.646673 0.0780404 0.175961 0.0993251) 4764 9268 2
(0.319849 0.336112 0.192767 0.151273) 4661 9103 1
(0.855762 0.07159 0.0578349 0.0148133) 4746 9269 1
(0.00407166 0.484171 0.0703787 0.441379) 4684 9148 1
(0.00170938 0.339994 0.497141 0.161155) 4623 8993 2
(0.625136 0.188392 0.0321953 0.154277) 4706 9155 1
(0.0255177 0.064488 0.418723 0.491272) 4711 9162 2
(0.392679 0.304416 0.130317 0.172588) 4638 9021 1
(0.208021 0.382484 0.351152 0.0583431) 4607 8959 1
(0.329956 0.333792 0.0456166 0.290636) 4481 8713 1
(0.260427 0.370776 0.186103 0.182694) 4522 8796 1
(0.0693322 0.466334 0.31749 0.146843) 4502 8757 1
(0.273674 0.103143 0.366601 0.256582) 4464 8719 2
(0.156925 0.422647 0.213729 0.2067) 4490 8732 1
(0.512867 0.119829 0.247201 0.120102) 4403 8600 2
(0.0183133 0.49274 0.393927 0.0950205) 4422 8599 1
(0.450065 0.139774 0.13589 0.27427) 4446 8646 2
(0.273872 0.0733805 0.362693 0.290055) 4470 8695 2
(0.324499 0.320841 0.338192 0.0164677) 4450 8653 1
(0.157729 0.37762 0.0289921 0.435659) 4406 8567 2
(0.0749918 0.456557 0.202189 0.266262) 4383 8522 1
(0.41443 0.00422621 0.292764 0.288579) 4408 8574 2
(0.185963 0.21263 0.195293 0.406113) 4363 8484 2
(0.608121 0.0882585 0.199951 0.103669) 4348 8493 2
(0.736181 0.129047 0.0458046 0.0889675) 4332 8423 1
(0.425405 0.144785 0.143171 0.286639) 4305 8371 2
(0.104063 0.331101 0.44648 0.118356) 4283 8330 2
(0.826966 0.0868637 0.063688 0.0224819) 4241 8246 1
(0.335999 0.0918821 0.232462 0.339657) 4293 8347 2
(0.321006 0.313209 0.017569 0.348216) 4241 8245 2
(0.5707 0.186074 0.0152852 0.227941) 4252 8267 2
(0.618774 0.062601 0.128284 0.190341) 4224 8213 2
(0.745548 0.0362938 0.091088 0.12707) 4203 8172 2
(0.617285 0.19176 0.0962625 0.0946929) 4188 8143 1
(0.272596 0.151974 0.367614 0.207816) 4161 8128 2
(0.833792 0.0832015 0.0495336 0.0334727) 4172 8114 1
(0.193437 0.398922 0.104627 0.303014) 4168 8103 1
(0.712351 0.144133 0.0228501 0.120666) 4143 8057 1
(0.648308 0.141778 0.0286153 0.181299) 4126 8021 2
(0.503618 0.121732 0.131403 0.243247) 47561 94441 2
(0.304626 0.318779 0.324302 0.0522928) 47556 94519 2
(0.08163 0.43149 0.0280945 0.458786) 47696 94712 2
(0.221931 0.41538 0.351643 0.0110458) 47642 94691 2
(0.623092 0.0932368 0.0953521 0.188319) 47738 94796 2
(0.474491 0.200446 0.262668 0.0623954) 47822 94966 2
(0.375419 0.312796 0.0165356 0.29525) 47915 95149 1
(0.298102 0.171544 0.18582 0.344534) 47914 95147 2
(0.182649 0.41932 0.18926 0.208772) 47868 95143 1
(0.394419 0.150507 0.152449 0.302626) 47958 95236 2
(0.595264 0.21016 0.184154 0.0104222) 48001 95321 1
(0.569917 0.219162 0.116644 0.0942774) 48045 95497 1
(0.0107623 0.0227951 0.493515 0.472928) 48088 95583 2
(0.74463 0.128993 0.011856 0.114521) 48214 95747 1
(0.803184 0.0374223 0.0968442 0.0625498) 48221 95849 2
(0.353462 0.19484 0.128729 0.322969) 48265 95850 2
(0.413282 0.107713 0.286196 0.19281) 48261 95929 2
(0.0163036 0.49185 0.433561 0.0582855) 48486 96294 1
(0.596183 0.1707 0.190529 0.0425884) 48481 96378 2
(0.0234138 0.488557 0.397989 0.0900401) 48527 96386 1
(0.397628 0.0390662 0.262036 0.30127) 5408 10549 2
(0.20823 0.395334 0.278724 0.117712) 5386 10505 1
(0.0410406 0.427803 0.480281 0.0508754) 5363 10461 2
(0.417895 0.281215 0.252184 0.0487059) 5366 10464 1
(0.0174611 0.0776764 0.495065 0.409798) 5327 10426 2
(0.170138 0.155551 0.251473 0.422838) 5327 10386 2
(0.0112354 0.475346 0.0279494 0.485469) 5246 10264 1
(0.676212 0.00658925 0.162045 0.155154) 5162 10096 2
(0.542586 0.228959 0.116921 0.111533) 5166 10067 1
(0.67573 0.162398 0.112906 0.0489664) 43383 86086 1
(0.514627 0.152574 0.242065 0.0907341) 43385 86092 2
(0.180799 0.414021 0.189486 0.215694) 43428 86175 1
(0.281492 0.359342 0.19327 0.165896) 43378 86078 1
(0.169718 0.300792 0.115734 0.413757) 43426 86172 2
(0.594888 0.0412113 0.161636 0.202264) 43335 85990 2
(0.182909 0.334992 0.407702 0.0743973) 43701 86724 2
(0.732223 0.0974593 0.0385895 0.131729) 43793 86905 2
(0.00899011 0.495531 0.446 0.0494791) 43699 86720 1
(0.208567 0.405475 0.219709 0.16625) 43642 86691 1
(0.0907006 0.286074 0.169303 0.453923) 43825 86970 2
(0.292191 0.0540603 0.299944 0.353805) 43642 86604 2
(0.0182769 0.491419 0.34688 0.143424) 43596 86514 1
(0.62266 0.139715 0.0519666 0.185658) 43921 87161 2
(0.454371 0.273151 0.114423 0.158054) 43732 86786 1
(0.482321 0.259177 0.0792412 0.17926) 43594 86510 1
(0.190615 0.00660563 0.404606 0.398174) 43591 86504 2
(0.841464 0.0467679 0.0322906 0.0794773) 43686 86692 2
(0.178179 0.226969 0.187235 0.407617) 43959 87237 2
(0.147057 0.385434 0.0418714 0.425637) 43640 86600 2
(0.231535 0.401813 0.227392 0.139261) 43684 86687 1
(0.0484452 0.227994 0.267165 0.456396) 43638 86595 2
(0.02852 0.475559 0.0114486 0.484472) 43871 87062 2
(0.263545 0.265319 0.132352 0.338784) 43636 86591 2
(0.168017 0.414422 0.119993 0.297568) 43589 86498 1
(0.446733 0.277473 0.0428856 0.232909) 43686 86692 1
(0.314705 0.0187823 0.341333 0.32518) 43684 86775 2
(0.634789 0.191371 0.0978039 0.0760356) 43683 86685 1
(0.292563 0.304157 0.339744 0.0635359) 43775 86957 2
(0.545811 0.244818 0.148592 0.0607797) 43681 86681 1
(0.716782 0.0981609 0.0515141 0.133543) 43682 86683 2
(0.004388 0.325327 0.173917 0.496368) 43683 86686 2
(0.545618 0.233027 0.0588169 0.162538) 43726 86771 1
(0.0545906 0.222322 0.433835 0.289252) 43678 86763 2
(0.00802943 0.49635 0.404014 0.0916062) 43680 86682 1
(0.161474 0.000860783 0.419109 0.418556) 43680 86767 2
(0.566264 0.0688073 0.154959 0.209969) 43725 86769 2
(0.634792 0.185092 0.17322 0.00689564) 44003 87325 1
(0.76718 0.120707 0.0289518 0.0831607) 43724 86767 1
(0.405796 0.150868 0.22263 0.220707) 43720 86760 1
(0.0291796 0.413236 0.45053 0.107054) 43726 86859 2
(0.033212 0.48418 0.221215 0.261393) 43821 86962 1
(0.440315 0.178909 0.264979 0.115797) 43770 86947 2
(0.391666 0.304475 0.298457 0.00540225) 43771 86949 1
(0.290443 0.355611 0.0496382 0.304307) 44049 87420 1
(0.0126238 0.494286 0.301965 0.191125) 43769 86858 1
(0.0525362 0.323414 0.472863 0.151186) 43812 86946 2
(0.385927 0.122675 0.184799 0.306598) 43814 86948 2
(0.396792 0.273202 0.288638 0.0413679) 43907 87221 2
(0.783922 0.0332579 0.104187 0.0786336) 43812 87031 2
(0.362368 0.319036 0.0111999 0.307396) 43814 86948 1
(0.379249 0.310259 0.0631243 0.247368) 43861 87042 1
(0.210911 0.394889 0.289001 0.105199) 43952 87226 1
(0.27528 0.363182 0.173473 0.188064) 43811 86942 1
(0.902432 0.048865 0.00329203 0.0454107) 43907 87133 1
(0.730316 0.141054 0.0615009 0.067129) 43858 87035 1
(0.242673 0.00136467 0.376909 0.379053) 43854 87028 2
(0.350361 0.215416 0.109968 0.324256) 43856 87032 2
(0.433728 0.282857 0.0756476 0.207767) 43856 87032 1
(0.461987 0.269903 0.190476 0.077634) 43855 87030 1
(0.544753 0.160121 0.217412 0.0777141) 43904 87215 2
(0.730791 0.125341 0.13415 0.00971732) 43902 87126 2
(0.361873 0.188714 0.318406 0.131007) 43948 87218 2
(0.11254 0.444962 0.404349 0.0381494) 43996 87312 1
(0.150901 0.289086 0.386407 0.173606) 43899 87205 2
(0.199538 0.277551 0.170869 0.352041) 43942 87203 2
(0.771316 0.119652 0.0632961 0.0457362) 43946 87299 1
(0.314732 0.244782 0.160622 0.279864) 43985 87289 2
(0.378727 0.317673 0.0587993 0.2448) 43989 87297 1
(0.751439 0.124459 0.00803585 0.116066) 43990 87300 1
(0.317902 0.341431 0.155728 0.184939) 43988 87298 1
(0.0337404 0.734143 0.118692 0.113425) 44028 87376 1
(0.0175186 0.0839469 0.407576 0.490959) 44084 87488 2
(0.256127 0.400081 0.0701781 0.273614) 43990 87387 1
(0.379387 0.315545 0.0161298 0.288938) 44036 87391 2
(0.257483 0.235305 0.14702 0.360192) 44083 87485 2
(1.29649e-09 0.16043 0.83957 7.60713e-10) 43984 141390 1
(0.386794 0.153039 0.306062 0.154105) 44031 87384 2
(0.129999 0.142735 0.434569 0.292696) 44033 87388 2
(0.671024 0.16464 0.043337 0.120999) 44032 87384 1
(0.0909162 0.063799 0.447387 0.397898) 44032 87471 2
(0.341635 0.342895 0.233339 0.0821308) 44126 87571 1
(0.0332044 0.489044 0.395027 0.0827249) 44081 87569 1
(0.280607 0.3651 0.0700898 0.284203) 44124 87567 1
(0.113289 0.0838309 0.433887 0.368994) 44076 87559 2
(0.157531 0.254985 0.200817 0.386666) 44119 87557 2
(0.0925731 0.489132 0.399614 0.0186812) 44123 87565 1
(0.750496 0.139663 0.105989 0.00385188) 44120 87559 1
(0.309545 0.207547 0.344749 0.138159) 44171 87664 2
(0.552435 0.224591 0.0553781 0.167596) 44216 87752 1
(0.505415 0.247715 0.221741 0.0251279) 44305 87930 1
(0.565418 0.21972 0.197292 0.0175705) 44209 87825 1
(0.149986 0.152703 0.424617 0.272694) 44252 87826 2
(0.016568 0.101138 0.48868 0.393613) 44306 88019 2
(0.399908 0.30993 0.220291 0.0698706) 44304 87927 1
(0.0834162 0.0151774 0.456951 0.444455) 44253 87913 2
(0.456239 0.272192 0.136707 0.134863) 44301 87924 1
(0.298772 0.259685 0.349407 0.0921362) 44296 87914 2
(0.390253 0.306273 0.0280782 0.275396) 44299 87920 1
(0.747596 0.1288 0.0963184 0.0272854) 44298 88003 1
(0.0149742 0.457177 0.0628486 0.465) 44345 88009 2
(0.0471686 0.507885 0.351094 0.0938529) 44343 88005 1
(0.285296 0.358175 0.316498 0.0400315) 44394 88108 1
(6.21835e-08 0.915282 0.0847177 6.48681e-08) 44336 141742 1
(0.155222 0.360434 0.0928194 0.391525) 44342 88003 2
(0.273375 0.15592 0.362643 0.208063) 44343 88008 2
(0.249601 0.375955 0.193668 0.180776) 44345 88010 1
(0.167927 0.416887 0.0316126 0.383573) 44340 88002 1
(0.332214 0.334035 0.0414871 0.292264) 44343 88006 1
(0.817913 0.0932219 0.08634 0.00252506) 44391 88189 2
(0.110544 0.0546622 0.390348 0.444446) 44435 88190 2
(3.73489e-09 7.11855e-09 0.97157 0.0284299) 44380 190346 2
(0.424971 0.173661 0.125561 0.275807) 44432 88183 2
(0.742622 0.132217 0.0760866 0.0490751) 44436 88191 1
(0.302392 0.379651 0.294676 0.0232813) 44430 88179 1
(0.312356 0.238071 0.106247 0.343326) 44435 88190 2
(0.104204 0.209012 0.239509 0.447275) 44430 88180 2
(0.358727 0.311427 0.320498 0.00934829) 44427 88176 2
(0.066938 0.467523 0.308213 0.157325) 44431 88182 1
(0.137531 0.43269 0.333263 0.0965154) 44577 88561 1
(0.364274 0.319247 0.290375 0.0261031) 44433 88273 1
(0.428094 0.299385 0.122659 0.149862) 44431 88269 1
(0.0700545 0.457586 0.0352033 0.437156) 44477 88273 2
(0.262578 0.00933523 0.368585 0.359502) 44477 88276 2
(0.0666907 0.0689229 0.466072 0.398314) 44472 88266 2
(0.141817 0.333222 0.428277 0.0966838) 44475 88272 2
(0.160647 0.420121 0.150401 0.26883) 44469 88258 1
(0.19817 0.417209 0.221868 0.162754) 44474 88355 1
(0.191144 0.332276 0.403402 0.073178) 44566 88454 2
(0.14936 0.426417 0.42251 0.00171247) 44569 88458 1
(0.559218 0.220622 0.18353 0.0366303) 44567 88456 1
(0.229276 0.387651 0.0358155 0.347257) 44519 88360 1
(0.796417 0.091673 0.101501 0.0104095) 44519 88360 2
(0.00750662 0.497074 0.0123321 0.483087) 44565 88449 1
(0.205953 0.423544 0.14987 0.220632) 44517 88441 1
(0.194743 0.426534 0.342632 0.036091) 44565 88449 1
(0.0603816 0.0971852 0.46984 0.372593) 44743 88808 2
(0.0133162 0.493783 0.16829 0.324611) 44656 88632 1
(0.141065 0.430061 0.16471 0.264163) 44611 88542 1
(0.315735 0.257066 0.102638 0.32456) 44608 88535 2
(0.214722 0.395945 0.221104 0.168229) 44839 88997 1
(0.018615 0.429213 0.489068 0.0631033) 44653 88628 2
(0.466232 0.169826 0.0975458 0.266396) 44601 88522 2
(0.276522 0.38265 0.0797564 0.261071) 44652 88711 1
(0.102267 0.44889 0.446028 0.00281493) 44746 88814 1
(0.887743 0.0405646 0.0562391 0.015453) 44653 88628 2
(0.267841 0.220356 0.328079 0.183723) 44602 88611 2
(0.18875 0.113174 0.292704 0.405373) 44699 88718 2
(0.296595 0.0542375 0.30222 0.346947) 44651 88621 2
(0.57172 0.157722 0.0671239 0.203435) 44696 88711 2
(0.639119 0.180839 0.0189926 0.161049) 44744 88810 1
(0.352019 0.330806 0.290373 0.0268019) 44602 88611 1
(0.0836871 0.370077 0.105942 0.440294) 44787 88893 2
(0.856558 0.0221661 0.0494907 0.0717855) 44696 88712 2
(0.0199983 0.490772 0.252628 0.236602) 44697 88714 1
(0.555393 0.206997 0.20429 0.0333207) 44694 88795 2
(0.362065 0.297993 0.0220502 0.317892) 44739 88798 2
(0.673684 0.16324 0.119158 0.0439187) 44742 88806 1
(0.122016 0.440225 0.435891 0.00186816) 44832 88984 1
(0.537154 0.245974 0.101161 0.115711) 44736 88791 1
(0.276167 0.283772 0.346247 0.093814) 44786 88979 2
(0.12373 0.438534 0.144066 0.293669) 44738 88796 1
(0.55731 0.00982482 0.22006 0.212805) 44735 88877 2
(0.00829886 0.161514 0.344429 0.485759) 44829 88977 2
(0.12733 0.37565 0.435506 0.0615144) 44973 89268 2
(0.0537253 0.474151 0.112545 0.359579) 44785 88892 1
(0.246678 0.208228 0.16865 0.376444) 44830 88980 2
(0.237722 0.01043 0.380028 0.37182) 44781 88969 2
(0.162669 0.230507 0.200745 0.406079) 44874 89067 2
(0.537649 0.231537 0.106135 0.12468) 44874 89070 1
(0.395543 0.109757 0.24735 0.24735) 44864 89048 1
(0.210782 0.417023 0.0927197 0.279476) 44872 89151 1
(0.143854 0.434667 0.161226 0.260252) 45053 89425 1
(0.114128 0.444985 0.414267 0.0266204) 44871 89149 1
(0.496153 0.239654 0.0134393 0.250753) 44872 89064 2
(0.344641 0.355688 0.268206 0.0314645) 44914 89147 1
(0.729791 0.0864685 0.131383 0.0523583) 45052 89511 2
(0.165175 0.418531 0.0487089 0.367584) 44910 89140 1
(0.485508 0.305194 0.0597413 0.149556) 44910 89227 1
(0.246709 0.388904 0.0601007 0.304287) 45053 89513 1
(0.0983488 0.474234 0.226403 0.201014) 44957 89321 1
(0.375021 0.290344 0.31145 0.0231848) 44958 89238 2
(0.212655 0.0699713 0.389473 0.3279) 44961 89329 2
(0.0236629 0.488552 0.11438 0.373406) 45142 89606 1
(0.965877 0.000982636 0.0169858 0.0161543) 45005 89417 2
(0.138079 0.0252732 0.428948 0.407701) 45003 89413 2
(0.508248 0.170817 0.236407 0.0845278) 45050 89507 2
(0.788887 0.0292792 0.105155 0.0766794) 45190 89702 2
(0.00880699 0.397898 0.122445 0.47085) 45093 89505 2
(0.20196 0.257733 0.398258 0.142049) 45089 89500 2
(0.49863 0.25096 0.197599 0.0528119) 45138 89598 1
(0.768773 0.0397253 0.0780741 0.113427) 45138 89595 2
(0.206198 0.399883 0.0218027 0.372116) 45137 89593 2
(0.751908 0.124124 0.0879315 0.0360361) 45184 89690 1
(0.566898 0.0481497 0.169335 0.215617) 45134 89588 2
(0.227013 0.393774 0.253594 0.125619) 45138 89683 1
(0.425711 0.210748 0.0773358 0.286205) 45321 89962 2
(0.488733 0.0849604 0.255826 0.170481) 45178 89678 2
(0.395195 0.316199 0.145032 0.143574) 45179 89677 1
(0.192213 0.404148 0.228414 0.175224) 45134 89588 1
(0.0535367 0.486049 0.273242 0.187173) 45272 89863 1
(0.435611 0.285354 0.0677615 0.211273) 45272 89863 1
(0.0295159 0.485933 0.273202 0.21135) 45180 89680 1
(0.0685203 0.473524 0.00188861 0.456067) 45324 90055 1
(0.599769 0.203509 0.11177 0.0849522) 45273 89953 1
(0.512708 0.152474 0.243367 0.0914512) 45271 89864 2
(0.719156 0.0323313 0.108171 0.140342) 45261 89842 2
(0.205187 0.388751 0.375673 0.030389) 45270 89947 2
(0.297279 0.352284 0.0554035 0.295034) 45267 89856 1
(0.645685 0.180139 0.165785 0.00839074) 45269 89945 2
(0.573963 0.0306408 0.207776 0.18762) 45262 89931 2
(0.37616 0.322596 0.130807 0.170436) 45270 89947 1
(0.332991 0.351661 0.100789 0.214559) 45268 89943 1
(0.45325 0.0698163 0.20368 0.273253) 45313 89946 2
(0.208107 0.346916 0.0504023 0.394575) 45358 90036 2
(0.370946 0.00646277 0.314457 0.308134) 45356 90034 2
(0.75716 0.121557 0.0706256 0.050657) 45354 90030 1
(0.229299 0.395732 0.159222 0.215746) 45404 90215 1
(0.463924 0.276441 0.180286 0.0793484) 45354 90115 1
(0.271376 0.372963 0.249677 0.105984) 45494 90307 1
(0.703452 0.154712 0.08992 0.0519163) 45401 90121 1
(0.0167912 0.492058 0.179371 0.31178) 45449 90218 1
(0.27985 0.343505 0.347197 0.0294476) 45493 90393 2
(0.0390847 0.480286 0.0256566 0.454972) 45493 90306 1
(0.56774 0.0404307 0.214301 0.177528) 45492 90391 2
(0.231635 0.177934 0.229251 0.36118) 45483 90285 2
(0.0684886 0.148014 0.317897 0.4656) 45488 90296 2
(0.0883664 0.403286 0.430657 0.0776901) 45489 90385 2
(0.0335196 0.13408 0.482901 0.3495) 45534 90390 2
(0.484918 0.205883 0.0519013 0.257297) 45534 90388 2
(0.303342 0.148325 0.200283 0.34805) 45531 90382 2
(0.729366 0.0335995 0.101806 0.135228) 45530 90380 2
(0.281326 0.359533 0.206615 0.152527) 45506 90332 1
(0.499929 0.250357 0.128728 0.120985) 45529 90380 1
(0.304721 0.0225568 0.325143 0.347579) 45573 90466 2
(0.0443297 0.477985 0.380497 0.0971885) 45579 90480 1
(0.0404838 0.480995 0.0202165 0.458304) 45621 90564 1
(0.308341 0.346393 0.107461 0.237805) 45619 90560 1
(0.502131 0.229724 0.248489 0.0196561) 45619 90560 2
(0.843579 0.0658534 0.0132785 0.0772889) 45617 90554 2
(0.393516 0.115913 0.202274 0.288297) 45659 90637 2
(0.164853 0.385204 0.0333238 0.416619) 45663 90646 2
(0.0955877 0.401663 0.451168 0.0515805) 45710 90742 2
(0.560981 0.147976 0.0807961 0.210247) 45709 90737 2
(0.288063 0.24784 0.108704 0.355392) 45710 90740 2
(0.0434072 0.125889 0.352512 0.478192) 45757 90834 2
(0.752803 0.0571009 0.119762 0.0703345) 45752 90911 2
(0.584117 0.208235 0.0918017 0.115846) 45747 90816 1
(0.00563506 0.497814 0.260294 0.236258) 45751 90822 1
(0.0265619 0.487157 0.419615 0.0666667) 45752 90826 1
(0.0490419 0.526527 0.0545183 0.369913) 45748 90903 1
(0.872784 0.0438106 0.0220524 0.0613526) 45799 90917 2
(0.294124 0.258894 0.0946671 0.352316) 45799 90918 2
(0.532923 0.127689 0.232867 0.106521) 45799 90920 2
(0.367606 0.324026 0.134826 0.173542) 45800 91007 1
(0.297893 0.369036 0.115663 0.217408) 45796 90999 1
(0.965072 0.00520861 0.0123091 0.0174102) 45845 91010 2
(0.0866865 0.510069 0.195912 0.207333) 45834 91075 1
(0.059592 0.470112 0.196608 0.273689) 45884 91088 1
(0.033984 0.483339 0.34063 0.142047) 45882 91086 1
(0.111219 0.449701 0.200733 0.238347) 45771 90949 1
(0.236308 0.382563 0.0521888 0.328939) 45971 91264 1
(0.423026 0.288829 0.113533 0.174612) 45973 91268 1
(0.0810218 0.459717 0.248382 0.210879) 45976 91274 1
(0.274524 0.258557 0.122301 0.344618) 46060 91439 2
(0.344749 0.269449 0.0585292 0.327273) 46066 91452 2
(0.353336 0.241093 0.0827845 0.322787) 46058 91436 2
(0.217895 0.391303 0.166128 0.224674) 46068 91458 1
(0.154108 0.451277 0.0021975 0.392417) 46061 91529 1
(0.0127568 0.105691 0.490395 0.391158) 46067 91541 2
(0.115448 0.445257 0.144458 0.294837) 31867 63075 1
(0.0472424 0.476377 0.000372135 0.476008) 37394 74109 1
(0.633159 0.18393 0.140732 0.0421784) 42611 84542 1
(0.00986054 0.49808 0.361184 0.130876) 41817 83041 1
(0.215751 0.392978 0.262972 0.128299) 43100 85520 1
(0.702545 0.0175054 0.148329 0.13162) 41897 83201 2
(0.171559 0.424436 0.211883 0.192121) 41839 82997 1
(0.0846048 0.45866 0.304091 0.152643) 41944 83208 1
(0.56143 0.219591 0.0761328 0.142846) 41881 83082 1
(0.0297554 0.424255 0.0622081 0.483781) 41790 82900 2