/*--------------------------------*- C++ -*----------------------------------*\
  =========                 |
  \\      /  F ield         | OpenFOAM: The Open Source CFD Toolbox
   \\    /   O peration     | Website:  https://openfoam.org
    \\  /    A nd           | Version:  7
     \\/     M anipulation  |
\*---------------------------------------------------------------------------*/
FoamFile
{
    version     2.0;
    format      ascii;
    class       scalarField;
    location    "0.13/lagrangian/reactingCloud1";
    object      tTurb;
}
// * * * * * * * * * * * * * * * * * * * * * * * * * * * * * * * * * * * * * //


1186
(
0.000858
0.006313
0.0009775
0.006289
0.00251919
0.006169
0.006193
0.00061035
0.006121
0.000551
0.00094955
0.006073
0.006049
0.00025035
0.006001
0.006025
0.005953
0.001029
0.005929
0.0049833
0.000857
0.005905
0.005809
0.005785
0.005761
0.00159069
0.0019275
0.00124935
0.005713
0.00060505
0.000617
0.0009172
0.00210155
0.004267
0.00214634
0.005617
0.000521
0.005593
0.005569
0.005545
0.005473
0.00125555
0.005377
0.005425
0.005401
0.005353
0.005305
0.005329
0.00023385
0.00153514
0.00156505
0.00520862
0.005161
0.005137
0.00136064
0.00118106
0.005065
0.005113
0.00063455
0.00136379
0.004969
0.0014775
0.001452
0.00116309
0.00109702
0.004849
5.52e-05
0.000212747
0.001609
0.001585
0.001561
0.001537
0.001513
5.7e-05
0.00033955
0.001441
0.001417
0.001393
0.001369
0.001345
0.001321
0.001297
0.001273
0.001249
0.001225
0.001201
0.001177
0.001153
0.001129
0.00050455
0.001081
0.001057
0.001033
0.001009
0.000985
0.000961
0.000960625
0.00036105
0.000913
0.000889
0.000865
0.000841
0.000817
0.000793
0.000769
0.000745
0.000721
0.000697
0.000673
7.305e-05
0.000625
0.000601
0.000577
0.000553
0.000529
0.000505
0.000481
0.000457
0.000433
0.000409
0.000385
0.000361
0.000337
0.000313
0.000289
0.000265
0.000241
0.000217
0.000193
0.000169
0.000145
0.000121
9.7e-05
7.3e-05
4.9e-05
2.5e-05
1e-06
0.00065535
5.28469e-05
0.00038935
0.000673347
4.485e-05
0.0005617
0.0010302
0.0009052
0.002785
0.002809
0.000757
0.002761
0.002713
0.00131674
0.0015802
0.002665
0.002641
0.002569
0.00119969
0.002545
0.00124455
0.002497
0.002521
0.002473
0.002449
0.002401
0.002425
0.00032255
0.00145605
0.0003772
0.002329
0.000931321
0.002281
0.002257
0.002233
0.002185
0.002209
0.002161
0.002113
0.002065
0.000704547
0.002089
0.002041
0.001969
0.001993
0.000601027
0.0007252
0.001921
0.001945
0.001897
0.001873
0.001849
0.001801
0.00114755
0.001705
0.001729
0.000330592
0.001681
2.20508e-06
0.00108105
0.00045
0.000163817
6.18453e-05
0.0002105
0.0025692
0.0001185
2.535e-05
0.000285727
0.0002295
0.004033
8.6e-05
0.003913
0.003793
0.00023805
0.00153014
0.003865
0.000126
0.003769
0.003697
0.002759
0.00078655
0.003721
0.003745
0.00166625
0.003673
0.003553
0.003433
0.003529
0.00145185
0.000241
8.6e-05
0.003457
0.003337
0.000954186
0.0016012
0.003361
0.003289
0.003265
0.00328863
0.00340863
0.003241
6.97031e-05
0.003169
0.003073
0.003193
0.003217
0.00142205
0.003001
0.00026955
0.002953
0.003097
0.003121
0.002929
0.00093155
0.002833
0.002881
0.00300063
0.002857
0.00126584
0.004825
0.000738237
0.004729
0.00119171
0.000701503
0.000165
0.00145477
0.00089504
0.0008447
0.00105257
0.000804
0.00077305
0.004393
0.000896
0.000871122
0.004417
0.000799789
0.004297
5.52e-05
0.000399
0.000700528
0.000465128
0.000382306
0.000324291
0.000303823
0.000347
0.000263178
0.000222565
0.00354885
0.00212285
0.0024585
0.00382805
0.0022615
0.00064255
0.00240655
0.00405455
0.00521355
0.00353055
0.0028985
0.00229185
0.00269085
0.00127055
0.0041357
0.00126605
0.00297135
0.0021605
0.0017715
0.00302062
0.0037532
0.0008467
0.00095705
0.00413764
0.00813501
0.00025105
0.0002392
0.002887
0.00273114
0.00401709
9.485e-05
0.0032897
0.003944
0.00403308
0.003832
0.003805
0.0005107
0.00131255
0.00314226
0.00311619
0.00261656
0.00376385
0.00299105
0.0031025
0.0052065
0.0008322
0.00189955
0.004209
0.00202735
0.00346719
0.0037486
0.00151855
0.00109405
0.0052445
0.0026912
0.0005947
0.007357
0.00271903
0.002685
0.00206154
0.0013832
0.00458335
0.00320205
0.0030212
0.00047185
0.0012727
0.0003282
0.00454361
0.00301159
0.0013182
0.002303
0.000395242
0.00318255
0.00427135
0.00094835
0.000998
0.002485
0.0009847
0.0021682
0.00155833
0.00277706
0.0020892
0.00070835
0.003345
0.0020152
0.0007927
0.00220106
0.00259905
0.00089835
0.00037655
0.0017495
0.002961
0.002249
0.00261855
0.00196535
0.002841
0.00311285
0.00146576
0.0011787
0.002745
0.00154635
0.002721
0.00349655
0.000622701
0.002673
0.00156822
0.0016245
0.00429319
0.00331135
0.00147185
0.0030152
0.00165822
0.0006595
0.0014057
0.00540755
0.0006132
0.0011452
0.00311425
0.00307135
0.00460615
0.0025368
0.004529
0.000363
0.0009577
0.004433
0.002313
0.009385
0.00365835
0.0023715
0.00203585
0.0014097
0.00168855
0.00356235
0.0023885
0.005175
0.0006597
0.00242285
0.00268735
0.00212405
0.00341835
0.00512335
0.00044385
0.009097
0.0034035
0.00132205
0.00144725
0.009049
0.002558
0.001905
0.00245305
0.00043305
0.00523374
0.00140355
0.00244735
0.00049035
0.001737
0.00237535
0.00118955
0.00050505
0.008809
0.00279605
0.000330167
0.00876062
0.0029122
0.00476285
0.002193
0.00273361
0.000859
0.00200685
0.00195105
0.008497
0.00269835
0.000767237
0.000656501
0.003056
0.000632228
0.0024077
0.00415955
0.00733885
0.00232455
0.00250635
0.00182305
0.00050105
0.0007622
0.0011565
0.00172735
0.00219201
0.00096005
0.00100785
0.008041
0.0024802
0.0014887
0.00010255
0.00143705
0.000801
0.00248855
0.00306405
0.00406312
0.00436632
0.0027987
0.00173285
0.00096435
0.00205035
0.00296955
0.00214905
1.085e-05
0.007657
0.0011667
0.000537
0.00348755
0.007633
0.0016542
0.003998
0.00183435
0.00117971
0.00107935
0.007513
0.0010047
0.007489
0.0014847
0.002425
0.00208265
0.00115635
0.00052955
0.00156835
0.007273
0.002201
0.00353481
0.0007127
0.00018255
5.7e-05
0.007201
0.00083975
0.007177
0.007129
0.001147
0.003374
0.0055612
0.00123435
0.00533178
0.006961
0.006985
0.000391043
0.00297735
0.002963
0.00026135
0.00035935
0.006793
0.006817
0.00099435
0.0051532
0.00025485
0.00249905
0.0007127
0.00086155
0.00026335
1.235e-05
0.006625
0.00245555
0.006601
0.00016505
0.006505
0.001433
0.0013947
0.0026235
0.00092655
0.006361
0.00187405
0.00388407
0.00142901
0.0157317
0.0109925
0.0067327
0.0074192
0.00862835
0.00872555
0.00233885
0.0083522
0.00388905
0.00604455
0.0009382
0.00492055
9.355e-05
0.0051932
0.00605305
0.00676635
0.00022455
0.0016355
0.00294985
0.0027407
0.0028857
0.0074857
0.0058212
0.0047738
0.0010727
0.00515655
0.0050742
0.00277869
0.00203664
0.00042435
0.0012295
0.000834714
0.00097855
0.0031525
0.002344
0.00124655
0.00063585
0.000125501
0.0033795
0.00216885
0.0066982
0.00168605
0.00468332
0.0060237
0.0045992
0.0017285
0.00600885
0.000945
0.0012172
0.00210835
0.00510885
0.00053635
0.0006937
0.00332619
0.0052602
0.00603335
6.85691e-05
0.00555185
0.0049407
0.00203205
0.00164955
0.00362655
0.00594261
0.00405605
0.00150771
0.0050847
0.0039233
0.00340685
0.00213885
0.0020282
0.0038815
0.0054715
0.0046207
0.00081335
0.00498855
0.0043482
0.00371335
0.002427
0.00286755
0.00248269
0.00144659
0.00284835
0.00488235
0.00463171
0.00374805
0.0023488
0.003819
0.00543135
0.00268205
0.00527705
0.00117485
0.0011175
0.0024362
0.00372855
0.0047967
0.0012877
0.0053252
0.0019642
0.00269355
0.00517985
0.00648785
0.00523571
0.0040092
0.0008872
0.0031707
0.00047255
0.00317301
0.00236505
0.00356135
0.00151
0.00271505
0.00264605
0.00522818
0.0004702
0.00470775
0.00300735
0.001728
0.00409756
0.0026712
0.0045185
0.00217035
0.0015457
0.0026065
0.00380305
0.00022355
0.0049027
0.00432005
0.00054205
0.00478635
0.0019967
0.00314673
0.00530135
0.00030555
0.0015802
0.00529735
0.00249305
0.0023697
0.00245855
0.0023605
0.00138371
0.0058087
0.00390985
0.00106685
0.00252871
0.000919
0.0002907
0.0005295
0.0048837
0.00371555
0.00195412
0.00297535
0.0051615
0.0051175
0.00031405
0.0007615
0.00140785
0.00408655
0.000182
0.0020715
0.0020847
0.00417785
0.0004357
0.00122255
0.00206085
0.00220005
0.0056612
0.00173135
0.00018155
0.00038105
0.00224435
0.00249
0.0038555
0.00430905
0.00061835
0.0039312
0.00182522
0.00175555
0.00436635
0.0017425
0.002379
0.00435803
0.000784
0.00605905
0.00576309
0.00300785
0.00197705
0.00562205
0.0039765
0.00333435
0.00551668
0.00435005
0.00358062
0.00291755
0.00450835
0.00323585
0.0003252
0.00460555
0.0028382
0.0037867
0.000645296
0.00518085
0.0023525
0.00096005
0.00133055
0.0031747
0.00021952
0.00224985
0.00331705
0.00044135
0.000972
0.00337305
0.00189435
0.0044552
0.0029827
0.00134326
0.00050935
4.3e-05
0.00206355
0.0029552
0.00318025
0.00019405
0.00533
0.004558
0.00245385
0.00268572
0.0025653
0.00555785
0.00594177
0.00121155
0.00083935
0.00266155
0.00030985
0.00217885
0.00550705
0.00077135
0.00310029
0.000105994
0.00435655
0.0023587
0.00484055
0.00099385
0.00111535
0.000333703
0.0011292
0.00202613
0.000646702
0.00085935
0.00024155
0.0034807
0.00023735
0.0017801
0.00415455
0.0033127
0.00299935
0.00357109
0.0009015
0.00461105
0.00155905
0.00444367
0.00203485
0.00456517
0.00225535
0.00539685
0.00069605
5.32127e-05
0.0009662
0.00493017
0.0033342
0.0021912
0.00190878
0.00355159
0.0056985
0.0017947
0.0052975
0.00051585
0.0001072
0.0013205
0.00526985
6.735e-05
0.00294755
0.00331805
0.00227635
0.001052
0.000540653
0.0011107
0.00309634
0.00306185
0.00298471
0.00274572
0.00379955
0.001136
0.00134705
0.00265205
0.0104058
0.0093297
0.0101433
0.00237555
0.0102848
0.0115048
0.0047087
0.012599
0.003082
0.011543
0.0114692
0.0106088
0.00413149
0.00028005
0.00182601
0.0089827
0.00931985
0.00372985
0.00109102
0.0081402
0.0070135
0.0081027
0.00238035
0.00045755
0.0106977
0.0069947
0.000890348
0.000152809
0.00148735
0.0066397
0.011092
0.00492118
0.0082592
0.0056097
0.0030625
0.0076097
0.003082
0.00897885
0.0102532
0.002308
0.0109713
0.000931576
0.00202085
0.00922105
0.007466
0.0095967
0.00891205
0.00783235
0.000165701
0.00170107
0.00379855
0.00507635
0.00835935
0.0052052
0.00537385
0.0103523
0.0100777
0.0031685
0.009166
0.000319978
0.00602105
0.0045312
0.00757805
0.00149421
0.00641805
0.000497483
0.00739935
0.00864271
0.00964712
0.00655
0.0077915
0.00614855
0.010279
0.0070742
0.00528685
0.0089165
0.00820601
0.00460805
0.009902
0.00943
0.00076485
0.0056002
0.005993
0.00497364
0.00909985
0.0099307
0.00644905
0.00881701
0.0038437
0.0050827
0.00437235
0.0005712
0.00608869
0.0065447
0.00901585
0.00750885
0.00977257
0.00662668
0.0020075
0.00642185
0.008565
0.000285984
0.00707655
0.00142205
0.00762299
0.00209155
0.00646635
0.0101425
0.00217985
0.00852872
0.0079247
0.00694535
0.00815221
0.00783685
0.00506635
0.0036712
0.0067685
0.0070382
0.0053527
0.0039905
0.00520635
0.000761
0.007978
0.0082517
0.00895064
0.000419104
0.00783109
0.002124
0.0086805
0.00594499
0.00177309
0.0086912
0.00533485
0.0054157
0.0062755
0.00791185
0.007066
0.0036847
0.0060712
0.0021412
0.00692189
0.00722105
0.00875185
0.00149655
0.0084782
0.00189905
0.0065462
0.00314801
0.0052962
0.005593
0.00121714
0.00901562
0.00328455
0.0017242
0.00243561
0.00086885
0.00672105
0.00193635
0.00194368
0.00166571
0.0002627
0.0009735
0.000763
0.0047157
0.00896085
0.00691755
0.00838885
0.000486283
0.00367855
0.0028802
0.0035157
0.00434214
0.00730135
0.00663355
0.00840371
0.00658055
0.00137035
0.00876785
0.00572355
0.00749185
0.0053127
0.00409705
0.0072682
0.0086832
0.00833721
0.00715055
0.00113185
0.0020357
0.00727635
0.00863785
0.00137835
0.00420699
0.0027057
0.00159585
0.0063275
0.00732822
0.0077125
0.00718285
0.0046147
0.00572005
0.00465821
0.00506955
0.001971
0.00800405
0.0049332
0.00327308
0.00259055
0.0082805
0.001345
0.0075477
0.00602685
7.735e-05
0.0082815
0.00195821
0.006566
0.00705056
0.00315885
0.00742535
0.00439905
0.0015717
0.00444635
0.0061667
0.00304555
0.00448985
0.00151055
0.00321635
0.00461955
0.00482335
0.00267321
0.0024565
0.0074447
0.0054887
0.00210046
0.007778
0.0075045
0.00609155
0.00671
0.000229645
0.0032012
0.00466905
0.00201385
0.0070275
0.0069582
0.00554155
0.0009822
0.00023505
0.00129805
0.00148505
0.0058937
0.00371412
0.0026977
0.00521935
0.005108
0.00316855
0.0075767
0.00413785
0.00053035
0.0041302
0.00626955
0.00662969
0.0061777
0.00622135
0.00331064
0.00643785
0.0038842
0.00232334
0.00515885
0.0029532
0.00206805
0.00701535
0.0070637
0.00508505
3.055e-05
0.00441485
0.0025865
0.0070385
0.00436805
0.00303585
0.00113505
0.00015705
0.00404755
0.007434
0.0021595
0.00411885
0.00650155
7.6204e-05
0.00491285
0.0012277
0.00554605
0.00025485
0.00623085
0.00137485
0.003836
0.005719
0.00429485
0.00356159
0.0065897
0.0050627
0.0027107
0.0002692
0.0046545
0.00823385
0.006177
0.005081
0.00597105
0.0020132
0.00279385
0.00676705
0.00538685
0.00287757
0.0010897
0.00472366
0.0027997
0.0025242
0.00148302
0.00329085
0.00148269
0.005819
0.00603105
0.00544055
0.0060972
0.00632135
0.0058235
0.00514605
0.00597635
0.00367735
0.00288607
0.0033597
5.04304e-06
0.010086
0.0114285
0.0035322
0.0097572
0.00126435
0.00799385
0.00796185
0.00781305
0.007232
0.0014837
)


// ************************************************************************* //
