/*--------------------------------*- C++ -*----------------------------------*\
  =========                 |
  \\      /  F ield         | OpenFOAM: The Open Source CFD Toolbox
   \\    /   O peration     | Website:  https://openfoam.org
    \\  /    A nd           | Version:  7
     \\/     M anipulation  |
\*---------------------------------------------------------------------------*/
FoamFile
{
    version     2.0;
    format      ascii;
    class       vectorField;
    location    "0.13/lagrangian/reactingCloud1";
    object      U;
}
// * * * * * * * * * * * * * * * * * * * * * * * * * * * * * * * * * * * * * //


1186
(
(406.523 0.628761 -0.308151)
(440.769 -0.0402963 1.39872e-06)
(395.746 -1.17577 -0.864623)
(440.485 -0.0558678 -2.52467e-05)
(434.956 -5.01776 2.06238)
(441.037 -0.00758246 -6.13109e-07)
(440.763 -0.0348579 6.51868e-06)
(418.886 -8.57152 -4.46185)
(440.811 -0.0265244 -4.27285e-07)
(420.61 0.484355 5.99429)
(415.806 -2.94097 3.72089)
(440.658 -0.0338487 -2.60573e-06)
(440.809 -0.016896 1.91878e-07)
(448.89 15.6589 -3.8679)
(440.779 -0.00970841 -1.30046e-06)
(440.195 -0.0580439 -2.20021e-05)
(440.655 -0.01802 -1.84526e-07)
(409.368 -0.285387 7.03619)
(440.665 -0.00725972 -5.47064e-07)
(455.653 -17.3983 -1.07025)
(442.186 -12.6071 1.93914)
(439.963 -0.0486623 -2.40455e-05)
(440.055 -0.0235605 -2.11757e-05)
(439.982 -0.0197004 -2.25387e-07)
(440.094 -0.0145225 -1.4678e-05)
(435.774 2.16122 0.204413)
(438.68 -1.93459 3.1216)
(412.486 -1.92756 -13.3257)
(440.234 -0.0076513 -1.05193e-05)
(419.491 0.525092 0.260077)
(435.015 3.1611 -2.11594)
(388.165 0.676708 -4.6975)
(438.811 -1.95172 4.62678)
(450.719 -11.7658 -7.89246)
(357.73 6.72505 -2.57155)
(439.527 0.0477966 -2.09513e-06)
(439.576 -1.55913 7.13012)
(439.217 0.077632 -5.85584e-06)
(439.426 0.0771996 -2.37223e-06)
(439.53 0.0750924 -1.76906e-05)
(439.076 0.168591 -5.49138e-06)
(441.227 -1.24006 -3.41326)
(439.489 0.0917263 -2.96337e-05)
(438.997 0.215726 -1.90493e-05)
(439.207 0.18461 1.05608e-08)
(439.088 0.2271 3.94039e-08)
(439.087 0.223558 1.33958e-06)
(438.485 0.395297 -1.54451e-05)
(427.019 -8.76467 1.09546)
(421.989 -0.833893 -1.6283)
(432.335 -1.53363 -0.956187)
(438.827 0.271816 -9.74543e-06)
(438.367 0.467007 -5.27191e-06)
(438.408 0.40431 -1.77377e-06)
(440.235 -1.44975 10.9339)
(440.027 5.64734 -4.20604)
(438.233 0.256467 -6.68957e-05)
(437.031 0.956022 -0.000145508)
(406.67 -4.6119 -8.05832)
(425.015 -0.182937 4.6028)
(437.187 0.591796 -0.000142218)
(427.382 1.99106 -2.44438)
(425.751 1.54969 1.82249)
(433.217 1.29541 0.773991)
(435.379 0.50647 5.2214)
(435.337 0.83983 -1.65709e-07)
(63.9214 17.697 -0.0999424)
(100.32 30.2645 -5.57755)
(112.96 21.0743 -0.000954457)
(107.921 24.937 -0.000783118)
(114.557 23.8932 0.00335007)
(132.914 3.84163 0.000196743)
(132.644 8.06076 -0.000480296)
(117.729 28.281 -7.03082)
(139.356 27.886 -12.8968)
(135.758 8.69666 0.000233895)
(136.301 11.8039 0.000192082)
(135.358 18.0648 -0.000986565)
(132.029 27.0024 0.000239122)
(139.701 15.9924 3.43347e-06)
(140.426 18.9285 -0.000642037)
(138.757 28.1315 -1.7746e-05)
(142.832 25.5492 -0.000908862)
(146.289 14.3748 -0.00058645)
(143.929 29.2679 -0.000473612)
(149.443 24.6202 -0.000454378)
(150.797 13.5482 -8.91517e-05)
(152.395 14.419 -0.000725042)
(150.625 3.09601 -2.92361e-05)
(66.2598 3.38068 -3.21146)
(160.374 20.9583 -0.00365918)
(154.795 6.40346 -0.00113406)
(157.77 9.79802 -0.0008083)
(162.869 13.374 -0.000352174)
(160.641 9.38536 -0.000336725)
(160.532 8.2272 -0.0018695)
(162.372 9.4692 -0.000363941)
(183.296 18.9785 10.2918)
(160.413 5.67601 -0.000728473)
(166.293 8.3435 -0.000575705)
(162.359 5.651 7.32527e-06)
(159.722 1.48849 -6.69541e-05)
(169.554 7.21824 0.00126058)
(167.231 5.48304 -0.00150845)
(167.286 4.90304 -0.00141928)
(167.109 4.26537 0.000189424)
(168.51 3.08301 0.00137087)
(167.813 3.10543 -0.000744831)
(167.879 2.21891 0.000972703)
(158.19 0.799937 0.200645)
(163.79 1.69243 3.04497e-05)
(166.556 1.97568 0.000743503)
(163.634 0.820852 -9.07132e-05)
(164.839 1.60813 -0.000225973)
(164.027 0.798491 2.41431e-05)
(164.712 1.23824 7.25823e-05)
(166.471 0.64757 -0.000196396)
(166.255 0.783182 -6.17706e-05)
(163.498 -0.152269 -6.56384e-05)
(166.19 0.475974 -2.27576e-05)
(166.081 0.438185 0.000467984)
(164.475 -0.119692 -5.63022e-06)
(165.476 0.81614 -0.000138066)
(165.751 0.602421 -0.000125518)
(165.632 -0.0425215 0.000152569)
(165.656 0.593098 0.000432842)
(165.657 0.559609 1.00585e-05)
(165.73 0.282515 -7.24169e-05)
(165.488 0.592557 -1.77905e-05)
(165.659 0.383623 8.56585e-05)
(165.593 0.551368 -1.0331e-05)
(165.494 0.335683 7.84405e-06)
(165.585 -0.0205546 8.40705e-05)
(165.583 0.549041 2.43366e-06)
(165.612 0.172217 9.82039e-05)
(165.59 0.521026 0.000211404)
(165.686 0.540741 -2.51498e-07)
(20.1274 -4.55625 -1.37427)
(18.3254 -3.15837 -3.91752)
(52.0221 -12.435 7.44928)
(25.2637 -4.26548 -0.736192)
(95.2647 -10.3117 -1.88698)
(63.8232 -7.38579 -2.12625)
(92.053 -23.0824 3.07862)
(104.436 -16.1965 0.781835)
(121.286 -13.8301 0.00184729)
(117.512 -15.3765 0.000809265)
(56.4274 -6.82044 1.85873)
(112.566 -14.5322 0.00202645)
(126.019 -8.53813 -3.34947e-05)
(114.702 -26.5703 3.67353)
(98.3974 -14.7422 -0.0845358)
(113.096 -12.2403 0.000897503)
(104.074 -11.9673 -0.000947559)
(122.59 -5.73894 -6.77689e-06)
(92.267 -9.4582 -2.95499)
(122.872 -4.68509 -8.11135e-06)
(71.6478 -7.27115 1.63736)
(114.687 -7.6563 0.00260694)
(108.323 -9.58823 1.11117e-05)
(114.433 -7.15162 0.000294666)
(122.439 -1.98386 2.8487e-05)
(115.432 -5.16875 7.61963e-05)
(105.543 -7.48565 0.000285318)
(60.1976 0.849893 2.20321)
(91.716 -8.62235 0.105328)
(92.1497 -6.15645 -0.887518)
(107.269 -4.97696 0.000715764)
(86.1547 -4.08992 -0.444325)
(110.818 -3.42496 0.000118854)
(105.223 -3.35869 0.00035122)
(100.381 -2.45715 0.000395066)
(119.148 -0.749139 0.000340142)
(99.2829 -1.77626 0.00056181)
(98.1534 -0.112785 0.00497634)
(94.2869 2.10951 0.000359831)
(114.635 1.3219 0.000172014)
(84.3839 5.07984 -0.0793825)
(102.894 1.86422 0.00291708)
(114.542 1.85293 0.000171049)
(118.43 2.50167 8.8263e-06)
(102.278 5.12914 0.000822896)
(84.0909 4.72422 5.21988)
(47.8956 11.3219 0.170213)
(121.405 2.16773 0.000172367)
(106.906 6.25942 1.46944e-05)
(100.538 9.43465 0.00116699)
(112.678 7.3443 0.00090063)
(110.592 9.0131 2.16209e-05)
(101.097 13.8234 0.000258371)
(93.2546 1.60918 2.46094)
(127.654 1.83138 4.6836e-05)
(113.265 13.422 0.00385438)
(92.2768 17.9528 -3.26959)
(121.144 11.1701 -0.000933002)
(89.2064 21.1021 -0.169304)
(103.748 19.4469 -9.05462)
(42.6318 16.4444 -1.90628)
(266.865 -11.3928 4.37865)
(54.7066 -16.3804 -0.0909267)
(317.418 -40.1628 3.77386)
(343.408 -21.86 11.9771)
(323.923 -6.97984 9.27916)
(353.03 -5.29559 3.91237)
(346.692 -8.84543 0.908657)
(337.096 -0.222821 -7.88276)
(341.834 -9.46935 -0.0026097)
(316.02 -38.8729 11.0543)
(311.382 -19.3805 -0.00332673)
(293.311 -11.7109 4.46663e-06)
(214.813 -61.2981 3.05266)
(258.905 -57.3386 -5.10038)
(247.564 -47.0532 0.00133912)
(207.911 -42.2133 -14.9763)
(240.576 -39.3913 0.000107072)
(249.154 -25.9712 9.43094e-05)
(231.239 -59.0511 -5.62691)
(188.958 -48.7875 -0.658612)
(225.82 -38.383 8.59825e-05)
(206.448 -44.4323 0.00262906)
(175.924 -48.1538 -1.85886)
(213.442 -37.0472 0.00118867)
(214.721 -21.5476 9.81708e-05)
(200.508 -4.71151 0.000136344)
(186.577 -32.2278 -1.94181e-05)
(141.454 -39.2342 1.2938)
(162.344 -38.7976 -0.462392)
(153.651 -37.1373 -8.53846)
(157.596 -33.5789 6.89853e-05)
(168.63 -22.6185 0.0014285)
(134.332 -38.7506 -4.09006)
(142.802 -37.1459 2.55137)
(155.439 -29.5556 0.00128337)
(164.427 -20.0845 0.000417592)
(160.708 -20.373 3.85492e-06)
(149.052 -27.1683 0.000153436)
(138.45 -32.2199 -0.00113829)
(152.845 -22.7941 1.93772e-05)
(136.173 -44.4844 4.07924)
(145.755 -21.5206 -1.65734e-05)
(146.762 -13.8635 -5.91539e-06)
(134.167 -25.7585 0.00138213)
(128.717 -27.0255 0.00347417)
(110.57 -29.4987 -3.09169)
(142.857 -10.6828 -1.60322e-05)
(107.18 -25.8984 0.842286)
(138.02 -11.9174 -3.63844e-05)
(123.306 -23.2329 0.000677028)
(118.237 -23.5261 0.00041965)
(128.066 -16.5803 0.000728819)
(103.681 -26.0647 -14.45)
(131.47 -10.223 0.000152326)
(125.503 -15.6594 -6.96905e-05)
(115.014 -20.0222 0.00122439)
(120.242 -16.133 -0.000183359)
(443.557 -13.1991 -3.30321)
(434.03 1.2429 -4.41525e-06)
(375.917 8.40933 -1.28816)
(432.546 0.893571 -1.53863e-06)
(422.407 5.25532 -1.54236)
(420.235 -4.12119 2.018)
(394.666 -7.99111 0.277265)
(408.737 3.78621 -15.6696)
(420.597 -1.38763 -2.42029)
(421.026 10.8965 -1.34556)
(412.07 0.375437 4.89315)
(416.089 1.76526 -0.706014)
(411.454 0.311567 -0.506945)
(412.715 -0.0846045 2.69802e-06)
(409.246 -0.432314 -1.80215)
(410.578 -4.29528 -4.14241)
(409.475 -0.263173 3.80448e-05)
(378.149 3.13037 0.946892)
(397.098 -1.04129 -0.000217313)
(394.511 -1.72002 -0.0076227)
(383.164 -6.4637 0.674702)
(386.425 -4.30488 0.300389)
(363.476 -3.55159 -0.0856935)
(386.448 -14.2576 -3.95745)
(382.587 -4.61705 -0.841471)
(383.273 -2.98242 6.46434)
(382.956 -3.81885 6.33851)
(338.915 12.3642 -0.525358)
(360.375 3.17502 -9.82387)
(339.049 -0.128201 2.88178)
(336.819 3.33675 -9.74399)
(342.86 3.05893 1.6806)
(363.953 -0.977402 14.0574)
(357.228 7.99531 -20.4638)
(398.149 20.6995 -5.19054)
(308.38 -2.21327 1.72384)
(291.452 14.3758 1.86271)
(330.637 15.3934 6.10544)
(390.956 -5.68623 -1.17112)
(347.54 -1.82844 2.47338)
(388.228 -0.0162894 2.07321)
(404.727 -2.77567 -1.83317)
(310.326 11.4939 -5.65668)
(370.836 1.00069 4.76188)
(429.742 -8.22158 5.40231)
(438.11 -0.2436 -0.587838)
(386.358 -0.324332 9.87747)
(323.515 -12.2988 -6.79508)
(411.752 1.275 10.332)
(406.343 -4.34382 -2.74165)
(417.939 7.24568 -1.37258)
(338.208 -4.59028 0.35252)
(431.816 -1.37845 3.02059)
(444.215 -7.65936 4.26768)
(398.81 -18.4948 -19.1015)
(404.992 -1.04948 -1.52409)
(415.578 -0.279148 -2.56415)
(383.588 -3.41852 4.63421)
(425.718 -0.0768616 0.904923)
(428.007 -1.40052 4.49338)
(425.57 6.09665 -5.21463)
(429.524 -10.4609 2.50701)
(436.711 4.49659 -0.705414)
(437.931 -0.195245 -0.33722)
(441.156 -0.514386 -0.686858)
(432.155 -8.96681 -3.62847)
(340.698 1.18607 -0.390536)
(436.745 -0.72447 -1.1351)
(443.494 1.42832 -2.06419)
(425.195 -3.77547 3.38467)
(376.608 4.39655 -4.8918)
(422.456 -2.36709 5.80947)
(423.141 0.0205192 2.97149)
(330.084 11.3573 -2.90904)
(452.887 -18.9675 5.91927)
(441.432 -23.0053 3.53636)
(431.751 -0.466087 0.00309553)
(398.152 -3.2388 -7.2271)
(440.285 -1.46497 -1.52709)
(435.772 -6.02456 -2.59083)
(408.145 0.722877 7.61307)
(379.94 -2.07067 -1.40597)
(449.816 -10.6076 -1.40916)
(388.726 3.11726 2.61254)
(428.988 0.390979 1.25244)
(447.712 -7.54172 1.70104)
(440.456 -0.615349 1.90858)
(439.337 -1.50215 4.94828)
(445.737 -2.43791 -1.50953)
(415.915 -3.20673 12.2851)
(432.323 -0.577037 -0.331405)
(412.378 -1.28081 -1.01421)
(377.241 3.15728 -1.12099)
(438.679 -3.75098 1.46557)
(443.114 -1.98989 0.525288)
(435.832 -17.2414 -8.62134)
(420.414 -13.2037 -0.747759)
(438.018 -0.253926 0.351328)
(429.929 -10.7124 -2.10137)
(438.797 -0.577897 3.19334)
(440.233 3.80405 -5.40661)
(385.208 -0.761323 -1.20454)
(434.215 -0.697114 -0.180302)
(421.954 -1.97079 -3.35399)
(383.402 1.91292 -1.04113)
(442.839 0.000266371 -0.00995557)
(442.524 2.25561 0.0145917)
(455.712 -17.3058 0.976238)
(441.338 2.43791 0.0221945)
(440.54 -1.13786 -0.227062)
(403.862 -3.07554 4.68304)
(417.575 3.48778 -0.148423)
(422.927 3.99503 1.18542)
(438.701 -0.126036 -1.04952)
(430.364 1.57655 -7.53734)
(433.097 0.153285 4.58421)
(441.996 -3.9862 3.07469)
(396.245 15.5031 3.74585)
(356.419 7.55111 -20.2979)
(376.607 0.846572 6.35635)
(443.786 -3.0889 -3.37409)
(442.011 -2.14969 1.52493)
(381.485 14.4298 5.43555)
(383.826 1.15639 2.8154)
(437.459 -1.3501 1.80041)
(408.067 -3.49285 2.43377)
(441.102 -0.486047 -3.35419)
(438.351 -13.8781 -9.61455)
(441.422 -0.912493 3.01834)
(412.846 3.38294 3.17236)
(433.543 2.5399 1.59987)
(373.948 5.93163 0.590688)
(437.96 0.00107648 -0.0526226)
(443.428 -0.515434 0.764833)
(433.575 0.888671 -3.24118)
(414.131 -2.61294 -3.33252)
(456.229 -11.2237 5.06876)
(436.033 -0.377538 -0.0633916)
(396.083 4.36916 -8.28786)
(399.124 -0.405134 -3.49633)
(437.505 0.00083632 0.0391029)
(421.893 1.70374 2.53433)
(386.885 -4.00639 -1.92557)
(441.681 -3.45086 -3.71788)
(388.062 -3.95247 5.0452)
(436.928 3.88614 0.99601)
(434.785 -14.921 7.51624)
(439.108 0.199391 0.293216)
(339.394 13.5943 12.5098)
(419.035 0.299874 9.05439)
(433.077 -1.51336 1.51623)
(419.612 -1.0115 -0.593)
(415.711 -5.17117 -2.4323)
(442.912 -5.74954 -3.6838)
(438.288 3.66279 4.29977)
(442.998 -0.031205 -1.7572e-06)
(436.885 -4.057 8.04615)
(393.069 -2.05949 -2.7659)
(384.24 5.35054 0.47204)
(409.634 6.73284 -3.93869)
(438.439 -4.50022 -22.0797)
(436.074 -0.168438 -0.100881)
(426.98 2.63526 0.602651)
(439.443 -10.051 1.83941)
(421.098 -4.99033 -2.8872)
(383.808 -3.86841 8.34703)
(396.748 -0.565276 0.198881)
(415.908 -0.160476 -3.67815)
(428.544 0.905495 0.547454)
(356.519 6.87713 -4.71044)
(425.528 -6.93166 -9.77839)
(442.969 -0.0251099 -7.19774e-06)
(420.068 -6.77327 -2.52637)
(380.628 4.91676 -0.613411)
(413.441 6.03728 5.41079)
(442.887 -0.0356026 1.33659e-05)
(405.064 3.26044 1.46729)
(439.094 4.31711 -10.7032)
(427.556 -4.91545 2.51828)
(393.867 2.14034 0.314547)
(460.725 -16.0371 0.922441)
(407.798 -1.22715 -0.835832)
(436.433 3.64777 2.36896)
(431.277 0.188379 -0.630679)
(440.855 -0.138299 -2.00776)
(433.482 -0.575398 -2.34083)
(410.966 12.2923 0.984946)
(400.836 0.150193 -3.34763)
(442.652 -0.0122477 -8.3703e-06)
(413.328 -1.3994 -4.43942)
(428.81 8.96996 0.759368)
(442.762 -0.00406379 -1.73265e-07)
(429.764 -8.02284 -3.81811)
(361.996 8.98171 -1.63164)
(433.49 -1.4551 -0.357187)
(422.164 -2.01266 8.26927)
(441.143 1.12677 -1.14958)
(417.18 0.54215 0.637355)
(416.669 0.254521 -0.875149)
(442.867 0.00135973 -1.7775e-07)
(436.419 -0.39607 -0.123864)
(391.873 -2.95723 -3.51178)
(438.938 7.96833 5.71383)
(455.284 -9.39816 -8.3034)
(440.632 3.18227 1.30708)
(382.941 -0.257034 -0.720883)
(446.016 -11.5799 -3.61389)
(451.654 -12.9887 -32.4696)
(389.67 0.754329 -0.16564)
(435.489 -8.04893 10.1159)
(445.66 -2.86069 -2.65134)
(431.174 -0.268946 2.92807)
(370.222 -1.74458 15.5074)
(432.316 0.197065 -0.336199)
(434.316 1.98248 -0.909393)
(423.626 -1.94485 -1.29602)
(355.14 20.356 -14.478)
(432.674 0.145047 -1.63476)
(442.258 -0.012012 -8.40789e-06)
(418.56 -3.25193 -3.64922)
(424.78 -1.76475 0.188975)
(432.257 1.59233 1.08093)
(399.036 0.493293 0.117023)
(444.323 -6.51087 -9.42119)
(434.386 -7.6003 11.9205)
(358.828 9.3265 -19.9294)
(440.493 -6.72442 6.17073)
(446.158 -8.79247 -6.17863)
(464.855 -16.9102 4.92722)
(405.354 -2.80204 1.41138)
(396.309 -2.4942 0.868504)
(438.784 -0.922589 0.946371)
(359.415 7.10558 9.64392)
(391.603 -0.187224 1.65344)
(407.18 3.29029 1.95387)
(442.539 0.00444208 -1.61396e-07)
(424.518 -1.32854 -3.45459)
(440.14 5.6688 -2.23118)
(438.707 -0.413499 -2.72567)
(442.494 0.00674047 -5.23762e-07)
(439.821 -4.4072 -0.561308)
(443.034 -8.43692 -12.0794)
(438.136 1.74348 1.06297)
(420.988 -4.09688 -11.8259)
(438.876 4.06138 -1.0435)
(441.972 -0.0104 -9.10178e-07)
(391.907 5.60783 -4.22447)
(442.043 -0.00721269 -6.05003e-06)
(377.5 -0.0198215 1.97942)
(438.053 -0.147576 -0.0197151)
(396.196 3.27322 -2.18451)
(394.931 -0.731848 3.53728)
(402.68 -6.70537 6.65959)
(415.495 -2.93956 -2.15656)
(442.226 0.00619072 -5.74847e-07)
(450.439 -3.78725 3.52888)
(438.722 -4.0922 4.21108)
(430.468 -0.230879 -1.07759)
(444.413 3.68909 4.92566)
(441.083 -1.34865 1.40067)
(441.902 0.00769092 -2.37745e-07)
(345.343 -9.61038 9.29913)
(441.982 0.00890854 -2.76458e-08)
(442.015 0.00900923 -2.23957e-07)
(421.968 0.57547 1.47333)
(434.014 -3.02685 -4.46764)
(434.962 -8.50467 0.233294)
(448.535 -6.79918 1.77188)
(464.501 -13.7671 -6.71727)
(441.974 0.00933963 -9.03509e-07)
(441.58 -0.00304642 -1.3605e-05)
(428.991 -3.30674 -4.74839)
(438.458 -1.94522 1.88394)
(437.918 -0.245839 -0.799855)
(398.712 0.371156 3.98918)
(436.295 1.00658 3.78192)
(441.802 0.00691111 2.66742e-06)
(441.476 0.00592352 -1.62073e-06)
(440.997 1.68167 -5.2924)
(439.141 -14.3134 13.924)
(430.141 1.81091 -1.83568)
(436.657 -8.79277 -2.28567)
(442.031 0.310022 -11.1116)
(425.221 -9.0335 13.3965)
(441.201 0.210773 -0.449133)
(402.986 -0.599195 -1.26588)
(441.653 -0.000170912 -1.46511e-06)
(436.801 -6.72808 8.29861)
(441.274 -0.0186227 1.43614e-05)
(346.804 -0.0554575 1.81524)
(440.944 -0.0475188 -3.23454e-06)
(439.888 0.545762 0.168379)
(418.91 -1.31166 4.27133)
(439.658 -7.56931 5.45599)
(394.325 11.4754 3.09896)
(441.1 -0.0224372 3.79146e-06)
(358.993 7.94891 3.94819)
(438.499 -8.06962 7.3159)
(373.167 7.59771 -20.2475)
(251.286 41.8257 0.88039)
(250.27 39.6343 0.834449)
(250.828 22.9432 -11.3484)
(239.522 32.5214 -10.947)
(266.473 30.9228 -7.58588)
(287.395 5.90993 -2.5427)
(337.187 6.04562 -7.90906)
(276.899 14.8503 -16.8944)
(354.768 -2.18052 -2.38754)
(373.547 0.831752 -0.162655)
(388.616 -25.0625 1.42036)
(360.475 1.15742 2.15596)
(328.76 -15.4198 -22.6912)
(336.741 10.7023 -5.6745)
(351.99 2.52928 -1.46561)
(327.641 14.575 10.7607)
(371.373 11.966 3.06438)
(380.084 0.00926122 0.321316)
(346.489 6.36711 -12.8563)
(378.564 -0.216644 0.131718)
(373.272 -2.27662 12.6557)
(317.684 5.97228 -17.4194)
(397.26 -2.43497 -1.87809)
(346.481 7.0534 -18.9466)
(370.698 -1.60526 -6.34649)
(365.978 0.413101 -3.51609)
(381.812 -2.35668 -3.916)
(384.794 8.37806 -5.14926)
(397.465 0.00139064 0.0576936)
(374.346 0.97336 0.169369)
(410.717 0.0013533 -0.0446712)
(390.516 0.101545 -2.81673)
(370.247 -1.94554 10.1913)
(376.664 4.54968 8.6184)
(379.239 0.0633559 1.9235)
(352.893 -5.3387 15.7217)
(397.225 -9.70006 -48.3408)
(397.138 0.00227868 0.0688178)
(386.363 -0.517894 -0.0505388)
(375.021 -5.46796 -3.64644)
(305.089 11.1146 6.28042)
(373.876 -0.336773 -5.03878)
(395.353 4.44882 10.778)
(370.167 -4.33334 0.640618)
(356.124 10.1741 -4.05817)
(388.337 3.60907 -1.17532)
(380.511 -0.699502 -2.35423)
(418.333 0.000824609 -0.0164842)
(403.743 -9.00467 7.13363)
(396.33 -0.199163 -0.0118194)
(335.45 0.692084 2.83425)
(401.731 2.23144 -6.67971)
(396.775 1.61873 7.83619)
(397.036 0.000704973 -0.0188673)
(327.006 26.3272 -6.41595)
(372.302 4.05395 -17.595)
(400.677 -1.73734 -3.20384)
(328.453 1.69262 2.45113)
(295.111 5.44278 -0.190229)
(397.31 8.32235 2.3432)
(383.131 -0.625655 0.984283)
(373.451 -12.0932 -6.61825)
(397.401 6.50277e-05 0.0246926)
(401.76 -4.87157 -3.67194)
(402.538 0.0014945 0.0611688)
(330.459 5.57388 0.635886)
(406.808 0.00140618 -0.0494728)
(319.108 -8.00305 9.73428)
(403.552 1.37183 8.53487)
(366.778 -7.50912 -36.085)
(403.395 0.000167531 0.00756541)
(395.797 -2.80214 3.69294)
(377.895 4.28181 9.65794)
(401.935 1.38643 1.07421)
(345.638 3.21336 -17.8086)
(405.601 0.00191122 0.0806465)
(400.622 -0.236627 -0.563609)
(407.521 0.479871 1.37581)
(384.69 1.88247 2.31239)
(394.397 3.75973 9.88772)
(409.954 2.68692 -3.11985)
(404.066 0.680904 -0.990076)
(388.511 -0.356817 0.208412)
(406.311 0.000103359 -0.0360539)
(382.819 -3.0298 6.68718)
(397.163 6.75253 -1.14145)
(405.988 -11.0693 -5.80789)
(372.468 -0.969537 0.109722)
(369.44 12.2697 1.04959)
(400.059 -17.8032 -2.24734)
(377.409 0.98578 17.8687)
(413.19 7.45584 4.52104)
(372.711 3.7146 -0.521987)
(406.346 -3.38722 2.50938)
(413.772 0.0855682 0.776481)
(406.904 -0.510389 0.208669)
(414.581 0.0017094 -0.0541602)
(396.807 -2.51631 -2.84461)
(376.649 11.1765 2.78071)
(372.297 1.2565 0.304899)
(300.457 7.37392 -2.77259)
(412.924 0.00038943 -0.0134432)
(387.336 -1.11592 -0.63693)
(421.831 -5.90703 -3.2802)
(416.302 1.65776 1.46404)
(376.4 -3.41923 0.389197)
(415.284 -0.000834642 -0.0822927)
(414.061 6.75224 -5.65612)
(407.966 3.12344 -1.21104)
(396.942 -8.35801 -9.05743)
(364.604 -6.20942 15.8594)
(415.789 -14.5611 3.05822)
(404.556 -1.68988 3.7507)
(409.933 4.7663 -8.91444)
(378.924 5.62678 3.80898)
(405.767 8.28446 3.66086)
(417.553 1.7703 9.7971)
(420.52 0.000500032 -0.0183944)
(413.994 -0.607804 -0.511748)
(420.44 -0.00246433 0.00813741)
(351.862 5.92373 -6.14791)
(305.482 -0.0444617 -1.67843)
(387.243 -22.4379 -1.23684)
(367.285 0.0466134 2.13999)
(420.693 7.58997 -1.92014)
(397.478 0.494104 0.303814)
(423.192 0.0385802 0.00688588)
(416.102 -2.41527 -3.2023)
(407.985 -5.53627 -2.66889)
(364.44 -1.8332 -1.56915)
(424.882 0.336372 0.132404)
(373.497 0.107149 -2.84799)
(274.511 -6.62955 -21.8885)
(404.701 -6.74309 -3.77792)
(412.567 -0.773101 0.627479)
(415.418 -3.672 -5.83673)
(403.893 0.966966 4.93003)
(405.52 -0.610601 0.00641117)
(321.345 17.2009 2.29056)
(426.592 0.00110448 0.061547)
(423.525 -2.37477 2.18139)
(423.936 -8.58625 -8.34947)
(413.271 -1.67203 -2.22525)
(427.326 0.00652054 -0.203946)
(431.807 -0.156231 -3.09772)
(427.626 -15.6643 -10.7416)
(300.133 7.46713 0.0626182)
(319.532 11.042 -5.93091)
(385.436 8.75741 -19.6142)
(429.618 1.46408 -2.40699)
(387.677 -1.67515 -2.44716)
(403.778 0.738145 -2.07739)
(404.694 7.24095 7.30281)
(435.365 4.69036 -0.581606)
(392.68 10.7124 -26.6927)
(432.553 -1.04753 3.75927)
(342.296 10.9403 -3.65026)
(374.227 -3.15873 1.08985)
(422.673 -5.31175 -1.13261)
(304.422 1.45486 4.20342)
(429.973 -0.0170604 -0.0788059)
(386.281 10.8925 9.63377)
(389.152 -6.06195 5.57048)
(403.698 -0.744255 0.00959044)
(403.325 -1.7677 -1.62331)
(280.378 26.7412 -8.88093)
(420.112 -3.98119 -15.8291)
(386.81 29.3092 -21.2489)
(372.214 9.79464 -5.49134)
(319.053 -0.00044464 -0.900177)
(326.183 -0.5082 -0.440839)
(430.431 0.00234017 -0.149954)
(429.462 -0.747744 0.0679195)
(393.594 -6.47104 -5.68215)
(419.101 -5.08513 -1.9307)
(430.55 0.450056 2.51059)
(414.893 -4.77044 6.32302)
(403.676 0.587225 3.1219)
(418.848 0.156003 0.478299)
(428.582 0.00129365 -0.0671068)
(432.181 0.177465 -0.0481681)
(432.304 1.04183 1.73127)
(323.423 14.2428 -4.38529)
(431.81 0.000396157 -0.0118872)
(361.42 -4.71056 -5.3816)
(417.843 -0.633156 -1.03447)
(316.231 13.7393 -3.61694)
(349.995 2.13247 1.05135)
(384.142 -8.60512 -4.01039)
(426.195 -0.184639 -0.113395)
(432.008 -3.17069 6.48081)
(437.551 2.92995 -0.748655)
(429.22 0.519974 -0.0814008)
(406.342 0.154066 14.6181)
(408.218 -2.94813 11.4207)
(437.338 -0.380478 -0.533298)
(307.76 18.2525 13.1421)
(396.64 -7.87586 6.83682)
(420.269 -1.43849 -1.36709)
(411.896 3.42031 -1.64997)
(329.655 13.479 -3.37734)
(440.43 0.000280115 -0.0157692)
(414.108 0.175866 7.76277)
(326.616 4.68416 3.12695)
(426.573 -11.6368 14.7253)
(437.412 0.417687 -1.4911)
(442.468 -12.7361 3.28348)
(415.297 -27.8908 7.95677)
(410.734 -1.51764 -7.91255)
(425.605 -3.92859 2.66537)
(438.753 -0.723514 -1.39571)
(420.144 -2.88244 1.95698)
(403.673 -1.92454 4.31331)
(424.639 -0.449359 -0.0223514)
(436 -0.779651 2.26977)
(435.367 2.88908 2.29476)
(406.138 2.47823 3.8072)
(315.024 -0.368395 -1.07923)
(390.318 -0.29168 -0.693585)
(437.269 -0.0780054 -0.0975782)
(355.445 8.33358 -6.21532)
(438.163 -3.4176 -0.154768)
(396.336 1.24952 -8.62209)
(396.058 0.611837 0.426943)
(428.855 -0.268693 0.904773)
(423.016 -1.64151 1.20951)
(351.392 8.89903 -0.80822)
(433.046 -3.09026 3.55049)
(382.202 5.27206 2.31895)
(335.732 -3.24864 -9.75157)
(365.703 5.11987 -3.27674)
(414.564 18.6339 1.48793)
(391.336 0.715751 2.14729)
(336.748 -0.0326278 -0.390715)
(337.753 1.21402 -1.49967)
(439.534 -4.65363 7.20926)
(438.802 0.00155117 0.0846376)
(363.023 9.89945 9.61296)
(439.686 -4.90941 -0.595479)
(357.417 -2.16055 2.03655)
(396.417 8.19517 9.65698)
(349.272 -4.25084 9.53911)
(438.994 -2.37875 -1.13766)
(423.572 -5.78586 2.86905)
(438.096 6.56769 1.71577)
(440.347 -0.0493376 -1.8417)
(338.804 6.86746 0.547403)
(383.857 -2.37534 -5.90337)
(427.49 4.57173 6.98355)
(411.196 0.376497 -0.537398)
(437.9 2.17079 -1.55673)
(414.646 0.0558958 1.32912)
(437.504 -1.06069 -2.66762)
(383.067 -1.01092 -1.02578)
(441.289 -0.00325483 -0.00495202)
(440.949 -1.59045 2.20745)
(365.877 2.13164 -1.95481)
(424.59 0.561 0.267707)
(436.132 -1.75538 -5.09594)
(399.915 -3.86961 4.80682)
(443.475 -7.65847 1.56279)
(430.708 -1.14144 3.77798)
(426.012 -15.0377 10.1118)
(431.471 -5.43025 -4.79256)
(442.546 0.0678716 -0.702833)
(348.607 5.08968 0.596575)
(433.739 -1.54221 -1.28007)
(417.724 -1.08166 10.1979)
(441.972 -0.0882729 1.41347)
(441.247 0.23298 -0.138768)
(433.639 0.410371 1.45087)
(308.465 6.51501 -5.60015)
(441.937 0.370639 -10.6305)
(447.733 -9.4632 3.48802)
(412.668 -0.298679 0.219491)
(369.151 2.37522 -2.87149)
(443.071 0.117499 0.047292)
(439.675 -8.01999 4.31618)
(392.479 -2.25364 20.1425)
(388.702 1.97096 -1.31853)
(431.999 -4.8121 -22.5575)
(419.183 0.284004 0.226196)
(431.367 0.272034 1.50365)
(432.702 3.4128 4.75179)
(421.523 0.232766 -2.36696)
(435.27 -2.63417 3.4226)
(415.264 -3.96086 -15.7613)
(441.997 0.000889397 -0.0274273)
(443.505 1.18334 -1.39495)
(368.62 10.1323 3.45684)
(437.19 -0.680736 -1.49782)
(379.731 30.4594 -7.57764)
(353.846 0.797536 -4.34134)
(274.051 13.0187 -2.70811)
(284.427 0.00113541 -0.0621699)
(293.59 16.5114 1.21778)
(330.333 -10.2588 -1.52475)
(289.99 9.15106 -7.70427)
(309.432 3.85965 9.79883)
(309.934 0.445205 11.5247)
(286.798 17.7212 -7.9623)
(336.103 2.31481 2.00639)
(337.528 -3.43425 0.517423)
(336.804 -6.63949 -9.89277)
(309.98 3.32011 11.1993)
(320.25 -0.00223814 -0.0849123)
(316.556 1.71034 -7.76289)
(310.657 5.10015 12.4836)
(318.16 12.3237 31.433)
(330.83 5.09022 -5.14726)
(331.83 -9.96839 7.05249)
(340.154 4.44966 -1.42304)
(330.858 6.5806 -7.31595)
(339.639 7.22023 -8.18297)
(338.349 0.67142 3.55372)
(313.282 0.00322987 -0.27516)
(316.964 14.334 6.76832)
(332.309 -0.565295 -6.17766)
(338.512 -5.75062 0.660426)
(315.256 0.0040073 -0.154208)
(366.623 -0.0109887 -0.600158)
(332.557 3.90226 4.77939)
(342.426 4.05012 -23.1057)
(343.573 0.804552 -0.796397)
(361.292 18.9062 -10.238)
(313.459 9.1758 5.93959)
(328.898 2.67021 20.8461)
(327.005 9.03249 6.92544)
(338.589 4.3968 -11.5051)
(334.244 0.610401 2.66269)
(317.012 4.89958 4.99702)
(338.576 3.00613 -0.47389)
(357.349 16.0179 -22.1253)
(342.32 2.39667 0.249616)
(340.607 3.80746 -4.3083)
(340.256 4.76243 -10.58)
(329.855 4.77138 -11.7717)
(336.896 0.719272 -1.18026)
(345.187 -1.17645 4.84486)
(341.009 -0.526854 0.225572)
(338.669 -7.52222 6.37655)
(354.876 10.4835 15.1643)
(340.793 0.00274641 0.175293)
(306.913 7.93029 -0.119186)
(340.029 2.96167 1.63648)
(339.26 -4.98416 -23.076)
(319.31 6.4445 -2.81341)
(341.207 16.9126 12.1241)
(342.767 -0.0260704 -0.0114946)
(337.192 5.80788 1.34258)
(346.352 17.3715 4.55869)
(343.854 2.59774 -3.01979)
(350.017 -0.00266827 0.172808)
(358.727 -3.28145 -6.18195)
(344.283 -0.579303 1.63101)
(318.512 13.2367 -18.0916)
(344.912 11.6554 -8.02503)
(306.191 18.7378 -39.1049)
(333.943 1.44406 1.41166)
(303.075 18.1494 -4.87252)
(319.9 14.8323 -17.4372)
(348.339 0.00347858 -0.0785471)
(337.96 0.0369254 -0.290482)
(291.211 15.1926 8.73209)
(342.989 -4.0648 17.4427)
(309.806 3.07878 1.07478)
(332.403 5.03133 -9.51308)
(347.486 1.17537 -12.5113)
(344.368 0.669738 -3.77165)
(343.888 6.14838 -18.7069)
(343.918 -12.6958 -18.4734)
(344.773 0.632519 -1.10421)
(334.036 5.083 1.89623)
(352.265 -5.30808 -0.103047)
(344.512 -9.98437 -0.96478)
(335.061 7.06065 -4.13996)
(317.155 6.76421 10.7685)
(337.502 -1.69461 -1.25482)
(339.55 0.611121 -7.31811)
(297.801 -0.711406 21.1439)
(344.739 -0.000665217 0.0475336)
(319.547 17.6476 -9.66817)
(308.228 15.1825 -19.6395)
(347.294 1.82834 -5.86808)
(314.332 -15.8181 19.4335)
(346.993 0.100333 -0.0466543)
(337.524 3.14229 1.39392)
(336.828 9.95107 29.5127)
(354.145 -5.2484 0.839869)
(335.673 4.20829 10.1558)
(345.799 0.557524 -0.147894)
(366.144 12.9064 -25.3225)
(353.221 -1.73184 -2.83843)
(344.95 0.422526 -1.54932)
(355.811 -0.0525238 1.06651)
(336.41 -2.46711 7.95901)
(387.459 0.258749 1.41839)
(350.87 0.263789 12.6898)
(305.609 -0.665394 -3.22224)
(345.866 -1.92934 10.2644)
(347.086 -0.133176 -0.294974)
(350.355 -4.3849 -0.482266)
(346.708 1.94684 -1.6577)
(350.652 1.61787 -2.19396)
(335.654 -3.65297 4.06435)
(338.447 1.76231 0.714843)
(350.945 4.51142 -7.08165)
(317.604 2.68802 -20.2897)
(368.135 1.13982 -16.2477)
(315.354 11.629 7.17111)
(358.459 -0.00137393 -0.00903062)
(338.185 7.4277 -5.04748)
(321.057 -3.72476 -7.95775)
(353.522 -7.26926 1.76174)
(358.402 0.0119637 -0.134293)
(349.545 5.4867 -6.25488)
(311.881 8.32011 9.98799)
(300.295 1.95552 6.60847)
(346.381 5.17549 0.459622)
(363.766 3.39899 8.0041)
(355.604 4.42269 2.44546)
(351.272 -0.0357544 0.0478916)
(350.552 4.49003 2.52057)
(353.756 2.40505e-05 -0.00143308)
(352.993 2.82028 -2.8608)
(357.251 1.41705 0.424663)
(349.918 1.60234 -0.462645)
(343.617 13.6361 18.9384)
(357.541 -1.92044 -3.69646)
(316.734 17.6483 -4.49048)
(353.279 -0.658066 1.34359)
(337.927 0.307445 -0.843841)
(296.79 1.42177 -1.65343)
(359.022 0.227687 1.88728)
(346.329 -0.643964 0.136711)
(297.522 16.9942 -10.8384)
(350.398 -0.111665 -0.164026)
(356.462 -9.19374e-05 -0.00635505)
(362.657 -0.031186 -0.0303645)
(322.447 15.2256 -5.10352)
(349.541 8.31241e-05 -0.0948229)
(321.307 -4.14151 17.917)
(357.593 -0.00641937 1.33433)
(361.436 4.66405 0.471892)
(351.616 5.47271 -1.26631)
(352.588 -2.3611 -5.59845)
(347.524 -5.25791 7.19981)
(359.703 0.0491929 -0.849389)
(296.669 4.00032 13.1902)
(354.891 2.23097 -10.6297)
(361.28 3.27391 -4.27072)
(350.989 10.0359 -17.3637)
(381.617 8.98067 -29.5337)
(330.1 -10.0455 -14.3541)
(363.236 0.106833 -0.7315)
(330.333 0.539634 -0.0778107)
(323.088 -1.59108 7.74343)
(356.447 -0.519476 1.2335)
(359.04 0.00159627 -0.0512668)
(358.913 0.976211 3.07459)
(358.601 0.615451 2.70545)
(355.428 1.57162 -6.07234)
(365.815 3.66313 -5.33959)
(330.282 5.94953 -13.7143)
(356.93 12.6313 -3.54341)
(357.212 0.730174 -0.482144)
(351.32 -1.90146 5.79717)
(357.859 1.80545 -2.84203)
(354.482 -3.09567 0.126487)
(331.451 -0.448571 -4.60802)
(318.102 13.2134 11.0735)
(359.504 1.22632 0.35441)
(330.499 8.63376 -11.5846)
(348.748 1.54289 11.4655)
(355.451 6.21974 23.43)
(360.478 -1.92402 -3.31613)
(275.889 17.4166 -23.2733)
(361.064 0.00063421 0.0432682)
(359.012 4.20615e-05 -0.0271464)
(353.409 0.175599 9.77279)
(361.554 9.62517 1.58408)
(349.21 -0.105353 -0.625379)
(350.721 -13.6679 4.38773)
(367.566 1.44955 -1.5203)
(362.516 0.00143258 -0.0596992)
(359.635 -0.000192378 -0.0817197)
(374.862 5.73692 0.678173)