/*--------------------------------*- C++ -*----------------------------------*\
  =========                 |
  \\      /  F ield         | OpenFOAM: The Open Source CFD Toolbox
   \\    /   O peration     | Website:  https://openfoam.org
    \\  /    A nd           | Version:  7
     \\/     M anipulation  |
\*---------------------------------------------------------------------------*/
FoamFile
{
    version     2.0;
    format      ascii;
    class       vectorField;
    location    "0.13/lagrangian/reactingCloud1";
    object      UTurb;
}
// * * * * * * * * * * * * * * * * * * * * * * * * * * * * * * * * * * * * * //


1186
(
(-0.253226 1.16538 -0.308104)
(0 0 0)
(0.12437 -0.575801 -0.864623)
(0 0 0)
(-0.18594 -4.73954 2.06257)
(0 0 0)
(0 0 0)
(-11.4893 -8.21236 -4.46185)
(0 0 0)
(0.00221488 0.929478 5.99432)
(-6.10659 -2.50873 3.72092)
(0 0 0)
(0 0 0)
(9.21336 15.758 -3.8679)
(0 0 0)
(0 0 0)
(0 0 0)
(-4.06346 0.19419 7.03622)
(0 0 0)
(15.049 -17.3714 -1.07025)
(2.02533 -12.5602 1.93915)
(0 0 0)
(0 0 0)
(0 0 0)
(0 0 0)
(-1.76187 2.30544 0.204447)
(0.565662 -1.82116 3.12166)
(4.07491 -1.48286 -13.3257)
(0 0 0)
(3.23603 0.898699 0.260154)
(-4.00292 3.17683 -2.11592)
(1.51035 1.13837 -4.69748)
(6.50918 -1.78389 4.62703)
(11.3148 -11.7858 -7.89245)
(4.9055 6.72641 -2.57202)
(0 0 0)
(0.464221 -1.6092 7.13014)
(0 0 0)
(0 0 0)
(0 0 0)
(0 0 0)
(2.96212 -1.41905 -3.41316)
(0 0 0)
(0 0 0)
(0 0 0)
(0 0 0)
(0 0 0)
(0 0 0)
(1.68434 -9.15297 1.09553)
(-1.42806 -1.23134 -1.62798)
(-2.95756 -2.04933 -0.955966)
(0 0 0)
(0 0 0)
(0 0 0)
(4.07473 -2.24971 10.934)
(4.37071 4.83671 -4.20587)
(0 0 0)
(0 0 0)
(2.25752 -5.565 -8.0578)
(-7.92485 -1.40984 4.60288)
(0 0 0)
(-0.596925 0.543476 -2.44394)
(-3.08593 -0.037296 1.82279)
(0.691153 -0.461003 0.774078)
(2.1606 -1.21894 5.22146)
(0 0 0)
(1.26426 -1.16096 -0.178203)
(1.35774 6.17267 -5.57918)
(0 0 0)
(0 0 0)
(0 0 0)
(0 0 0)
(0 0 0)
(4.94013 -2.80393 -7.03069)
(6.57938 -3.08323 -12.8959)
(0 0 0)
(0 0 0)
(0 0 0)
(0 0 0)
(0 0 0)
(0 0 0)
(0 0 0)
(0 0 0)
(0 0 0)
(0 0 0)
(0 0 0)
(0 0 0)
(0 0 0)
(0 0 0)
(-1.52686 3.15845 -3.21145)
(0 0 0)
(0 0 0)
(0 0 0)
(0 0 0)
(0 0 0)
(0 0 0)
(0 0 0)
(16.2466 3.06963 10.2936)
(0 0 0)
(0 0 0)
(0 0 0)
(0 0 0)
(0 0 0)
(0 0 0)
(0 0 0)
(0 0 0)
(0 0 0)
(0 0 0)
(0 0 0)
(0.292706 0.210523 0.200257)
(0 0 0)
(0 0 0)
(0 0 0)
(0 0 0)
(0 0 0)
(0 0 0)
(0 0 0)
(0 0 0)
(0 0 0)
(0 0 0)
(0 0 0)
(0 0 0)
(0 0 0)
(0 0 0)
(0 0 0)
(0 0 0)
(0 0 0)
(0 0 0)
(0 0 0)
(0 0 0)
(0 0 0)
(0 0 0)
(0 0 0)
(0 0 0)
(0 0 0)
(0 0 0)
(0 0 0)
(-20.1783 -1.23347 -1.36911)
(-2.22635 -0.449029 -3.91842)
(-6.91655 -3.47294 7.47895)
(-0.747628 -0.447795 -0.73704)
(1.25355 1.67004 -1.8885)
(-0.905075 2.15911 -2.11889)
(-9.64596 -9.2725 3.08038)
(0.225868 -0.908551 0.782043)
(0 0 0)
(0 0 0)
(3.35494 -6.997 1.85752)
(0 0 0)
(0 0 0)
(6.74194 -12.5046 3.67443)
(4.76609 -2.90482 -0.086909)
(0 0 0)
(0 0 0)
(0 0 0)
(1.3786 0.844954 -2.95692)
(0 0 0)
(-0.119245 -2.40977 1.63785)
(0 0 0)
(0 0 0)
(0 0 0)
(0 0 0)
(0 0 0)
(0 0 0)
(-6.09123 2.27152 2.19859)
(4.68447 -3.10908 0.104359)
(0.208245 -0.75342 -0.888471)
(0 0 0)
(0.189526 -0.619148 -0.445398)
(0 0 0)
(0 0 0)
(0 0 0)
(0 0 0)
(0 0 0)
(0 0 0)
(0 0 0)
(0 0 0)
(3.95506 1.78554 -0.0794938)
(0 0 0)
(0 0 0)
(0 0 0)
(0 0 0)
(-7.3548 -3.40852 5.21692)
(0.928703 2.08783 0.147491)
(0 0 0)
(0 0 0)
(0 0 0)
(0 0 0)
(0 0 0)
(0 0 0)
(-6.04937 -13.8625 2.4606)
(0 0 0)
(0 0 0)
(-1.48811 -0.479681 -3.27868)
(0 0 0)
(0.0307438 -0.0468826 -0.176912)
(7.46019 -1.68065 -9.05569)
(4.72842 4.28831 -1.9076)
(1.98476 6.7549 4.37971)
(0.0963982 -0.0491589 -0.0924769)
(-7.8418 -22.2117 3.77491)
(-2.2823 -11.6358 11.9773)
(6.17986 13.9575 9.27965)
(3.68133 2.83253 3.91309)
(2.44753 2.81828 0.908669)
(-5.64197 11.592 -7.88209)
(0 0 0)
(2.58755 -11.0206 11.0695)
(0 0 0)
(0 0 0)
(-1.05107 -3.93409 3.05352)
(3.30812 0.130011 -5.10232)
(0 0 0)
(-8.9576 8.68041 -14.979)
(0 0 0)
(0 0 0)
(2.03724 -13.9061 -5.6277)
(2.49509 3.02619 -0.656144)
(0 0 0)
(0 0 0)
(-10.0651 -5.59614 -1.86334)
(0 0 0)
(0 0 0)
(0 0 0)
(0 0 0)
(-1.03905 0.564585 1.29476)
(-0.218989 0.969316 -0.464728)
(-5.96408 1.78578 -8.54061)
(0 0 0)
(0 0 0)
(-10.3988 -5.04551 -4.08949)
(2.06082 -0.595781 2.54671)
(0 0 0)
(0 0 0)
(0 0 0)
(0 0 0)
(0 0 0)
(0 0 0)
(0.238264 -12.6612 4.07708)
(0 0 0)
(0 0 0)
(0 0 0)
(0 0 0)
(0.591683 -1.04879 -3.09266)
(0 0 0)
(-1.91593 1.19652 0.849223)
(0 0 0)
(0 0 0)
(0 0 0)
(0 0 0)
(-0.406324 -4.28454 -14.4461)
(0 0 0)
(0 0 0)
(0 0 0)
(0 0 0)
(16.962 -15.2076 -3.30309)
(0 0 0)
(-9.41333 6.28883 -1.28794)
(0 0 0)
(3.69497 2.97251 -1.54236)
(-7.80062 -5.76234 2.01787)
(-7.55182 -10.0833 0.277287)
(-1.58548 1.71568 -15.6695)
(-4.17646 -3.18306 -2.42029)
(5.96325 9.03714 -1.34578)
(-6.30748 -1.22941 4.89315)
(-0.504892 0.480142 -0.706022)
(-4.02627 -0.615732 -0.506947)
(0 0 0)
(0.312898 -0.666566 -1.80216)
(2.23965 -4.25618 -4.143)
(0 0 0)
(-6.7899 5.70501 0.946586)
(0 0 0)
(-0.00441374 -0.00489797 -0.00835748)
(-7.9942 -4.11119 0.674787)
(-0.413361 -0.58954 0.301363)
(-0.44778 0.753684 -0.0837007)
(2.39098 -10.2576 -3.95824)
(0.790868 -1.19452 -0.841699)
(4.24363 0.828886 6.46388)
(14.1948 2.12332 6.33712)
(10.4543 21.9391 -0.525321)
(5.8913 11.1833 -9.82327)
(-8.08189 -0.0195826 2.88175)
(1.08954 3.20625 -9.744)
(0.0575144 3.06824 1.68048)
(-16.8209 -0.385758 14.0574)
(1.40034 8.27867 -20.4638)
(22.8428 21.2701 -5.19055)
(-0.205479 -2.80918 1.72386)
(4.2616 13.8002 1.86276)
(11.5107 14.8658 6.10544)
(-1.91776 -5.12089 -1.17112)
(-0.297595 -1.81031 2.47335)
(-5.11191 0.547096 2.07322)
(0.960193 -2.17634 -1.83314)
(-4.60467 10.8845 -5.65668)
(-1.63124 1.5256 4.76186)
(6.75211 -7.68151 5.40227)
(-0.227441 -0.137729 -0.587834)
(-5.70431 0.272605 9.87748)
(-17.4977 -12.5071 -6.79522)
(-1.08001 1.9744 10.3321)
(-4.74828 -3.69602 -2.74213)
(-5.46331 7.79241 -1.37221)
(-3.39987 -4.75346 0.352494)
(-4.5871 -1.31563 3.0207)
(1.83026 -7.62191 4.26773)
(4.61871 -17.9229 -19.1015)
(-2.48237 -0.486194 -1.52413)
(-3.9678 0.436412 -2.5642)
(-0.43503 -2.79686 4.634)
(-7.85155 0.107417 0.90523)
(1.46687 -0.868524 4.49354)
(2.66102 6.7347 -5.21468)
(0.671959 -10.0981 2.50702)
(-4.86135 4.38334 -0.70536)
(1.85181 -0.108961 -0.337218)
(4.72128 -0.444822 -0.686857)
(-1.04226 -8.70678 -3.62835)
(-2.13625 1.00383 -0.390641)
(-1.9444 -0.762915 -1.13506)
(0.817123 1.37752 -2.06419)
(-2.50282 -3.24151 3.38519)
(4.04392 4.90984 -4.89181)
(-6.00731 -1.8063 5.80967)
(-0.813513 0.68119 2.97149)
(-5.90575 10.9742 -2.90904)
(15.6679 -18.8668 5.91924)
(3.6935 -22.9053 3.53632)
(0.00321443 0.00234003 0.0030833)
(11.326 -2.61216 -7.22742)
(0.977634 -1.46979 -1.52704)
(3.53866 -5.55571 -2.59084)
(0.00281301 1.18048 7.61308)
(4.19019 -1.55072 -1.40598)
(8.0448 -10.802 -1.40914)
(1.59572 3.76094 2.61254)
(-2.32076 0.92776 1.2525)
(5.20355 -7.74601 1.70103)
(-0.0190575 -0.682486 1.90855)
(-1.16415 -1.55814 4.94827)
(3.88112 -2.62485 -1.50954)
(0.799835 -2.7726 12.2849)
(1.32954 -0.0194442 -0.331374)
(-1.05849 -0.859862 -1.01421)
(-6.2583 3.7289 -1.12098)
(-2.91977 -3.86049 1.46589)
(0.691323 -2.1663 0.525449)
(2.55176 -16.7341 -8.62134)
(-22.4039 -13.3359 -0.747703)
(-0.87695 -0.0312744 0.35143)
(-4.49667 -10.238 -2.10137)
(-1.38198 -0.444984 3.19332)
(-2.71949 3.78368 -5.4066)
(0.0721138 -0.182318 -1.20454)
(0.0328468 -0.25702 -0.180277)
(3.52352 -1.57659 -3.35408)
(-5.23162 2.50091 -1.04139)
(-0.118409 -0.844584 -0.510419)
(0.612183 2.2307 0.0145531)
(18.842 -16.9368 0.976261)
(-0.0877986 2.49391 0.022184)
(0.0727191 -0.975553 -0.226994)
(2.25849 -2.43986 4.68293)
(3.00536 3.94442 -0.148343)
(-0.229072 4.35075 1.18544)
(-2.11835 0.0388859 -1.04944)
(-11.8478 1.59661 -7.53719)
(3.91443 0.528131 4.58384)
(0.398605 -3.87475 3.07481)
(7.83533 16.0606 3.74585)
(-28.9371 8.09911 -20.2979)
(-1.38769 1.38917 6.35633)
(2.91458 -2.88354 -3.37408)
(0.498127 -1.98401 1.52494)
(14.8771 14.8314 5.43545)
(-1.32765 1.70741 2.81533)
(-2.29319 -1.13013 1.80041)
(-4.70272 -2.90844 2.43378)
(-0.702197 -0.338197 -3.35416)
(7.31513 -13.5926 -9.61456)
(2.62285 -0.688095 3.01834)
(-2.68806 3.91717 3.17256)
(-0.440624 2.79791 1.59997)
(1.78342 6.41518 0.590679)
(-5.06858 -0.378302 -1.47351)
(5.36493 -0.302429 0.764831)
(2.30326 1.17612 -3.24118)
(-6.43892 -2.11735 -3.33253)
(14.3321 -11.0884 5.06881)
(-0.00422927 -0.155853 -0.0633846)
(-0.0575043 4.90575 -8.2879)
(-2.29431 0.143783 -3.49633)
(-5.51915 -2.30059 -2.26506)
(-5.14616 2.10877 2.53449)
(-0.121253 -3.44301 -1.9256)
(2.19849 -3.29153 -3.71783)
(-12.5193 -3.40912 5.04522)
(-3.67108 4.02489 0.996046)
(-7.87853 -14.8329 7.51627)
(1.34028 0.38661 0.29325)
(-10.3442 13.369 12.5097)
(-3.05247 0.801126 9.0544)
(-3.22069 -1.29592 1.51635)
(0.473864 -0.499505 -0.592934)
(0.136543 -4.6229 -2.4323)
(0.768753 -5.6522 -3.68379)
(4.79686 3.95391 4.29977)
(0 0 0)
(-3.63421 -3.9367 8.04621)
(-13.3656 -1.53586 -2.76589)
(0.989653 5.91377 0.472028)
(12.2227 7.27919 -3.93869)
(3.76663 -4.21993 -22.0797)
(-0.394585 0.0624978 -0.10088)
(0.67394 3.08835 0.602652)
(-2.55278 -9.97494 1.83942)
(-1.04017 -4.50455 -2.88719)
(-13.95 -3.30866 8.34703)
(0.588888 -0.00277474 0.198877)
(10.0096 0.35963 -3.67815)
(-2.49175 1.28863 0.547648)
(0.746279 6.87397 -4.71058)
(6.49137 -6.45251 -9.77834)
(0 0 0)
(-13.7016 -6.43631 -2.52617)
(10.7438 5.35534 -0.61343)
(-10.5093 6.50627 5.4108)
(0 0 0)
(-2.0575 3.77594 1.46729)
(2.24027 4.56769 -10.7031)
(-5.74255 -4.55688 2.51839)
(3.8433 2.71649 0.314546)
(17.8032 -16.003 0.922439)
(4.61559 -0.692246 -0.835811)
(1.86884 3.99277 2.36896)
(1.16508 0.586468 -0.630646)
(-0.392432 -0.050961 -2.00767)
(-6.69063 -0.432962 -2.34081)
(-2.89115 12.7693 0.984948)
(1.94543 0.706736 -3.34763)
(0 0 0)
(-2.81234 -0.937346 -4.43938)
(-13.0838 9.02476 0.759377)
(0 0 0)
(5.27842 -7.6113 -3.81809)
(9.00842 8.75378 -1.63167)
(10.6933 -1.02753 -0.357147)
(0.209702 -1.58744 8.2693)
(-0.971161 1.16397 -1.14958)
(0.972705 1.00133 0.637402)
(0.211153 0.709705 -0.875145)
(0 0 0)
(-0.680433 -0.149217 -0.123653)
(2.97112 -2.4115 -3.51184)
(-2.13385 8.06395 5.71385)
(17.4219 -9.1565 -8.30337)
(-1.18342 3.22899 1.30721)
(-14.7172 0.288433 -0.7209)
(3.22368 -11.5843 -3.61389)
(8.87036 -12.9928 -32.4696)
(2.28917 1.2944 -0.165806)
(-6.94369 -8.04308 10.116)
(4.04215 -2.80667 -2.65132)
(2.41571 0.0915073 2.9281)
(-2.26444 -1.26873 15.5074)
(-0.246833 0.526967 -0.336198)
(-5.78266 2.11988 -0.909379)
(0.678821 -1.53859 -1.29596)
(-2.42465 20.4514 -14.478)
(0.526583 0.455359 -1.63455)
(0 0 0)
(-4.6493 -2.84551 -3.64922)
(-0.198104 -1.37213 0.188991)
(-1.64403 1.88024 1.08117)
(-0.489888 1.02824 0.117023)
(2.18238 -6.4949 -9.42118)
(5.81354 -7.24473 11.9206)
(-1.50751 9.59032 -19.9294)
(-1.41968 -6.6995 6.17074)
(4.70088 -8.73492 -6.17855)
(22.6619 -16.9001 4.92723)
(-0.168233 -2.29998 1.41139)
(-9.55301 -1.99009 0.868506)
(-1.85794 -0.821141 0.946395)
(3.11455 7.04464 9.64359)
(0.113854 0.355064 1.65342)
(-6.47862 3.75491 1.95388)
(0 0 0)
(-4.11788 -0.983856 -3.4544)
(-0.960664 5.73558 -2.23114)
(2.1369 -0.173165 -2.72554)
(0 0 0)
(9.62283 -4.07619 -0.561211)
(2.7981 -8.32732 -12.0792)
(0.0363805 1.9408 1.06298)
(-12.7196 -3.81332 -11.8259)
(-0.710395 4.18722 -1.0435)
(0 0 0)
(-17.4068 6.08625 -4.22442)
(0 0 0)
(-4.88033 0.522312 1.9793)
(-0.0209482 0.0437081 -0.0196324)
(-4.3308 3.79367 -2.18451)
(0.574306 -0.194192 3.53726)
(1.13637 -6.18842 6.65959)
(9.11914 -2.44383 -2.15655)
(0 0 0)
(9.2643 -3.7496 3.52889)
(0.718619 -3.91344 4.2114)
(1.4118 0.108444 -1.07758)
(8.99632 3.94789 4.92569)
(-0.604958 -1.34823 1.40067)
(0 0 0)
(-2.1394 -10.0959 9.2991)
(0 0 0)
(0 0 0)
(3.01132 0.993374 1.47334)
(-3.47947 -2.83054 -4.4676)
(-6.3538 -8.48373 0.233299)
(7.16106 -6.78059 1.77188)
(22.5859 -13.7769 -6.71727)
(0 0 0)
(0 0 0)
(-3.69814 -3.00844 -4.74838)
(-0.813732 -1.81351 1.88406)
(0.398867 -0.039696 -0.799852)
(-8.46825 0.87143 3.98919)
(-4.549 1.03041 3.78194)
(0 0 0)
(0 0 0)
(0.59178 1.74145 -5.2924)
(-2.59959 -14.32 13.924)
(0.456908 2.14822 -1.83566)
(4.12627 -8.48712 -2.28566)
(15.0455 0.671005 -11.1116)
(6.16184 -8.60755 13.3966)
(0.30168 0.225204 -0.449038)
(0.631266 -0.0628247 -1.26588)
(0 0 0)
(-4.20314 -6.69612 8.29857)
(0 0 0)
(0.703689 -0.55094 1.81503)
(0 0 0)
(0.389579 0.64426 0.168377)
(4.30815 -0.842581 4.27133)
(-0.893311 -7.51272 5.45602)
(-1.85986 12.0558 3.09896)
(0 0 0)
(-3.29185 8.46039 3.94817)
(-1.36142 -7.97554 7.31607)
(1.38554 8.19117 -20.2476)
(-0.324796 41.8034 0.88039)
(-0.307847 39.6219 0.834448)
(1.1042 22.8676 -11.3484)
(-14.6326 32.3845 -10.947)
(18.0696 30.9053 -7.58588)
(-0.0796996 5.56871 -2.5427)
(-1.74115 6.24016 -7.90918)
(-0.369566 14.4972 -16.8943)
(1.81351 -1.83257 -2.38758)
(2.24668 1.27037 -0.162729)
(27.4128 -24.6409 1.42034)
(-3.99462 1.59691 2.15587)
(6.5208 -19.4063 -28.1498)
(-4.6192 10.9189 -5.67452)
(-1.33009 2.88141 -1.46566)
(-1.79105 14.6328 10.7607)
(-11.2942 12.3827 3.06438)
(-11.0959 -3.33637 10.7309)
(5.39426 6.58563 -12.8563)
(2.95236 0.271188 0.131666)
(-1.04056 -1.7801 12.6555)
(3.08703 5.85104 -17.4194)
(7.94169 -2.12829 -1.8781)
(-27.011 7.56001 -18.9468)
(-18.14 -1.17387 -6.34652)
(-5.06051 0.918138 -3.51613)
(4.11386 -1.84074 -3.91603)
(-5.31574 8.71724 -5.14928)
(2.13768 -3.21383 -3.339)
(-0.707175 1.48431 0.168928)
(12.3744 -0.697563 1.76411)
(-5.68569 0.104371 -2.81673)
(-4.41046 -1.42013 10.1912)
(3.48849 5.05534 8.61822)
(-16.6836 0.228248 1.9235)
(-3.69866 -4.95042 15.7213)
(8.24661 -9.23905 -48.3409)
(0.183439 -6.21063 -3.26768)
(-0.0901699 -0.0339509 -0.0505555)
(-6.31425 -4.91495 -3.64648)
(-5.7765 10.9328 6.28042)
(-3.30664 0.207224 -5.03902)
(1.84536 4.77856 10.778)
(7.92453 -3.90373 0.640579)
(5.54748 10.4938 -4.05832)
(-6.56193 3.90982 -1.17537)
(-0.793601 -0.15434 -2.35428)
(17.6414 -1.69517 -0.589207)
(0.924776 -8.98954 7.13365)
(-0.0102119 0.00780936 -0.0118815)
(-2.05253 0.849896 2.83424)
(4.74682 2.42389 -6.67979)
(-1.71077 1.71259 7.8362)
(-2.42803 -1.38876 1.04674)
(15.2829 26.1389 -6.41596)
(5.66662 4.53966 -17.5951)
(3.76309 -3.05429 -4.44793)
(5.00979 1.65263 2.45113)
(3.85389 5.05808 -0.190226)
(-0.452796 8.59994 2.3432)
(-2.45607 -0.08759 0.984248)
(3.00148 -11.5974 -6.61829)
(-5.06951 -2.55132 0.888098)
(-0.343549 -4.68214 -3.67195)
(-0.406729 -2.4742 3.38038)
(-1.62233 5.64988 0.63578)
(4.70914 -3.32163 2.82449)
(-7.06248 -8.02446 9.73427)
(0.796953 1.60218 8.53488)
(12.5097 -7.14687 -36.0852)
(0.516218 -0.473028 0.435523)
(-6.06065 -2.48986 3.69293)
(4.78803 4.82087 9.65759)
(1.63923 1.68747 1.07417)
(-27.9937 3.77242 -17.8086)
(0.304279 -1.11033 3.03145)
(-0.274061 0.185865 -0.563615)
(0.578158 0.497946 1.37582)
(-4.87708 2.46795 2.31237)
(-12.7136 3.9269 9.88775)
(2.43095 2.74658 -3.11985)
(6.63324 1.21064 -0.990156)
(-4.0694 0.240528 0.208369)
(-2.43187 -3.62498 -1.38305)
(-1.49955 -2.43323 6.68695)
(-7.86692 7.09338 -1.14146)
(-4.53898 -10.7541 -5.80799)
(-4.57967 -0.385192 0.109717)
(-7.72385 12.8454 1.04959)
(12.8303 -17.2276 -2.24738)
(-6.02402 1.58101 17.8687)
(3.56658 7.61997 4.52103)
(-0.870433 4.28073 -0.522001)
(-1.89142 -2.97092 2.50938)
(1.87788 0.0966525 0.776483)
(0.617751 -0.00291074 0.208624)
(1.96525 -1.24301 2.49399)
(-4.87305 -1.91202 -2.84468)
(0.114633 11.7551 2.78058)
(-0.763246 1.82878 0.304892)
(-5.65708 7.06178 -2.77259)
(-1.13278 -1.03787 -0.731382)
(2.30819 -0.507727 -0.637)
(8.43364 -5.70378 -3.28022)
(3.20344 1.86565 1.46402)
(-0.40795 -2.82559 0.389184)
(0.261171 -0.00134466 -0.132784)
(2.10036 7.12948 -5.65623)
(-5.78242 3.44441 -1.21108)
(7.82425 -7.74094 -9.05779)
(18.4202 -5.9629 15.8594)
(9.35509 -13.926 3.05816)
(-5.4712 -1.1135 3.75048)
(-0.0618519 5.27664 -8.9145)
(-5.44732 6.25453 3.80897)
(6.9019 8.91361 3.66086)
(-1.02409 1.87218 9.79714)
(1.53764 -1.56777 0.93101)
(2.05374 -0.0300354 -0.511872)
(0.108782 -0.361621 0.0687928)
(5.08233 6.1706 -6.14795)
(-0.64941 -0.393257 -1.67843)
(-37.0652 -22.063 -1.23701)
(0.981518 0.553725 2.13996)
(-1.3072 7.7049 -1.92014)
(0.198792 1.12451 0.303797)
(-0.665493 -0.894506 0.0388179)
(-6.18775 -2.03476 -3.20254)
(0.422188 -4.92651 -2.66908)
(-1.63798 -1.33061 -1.56945)
(0.741648 -3.39221 -0.153905)
(-0.659546 0.68826 -2.84808)
(-23.5427 -7.05809 -21.8885)
(-1.1037 -6.10044 -3.77792)
(-0.286767 -0.167365 0.627496)
(8.13135 -3.06997 -5.83673)
(-1.6888 1.57944 4.92989)
(0.00666536 0.00485222 0.00639345)
(5.24022 16.9693 2.29051)
(-0.294945 -1.89624 3.1418)
(-3.65695 -2.19248 2.1814)
(9.48256 -8.03399 -8.34933)
(-10.753 -1.23564 -2.22524)
(-0.343018 -1.22733 -5.31159)
(8.43022 0.302884 -3.09778)
(8.17275 -15.1861 -10.7418)
(-0.247811 7.03905 0.0626142)
(-12.9842 11.0361 -5.93092)
(-1.48367 9.4387 -19.6144)
(0.952827 1.60629 -2.407)
(-0.362871 -0.985443 -2.44718)
(-0.077117 1.40328 -2.07742)
(-6.03869 7.80445 7.30283)
(10.1868 5.0777 -0.581627)
(5.58706 11.3914 -26.6928)
(3.26686 -0.857049 3.75947)
(15.2181 10.8534 -3.65026)
(-11.9875 -2.49725 1.08984)
(-1.85494 -4.95313 -1.13275)
(-23.865 1.36747 4.20341)
(-0.308245 0.0488224 -0.0788058)
(-18.7115 11.5842 9.63376)
(-4.11839 -5.33391 5.57033)
(0.0125385 -0.035647 0.00953101)
(11.163 -1.05174 -1.62401)
(-11.8709 26.2724 -8.88091)
(13.6452 -3.34944 -15.8292)
(-3.55858 30.0159 -21.249)
(17.0421 10.1493 -5.49169)
(4.9436 -0.290882 -0.900237)
(0.0803217 -0.628501 -0.440839)
(-0.980607 -0.589437 3.18884)
(-2.15258 -0.676834 0.0679199)
(-13.8454 -5.77128 -5.68215)
(-10.4703 -4.91842 -1.93041)
(-0.687337 0.575537 2.51061)
(-9.87466 -4.5172 6.32306)
(3.44419 1.35757 3.1219)
(2.18732 0.630943 0.478581)
(-4.35103 -1.24792 2.86524)
(-0.631001 0.186366 -0.0481681)
(-0.816432 1.04996 1.73127)
(-7.16714 14.1853 -4.3853)
(-1.52963 -0.874907 0.659436)
(-6.8565 -4.19638 -5.38165)
(0.0619076 -0.156515 -1.03406)
(-5.06922 13.5302 -3.61694)
(-4.78342 2.47379 1.05132)
(5.54438 -7.9948 -4.01047)
(0.222947 -0.00114786 -0.11335)
(-2.92717 -3.17081 6.48081)
(3.85011 2.91425 -0.74864)
(1.12347 0.63526 -0.0813739)
(0.102381 0.902141 14.6176)
(0.289617 -2.1924 11.4206)
(2.94501 -0.441693 -0.533296)
(-2.18742 17.871 13.142)
(17.9485 -7.26442 6.83681)
(4.18188 -0.774355 -1.3671)
(-10.4901 3.84559 -1.64967)
(6.04801 13.2879 -3.37737)
(3.81489 -1.02235 -0.90217)
(6.62862 0.894327 7.76219)
(1.90992 4.50147 3.12695)
(-10.1076 -11.7079 14.7253)
(0.480369 0.415396 -1.4911)
(13.2717 -12.5666 3.28385)
(36.5953 -27.2909 7.95669)
(-1.6565 -0.797816 -7.91256)
(0.870632 -3.46767 2.66532)
(1.25474 -0.761081 -1.39571)
(-3.78182 -2.3389 1.95719)
(-4.00574 -1.28156 4.31332)
(-0.0236326 0.0493089 -0.0221481)
(-0.0226647 -0.811669 2.26981)
(-1.94434 2.83338 2.29479)
(-7.73043 3.16774 3.80725)
(0.155244 -0.718738 -1.07926)
(-14.1602 0.277518 -0.693618)
(-0.537442 -0.117859 -0.0976677)
(-25.6123 8.9553 -6.21581)
(0.745333 -3.40907 -0.15467)
(-1.69601 1.87502 -8.6221)
(-12.5415 1.17138 0.426999)
(0.0622906 0.194258 0.904597)
(-2.37446 -1.04943 1.2095)
(2.21407 9.12409 -0.808539)
(-2.57611 -2.92701 3.55068)
(-3.25127 5.96677 2.31862)
(15.2816 -3.52445 -9.75158)
(-6.49692 5.69113 -3.27713)
(-4.36773 19.2909 1.48798)
(4.38878 1.44777 2.14729)
(-5.42102 0.0580693 -0.390721)
(0.361857 1.21624 -1.49975)
(3.51592 -4.38148 7.20934)
(-1.1212 -5.29096 4.87337)
(0.495102 10.3296 9.61283)
(10.2119 -4.32572 -0.595566)
(-4.32551 -1.74047 2.03651)
(10.7732 8.88005 9.65682)
(-15.942 -3.78114 9.53898)
(-0.0716419 -2.03428 -1.13773)
(-6.54099 -5.19046 2.86855)
(-1.02968 6.67447 1.71569)
(-0.359991 -0.0467483 -1.84171)
(1.1476 6.85757 0.547361)
(-7.03995 -1.68201 -5.90566)
(2.25548 5.10154 6.98363)
(-0.394519 0.842264 -0.537354)
(-2.94506 2.33728 -1.55674)
(0.558536 0.481046 1.32912)
(-1.68995 -0.563257 -2.66766)
(-1.59253 -0.307009 -1.02581)
(-0.00425614 0.00325481 -0.00495202)
(1.0646 -1.15009 2.20742)
(4.89574 2.53313 -1.95499)
(3.33059 0.924959 0.267756)
(-0.32911 -1.17756 -5.09623)
(-7.88899 -3.24098 4.80699)
(4.78075 -7.11663 1.56282)
(3.81058 -0.745267 3.77802)
(-9.49229 -14.5437 10.1116)
(7.30699 -5.07362 -4.79279)
(0.920828 0.070731 -0.702837)
(-1.52218 5.3011 0.596532)
(0.696446 -1.0629 -1.2802)
(-0.206302 -0.701001 10.1979)
(0.22949 -0.0775983 1.41347)
(-0.114242 0.525754 -0.139)
(-8.23741 0.472005 1.45088)
(4.83379 5.98926 -5.60014)
(14.3942 0.641959 -10.6306)
(6.89208 -9.11122 3.4881)
(-4.2851 0.253278 0.219414)
(-2.42829 2.9104 -2.87441)
(0.914257 -4.96822 0.59465)
(1.8509 -7.70786 4.31586)
(-2.94124 -1.64793 20.1423)
(-1.19653 2.59206 -1.31848)
(7.82008 -4.46764 -22.5576)
(0.523333 0.865452 0.226186)
(-1.08894 0.450902 1.50367)
(1.70673 3.61164 4.75192)
(-3.40661 0.618067 -2.36697)
(-5.34538 -2.44526 3.42282)
(13.5866 -3.33506 -15.7613)
(-0.414737 -2.29237 -1.41963)
(1.08693 1.22806 -1.39495)
(6.78025 10.5482 3.45682)
(-0.685568 -0.539219 -1.4976)
(18.0501 30.8718 -7.57767)
(-6.33558 1.18101 -4.34141)
(-19.7932 13.2234 -2.70812)
(-54.119 -3.3082 -3.67199)
(-10.4484 16.7385 1.21778)
(6.95857 -10.0755 -1.52475)
(-9.87241 9.28756 -7.70424)
(-21.9599 4.02594 9.79884)
(-11.769 0.629037 11.5247)
(1.54471 17.8334 -7.96232)
(2.28058 2.44863 2.00639)
(6.44484 -3.26558 0.517425)
(-1.41598 -6.60621 -9.89278)
(-21.3449 3.48517 11.1992)
(-18.5558 -8.97532 3.09564)
(2.49596 1.88122 -7.76288)
(-27.9767 5.12901 12.4836)
(4.42598 12.5199 31.433)
(-2.19863 5.24496 -5.14726)
(-7.14973 -9.9232 7.05249)
(-1.93507 4.46468 -1.42304)
(-3.20508 6.72676 -7.31595)
(5.0271 7.35654 -8.183)
(-0.843526 0.687267 3.55373)
(0.809615 0.13525 -0.275146)
(-5.6432 14.5036 6.76834)
(4.84347 -0.392492 -6.17766)
(3.18584 -5.60722 0.660428)
(-28.1357 -6.97821 -9.30387)
(27.0194 -5.69763 21.5852)
(-3.91813 4.03021 4.77939)
(3.99258 4.13216 -23.1058)
(4.03414 0.83484 -0.796397)
(35.678 19.103 -10.238)
(-6.04433 9.33403 5.9396)
(-5.13241 2.8233 20.8461)
(-12.2762 9.11516 6.92545)
(3.21971 4.53898 -11.5051)
(-5.55755 0.690791 2.66268)
(-2.97671 5.04849 4.99703)
(-0.560403 3.10617 -0.47389)
(21.2419 16.1512 -22.1253)
(2.72768 2.48255 0.249612)
(-0.284915 3.81977 -4.3083)
(9.41067 4.92304 -10.58)
(0.815227 4.93284 -11.7718)
(-3.31508 0.816359 -1.18026)
(3.9205 -1.13341 4.84485)
(-0.917434 -0.502383 0.225572)
(-4.15815 -7.49967 6.37656)
(9.73655 10.4901 15.1635)
(-1.42577 -6.65187 -9.96116)
(1.36523 8.00047 -0.119223)
(1.37257 3.0877 1.63647)
(-2.52493 -4.89922 -23.076)
(-11.0099 6.60178 -2.81345)
(27.6274 17.0648 12.1241)
(-0.00607038 -0.00673636 -0.0114943)
(0.254803 5.94837 1.34257)
(9.92948 17.5096 4.55869)
(2.00449 2.67048 -3.0198)
(6.5364 -3.13135 -7.53168)
(16.9862 -3.22389 -6.18196)
(0.752876 -0.557212 1.63101)
(25.7818 13.2777 -18.0916)
(1.27137 11.7106 -8.02503)
(-2.95798 18.8178 -39.1049)
(-10.0483 1.4462 1.41166)
(-6.82901 18.2272 -4.87257)
(-0.381442 14.9631 -17.4372)
(4.35154 -0.780263 2.71705)
(-1.13622 0.179965 -0.290487)
(-8.03148 15.2006 8.73211)
(-1.25474 -3.9918 17.4427)
(2.8055 3.13537 1.07475)
(-3.30031 5.18758 -9.5131)
(3.5383 1.24026 -12.5113)
(-0.704621 0.689053 -3.77165)
(3.31521 6.28352 -18.7069)
(2.90667 -12.5421 -18.4735)
(-0.977764 0.657472 -1.10421)
(-6.08653 5.23337 1.89621)
(11.136 -5.16375 -0.103053)
(9.09076 -9.81614 -0.964798)
(-8.20749 7.18955 -4.13997)
(6.89644 6.82319 10.7685)
(-2.55356 -1.53322 -1.25486)
(-7.14802 0.667476 -7.31812)
(-25.3004 -0.580221 21.1439)
(-2.04949 -4.13276 -1.73714)
(3.60156 17.7419 -9.66817)
(-14.7356 15.3134 -19.6395)
(4.38324 1.95988 -5.86809)
(-9.84285 -15.6809 19.4335)
(-0.0497813 0.103868 -0.0466543)
(-6.34218 3.27992 1.39391)
(9.38235 10.1014 29.5127)
(10.3898 -5.11814 0.839857)
(-8.98114 4.34051 10.1557)
(-1.93741 0.572211 -0.147894)
(21.2543 12.9909 -25.3226)
(8.68264 -1.60776 -2.83845)
(-0.00831614 0.552973 -1.54933)
(7.43948 -2.70722 -24.3285)
(-11.6106 -2.36299 7.95901)
(38.3948 0.260746 1.41839)
(2.51583 0.27076 12.6898)
(-0.539961 -0.645199 -3.22223)
(-3.15643 -1.89731 10.2644)
(-0.0713974 -0.0254177 -0.294988)
(5.8907 -4.2294 -0.482317)
(-2.08699 2.01101 -1.6577)
(1.8062 1.67066 -2.19396)
(-8.63256 -3.47352 4.06434)
(-12.0921 1.82453 0.714837)
(8.01415 4.67795 -7.08166)
(-19.5431 2.88339 -20.2897)
(18.7029 1.15633 -16.2477)
(-10.2556 11.7753 7.1711)
(8.489 -1.22536 0.281902)
(-9.54887 7.57826 -5.04748)
(-5.39945 -3.57342 -7.95779)
(2.31789 -7.26322 1.76174)
(7.33732 -15.0918 -4.06436)
(2.77667 5.64404 -6.25489)
(-5.94485 8.41244 9.98799)
(4.73987 1.88477 6.60846)
(-3.96092 5.18293 0.459623)
(14.6311 3.50385 8.0041)
(3.42778 4.46909 2.44546)
(-0.862858 -1.63284 0.0582329)
(0.0862666 4.60209 2.52057)
(0.989741 -0.106433 -0.0725363)
(3.16198 2.94671 -2.86081)
(5.28231 1.46698 0.424661)
(-0.380273 1.75006 -0.462684)
(6.11645 13.8345 18.9384)
(4.34725 -1.91389 -3.69647)
(8.04131 17.6673 -4.49048)
(-0.443833 -0.656545 1.34359)
(-17.227 0.337623 -0.843841)
(-8.67254 1.40946 -1.65342)
(4.56429 0.234919 1.88728)
(-5.70586 -0.479915 0.136697)
(0.150847 16.9082 -10.8384)
(-5.29934 -20.7071 3.81848)
(0.796558 -0.128014 0.284088)
(6.53145 -3.30947 0.524379)
(21.2768 15.1745 -5.10354)
(-6.89016 -8.55719 -4.61403)
(1.16652 -4.04369 17.917)
(0.667531 -0.225715 4.11146)
(5.1567 4.69327 0.471893)
(1.16031 5.67255 -1.26631)
(-1.18016 -2.19381 -5.59846)
(-2.74085 -5.04887 7.19981)
(2.71579 0.0515596 -0.84939)
(-25.1394 4.10474 13.1902)
(-2.09091 2.31161 -10.6297)
(4.68363 3.36413 -4.27073)
(-5.71205 10.1385 -17.3637)
(23.8459 9.05971 -29.5337)
(4.02467 -9.92118 -14.3653)
(4.83487 -0.391795 -6.16669)
(-0.223902 0.707044 -0.0778181)
(2.52777 -1.49667 7.74343)
(-1.81174 -0.46303 1.2335)
(0.395819 -4.61881 -2.50238)
(0.523195 1.04002 3.07459)
(-1.22051 0.617036 2.70545)
(3.76472 1.78788 -6.07237)
(6.65498 3.72721 -5.3396)
(-5.43319 6.14746 -13.7143)
(6.31113 12.8498 -3.54342)
(2.39037 0.923866 -0.482152)
(-5.38378 -1.72243 5.79716)
(-1.41865 1.8918 -2.84204)
(-2.16839 -2.91458 0.126481)
(-9.39394 -0.22579 -4.60803)
(7.66733 13.2099 11.0735)
(0.819968 1.35601 0.354392)
(12.1706 8.69933 -11.5846)
(0.00423644 1.77783 11.4654)
(11.4355 6.45013 23.43)
(-0.537194 -1.88972 -3.31613)
(-25.0321 17.3143 -23.2733)
(-0.0338424 -3.483 2.26408)
(-2.29073 -2.09881 -1.47902)
(-5.54761 0.338066 9.77278)
(0.621951 9.7411 1.58407)
(-8.67693 0.0929462 -0.625391)
(-12.3483 -13.6561 4.38774)
(7.7011 1.5937 -1.52031)
(0.487168 -4.83746 3.152)
(-2.5775 -1.16449 -3.19996)
(13.8536 5.82434 0.678165)
(8.34651 6.31769 -1.62295)
(1.56725 6.45857 -0.572331)
(-0.871086 -0.531819 1.12664)
(-0.685527 0.715372 -2.96027)
(-1.3317 2.70528 0.329648)
(2.14126 12.6589 -31.2912)
(-19.9677 3.77154 -17.0955)
(10.7477 22.0302 5.13816)
(-5.17744 0.740606 0.613725)
(-19.3923 15.918 15.6186)
(26.494 24.6699 -6.0202)
(2.38612 -4.43903 3.87993)
(3.97588 13.8776 5.43827)
(0.812256 1.12039 1.90912)
(2.50128 1.41111 0.675901)
(3.80821 3.05084 -11.8246)
(0.164511 0.51304 2.38906)
(-6.42803 -35.4092 34.43)
(4.98731 7.11395 7.90265)
(-11.0932 0.253911 -17.0562)
(-4.08241 -1.28363 0.128812)
(-0.478271 1.14596 0.191053)
(-12.9741 25.855 10.2792)
(-9.72854 -5.83261 5.80313)
(-1.32385 1.20762 -1.35005)
(4.86455 -7.28309 -8.22633)
(0.373368 -8.29128 -3.59526)
(-1.56664 -0.343561 -0.284701)
(26.374 -7.08471 -5.21149)
(-0.563072 -1.00588 1.64033)
(8.18797 -1.76054 6.9194)
(7.21673 8.9418 -8.36087)
(0.584586 -0.664624 2.5524)
(-9.46082 13.163 -18.809)
(-6.61909 4.67337 17.4092)
(4.83939 16.0482 -11.5922)
(-6.52328 -3.28295 1.14278)
(0.148464 -0.68735 -1.03213)
(-0.953386 14.8663 0.90163)
(-34.2155 -11.51 13.3998)
(-0.978006 -0.190203 -2.90133)
(-2.06987 -0.399032 -1.33328)
(0.086279 0.760252 12.3185)
(0.580124 2.49695 3.12108)
(-9.48906 1.08506 -0.220938)
(-7.1366 -2.49219 -8.29568)
(-0.0129501 -0.477224 -0.194085)
(-16.6335 21.4973 20.1156)
(-13.8281 11.7534 -6.3164)
(1.57581 4.6372 -14.0928)
(7.76431 -6.39837 12.9552)
(-0.0100703 -0.0111751 -0.0190682)
(7.82739 -28.1279 -8.77487)
(15.2084 14.7785 -2.75465)
(-18.1425 1.69452 0.617694)
(0.0556433 -0.521698 -0.336755)
(-0.342833 4.78763 -1.02844)
(-2.73623 1.28576 -0.500355)
(-6.7656 3.23421 -1.34674)
(2.13973 -1.96775 0.575111)
(-3.82435 7.56918 -2.33997)
(14.6944 17.4215 6.0387)
(-1.89327 -3.20325 2.86369)
(3.58509 0.912374 -22.6856)
(1.83363 -1.11222 -2.03965)
(2.3326 0.919425 2.11432)
(-4.28424 -1.42793 -6.76283)
(-0.295142 -1.00287 14.5894)
(-4.21675 0.0291468 -8.32952)
(8.28167 12.884 4.2223)
(0.381264 11.5672 12.9816)
(0.980758 -14.7386 3.65912)
(-1.53948 -1.21084 -3.36294)
(-8.50219 15.799 -4.188)
(2.63493 9.47817 0.872704)
(0.123507 0.698639 0.188745)
(-0.0468985 2.46563 -1.63091)
(1.95819 7.13533 0.046551)
(3.06654 3.42711 1.17475)
(3.63045 -2.60098 5.2103)
(-2.04223 1.9068 4.63718)
(-0.0539552 0.981808 -1.45347)
(28.0806 16.5206 -0.957954)
(2.0951 0.379782 0.803134)
(-0.388911 -2.77402 -1.67646)
(-14.0961 -4.09151 -1.67106)
(6.22194 8.94583 -1.73381)
(-3.88605 3.98166 -1.59321)
(5.58972 -8.77589 -4.09252)
(-0.0352112 0.0979428 0.0539126)
(11.2181 -9.50444 -9.87749)
(-9.21195 8.66624 -7.18884)
(2.87662 6.08725 8.00915)
(21.2355 21.1702 7.75853)
(-6.4014 0.305919 11.0846)
(-15.827 -21.1325 0.581135)
(5.98381 -8.62844 -4.32832)
(-1.21458 7.71243 4.4103)
(0.129272 -4.40175 5.13915)
(4.91971 -0.962188 4.87766)
(21.5943 30.8747 25.6136)
(-3.45377 14.7792 -5.36903)
(0.613898 12.8081 11.9193)
(-4.52043 6.44757 -1.13539)
(-18.7888 -3.27429 -12.5736)
(-17.9749 12.0086 -2.45934)
(1.55992 -2.0142 0.515903)
(14.7413 12.8017 10.1217)
(0.238613 -1.8063 9.40939)
(-2.18864 -3.06 0.226915)
(-4.58452 -2.02619 2.33526)
(6.85483 17.3487 -13.4331)
(1.57318 -2.40095 -2.89181)
(6.03502 3.12261 -2.40994)
(15.8244 0.705742 -11.6868)
(2.17873 3.64403 -0.677653)
(1.68578 7.72515 1.50746)
(-1.62017 -0.317324 -0.994753)
(0.362895 3.0803 2.41074)
(13.0265 -2.02028 -8.1841)
(-5.88893 -2.90218 4.62348)
(0.890935 -4.08439 -1.87975)
(0.189651 -2.54424 -0.591999)
(-2.43155 0.260234 0.986156)
(1.20405 -2.72905 -2.29869)
(-2.40418 15.5841 4.00593)
(-7.37852 -4.51587 -5.79138)
(-14.0009 -0.0339246 4.9923)
(-0.0775483 -1.06019 0.650591)
(5.41325 -2.00336 -1.81637)
(-5.20964 0.971125 -3.56987)
(14.5081 2.89906 -10.9923)
(-0.0286254 0.0656577 -0.00712454)
(3.03321 5.705 7.34158)
(-37.433 -4.18143 25.6501)
(-0.467544 60.176 1.26732)
(20.0728 7.62623 -24.8607)
(10.0961 18.5932 12.2088)
(4.217 20.651 -0.506558)
(-2.13857 -5.62684 -1.63734)
(-25.8319 6.95415 27.651)
(2.67776 28.8344 4.10336)
(1.24067 25.6938 -12.7509)
(9.18631 16.9177 11.1087)
(-6.51334 0.716392 -4.20925)
)

