/*--------------------------------*- C++ -*----------------------------------*\
  =========                 |
  \\      /  F ield         | OpenFOAM: The Open Source CFD Toolbox
   \\    /   O peration     | Website:  https://openfoam.org
    \\  /    A nd           | Version:  7
     \\/     M anipulation  |
\*---------------------------------------------------------------------------*/
FoamFile
{
    version     2.0;
    format      ascii;
    class       scalarField;
    location    "0.115/lagrangian/reactingCloud1";
    object      age;
}
// * * * * * * * * * * * * * * * * * * * * * * * * * * * * * * * * * * * * * //


633
(
0.006721
0.006625
0.006457
0.006313
0.006217
0.006145
0.006289
0.006169
0.006193
0.006361
0.006265
0.010609
0.006001
0.006121
0.006241
0.005905
0.005929
0.006025
0.006073
0.006049
0.005881
0.005977
0.006097
0.005809
0.005737
0.005617
0.005641
0.005689
0.005857
0.007393
0.005785
0.005521
0.005761
0.00552062
0.005713
0.005377
0.005425
0.005545
0.005497
0.005833
0.005473
0.005305
0.005281
0.005209
0.005185
0.005953
0.005401
0.005449
0.005329
0.005113
0.005233
0.005065
0.005257
0.005041
0.005017
0.004993
0.005161
0.005569
0.002137
0.002017
0.001585
0.001561
0.001537
0.001513
0.001489
0.001465
0.001441
0.001417
0.001393
0.001369
0.001345
0.001321
0.001297
0.001273
0.001249
0.001225
0.001201
0.001177
0.001153
0.001129
0.001105
0.001081
0.001057
0.001033
0.001009
0.000985
0.000961
0.000937
0.000913
0.000889
0.000865
0.000841
0.000817
0.000793
0.000769
0.000745
0.000721
0.000697
0.000673
0.000649
0.000625
0.000601
0.000577
0.000553
0.000529
0.000505
0.000481
0.000457
0.000433
0.000409
0.000385
0.000361
0.000337
0.000313
0.000289
0.000265
0.000241
0.000217
0.000193
0.000169
0.000168625
0.000145
0.000121
9.7e-05
7.3e-05
4.9e-05
2.5e-05
1e-06
0.004105
0.003217
0.002953
0.00288062
0.002833
0.002857
0.002737
0.002713
0.002665
0.002641
0.002689
0.002617
0.002593
0.002521
0.002569
0.002545
0.002497
0.002473
0.002425
0.002449
0.002377
0.002401
0.002353
0.002329
0.002281
0.002305
0.002257
0.002233
0.002209
0.002161
0.002185
0.002089
0.002113
0.002065
0.002785
0.002041
0.001969
0.001993
0.001921
0.001945
0.001873
0.001897
0.001825
0.001849
0.001801
0.001753
0.001777
0.001729
0.001681
0.001705
0.001657
0.001609
0.001633
0.005593
0.004201
0.003961
0.003937
0.003889
0.004009
0.003985
0.003841
0.003865
0.006793
0.003913
0.004561
0.004249
0.003745
0.003721
0.003769
0.003697
0.003817
0.004225
0.003577
0.003553
0.003481
0.003673
0.003433
0.003409
0.003601
0.003385
0.003361
0.003337
0.003625
0.003649
0.003793
0.003505
0.003289
0.003265
0.003457
0.003241
0.003121
0.003313
0.003169
0.003193
0.003097
0.005137
0.003145
0.002977
0.003001
0.002929
0.002881
0.004537
0.002905
0.003025
0.003529
0.003073
0.004897
0.003049
0.002809
0.002761
0.004849
0.005089
0.004801
0.004705
0.005353
0.006697
0.004681
0.006337
0.004585
0.007249
0.004921
0.004753
0.004873
0.004489
0.004969
0.004465
0.004417
0.004945
0.004825
0.004513
0.004609
0.004657
0.004321
0.004345
0.005665
0.004441
0.004393
0.004273
0.004297
0.004633
0.004153
0.004777
0.004729
0.004129
0.004369
0.004177
0.004033
0.009145
0.004081
0.004057
0.014545
0.014665
0.013705
0.014521
0.013561
0.012601
0.012913
0.012145
0.0127206
0.012265
0.012313
0.012289
0.012169
0.012409
0.012433
0.012337
0.012241
0.012097
0.011809
0.012001
0.011953
0.012625
0.011977
0.011929
0.012529
0.011857
0.011785
0.011737
0.011905
0.012457
0.012769
0.011521
0.011569
0.011545
0.011449
0.011401
0.011353
0.011833
0.013513
0.011473
0.011713
0.011377
0.011881
0.011641
0.011665
0.011281
0.011305
0.011161
0.011137
0.011017
0.011617
0.011497
0.011257
0.011209
0.011761
0.011593
0.011185
0.011041
0.010993
0.011689
0.011425
0.010873
0.011089
0.010945
0.011233
0.010753
0.010777
0.010585
0.010537
0.010897
0.014761
0.010729
0.010489
0.010561
0.010417
0.011329
0.010321
0.011065
0.010393
0.011113
0.010657
0.010297
0.010249
0.010921
0.010465
0.010849
0.010825
0.012385
0.010681
0.010129
0.0101046
0.010009
0.010273
0.010633
0.010969
0.010081
0.009841
0.009985
0.009769
0.009721
0.009793
0.009817
0.010801
0.010345
0.009697
0.009745
0.010105
0.012025
0.010153
0.010177
0.009601
0.009481
0.009457
0.009433
0.010513
0.009937
0.009889
0.009553
0.009649
0.010369
0.010201
0.009529
0.009625
0.009409
0.010033
0.010057
0.009193
0.009361
0.00948062
0.013465
0.009673
0.009265
0.009097
0.009865
0.009121
0.009217
0.009577
0.010441
0.009385
0.009001
0.008881
0.008905
0.009169
0.009337
0.009073
0.008977
0.008833
0.008785
0.008713
0.008953
0.009313
0.008641
0.009241
0.010705
0.008737
0.008617
0.008545
0.008761
0.009025
0.009913
0.008569
0.008593
0.009505
0.010225
0.008929
0.008689
0.008665
0.008377
0.008809
0.008353
0.008857
0.009049
0.008497
0.008521
0.008233
0.008449
0.009289
0.008425
0.008257
0.008113
0.008209
0.008329
0.008281
0.008089
0.008161
0.008041
0.008185
0.007969
0.007945
0.009961
0.008065
0.013825
0.008017
0.008137
0.007801
0.007849
0.00808862
0.008401
0.007705
0.007825
0.007729
0.007993
0.007897
0.007633
0.007777
0.007465
0.008305
0.007489
0.007585
0.007537
0.007873
0.007513
0.007681
0.007297
0.007561
0.007609
0.007369
0.007441
0.007201
0.007657
0.007177
0.007321
0.007225
0.007921
0.007753
0.007153
0.007081
0.007273
0.007057
0.007009
0.006985
0.007129
0.006961
0.007105
0.007345
0.006889
0.006817
0.007033
0.006769
0.006673
0.006649
0.006913
0.006865
0.006577
0.007417
0.006745
0.006553
0.006841
0.00679262
0.008473
0.006481
0.006529
0.006505
0.006409
0.006937
0.006385
0.006601
0.006433
0.014977
0.014953
0.014881
0.014809
0.014905
0.014689
0.014713
0.014569
0.014785
0.014497
0.014449
0.014593
0.014353
0.014233
0.014425
0.014857
0.014617
0.014257
0.014137
0.014185
0.014281
0.014401
0.014041
0.013969
0.014065
0.014017
0.013873
0.013921
0.014833
0.014089
0.013633
0.014209
0.013801
0.014737
0.013993
0.013897
0.013849
0.014377
0.014161
0.013945
0.014113
0.013489
0.014929
0.014473
0.013729
0.014641
0.013657
0.013537
0.013441
0.013345
0.013321
0.013393
0.013249
0.013201
0.013369
0.013057
0.013297
0.013009
0.013153
0.013225
0.013609
0.013681
0.013081
0.013273
0.012793
0.012985
0.014329
0.013033
0.013777
0.013177
0.013585
0.012673
0.012697
0.012841
0.013129
0.012961
0.012721
0.014305
0.012889
0.013753
0.013417
0.012865
0.012505
0.012193
0.012481
0.012553
0.012745
0.012361
0.012817
0.012937
0.013105
0.012217
0.012049
0.012649
0.012577
0.012121
0.012073
)


// ************************************************************************* //
