/*--------------------------------*- C++ -*----------------------------------*\
  =========                 |
  \\      /  F ield         | OpenFOAM: The Open Source CFD Toolbox
   \\    /   O peration     | Website:  https://openfoam.org
    \\  /    A nd           | Version:  7
     \\/     M anipulation  |
\*---------------------------------------------------------------------------*/
FoamFile
{
    version     2.0;
    format      ascii;
    class       labelField;
    location    "0.115/lagrangian/reactingCloud1";
    object      cellId;
}
// * * * * * * * * * * * * * * * * * * * * * * * * * * * * * * * * * * * * * //


633
(
24
54
120
85
82
79
118
114
115
153
189
297
219
222
221
213
217
257
293
293
325
396
435
397
430
427
464
467
540
578
574
572
609
571
608
599
640
678
677
712
746
708
777
774
809
841
842
869
895
920
921
973
1002
1002
1029
1054
1058
1037
1021
1021
1042
1036
1003
1003
983
961
945
946
931
901
890
881
850
833
826
804
440
781
762
742
724
706
690
682
664
646
280
606
585
562
563
547
528
514
485
465
441
421
424
402
385
373
367
347
325
307
281
296
268
242
233
226
201
185
169
161
154
132
104
113
108
83
79
65
47
20
4
3
975
975
977
917
978
897
1003
939
940
1009
796
921
796
929
839
881
861
840
893
778
823
697
759
781
788
739
768
657
723
703
658
665
661
645
598
622
609
557
585
580
548
563
523
522
502
458
457
459
443
437
397
391
399
600
1004
1012
971
911
844
865
915
892
200
805
661
642
750
751
666
669
563
481
634
593
533
443
471
451
383
409
411
390
324
281
283
303
329
330
283
310
276
203
228
206
232
100
186
177
152
139
118
62
48
43
21
24
0
23
10
14
460
492
487
509
573
656
650
679
675
730
707
707
763
726
788
783
808
817
815
812
842
923
917
946
978
1003
1003
405
383
380
348
323
300
286
259
242
252
196
205
184
0
17
21
34
29
151
324
147
146
142
276
276
190
236
189
278
230
234
230
234
273
314
230
271
313
271
266
270
269
312
357
310
311
349
351
396
348
434
485
347
391
392
384
389
389
346
428
433
430
425
514
558
431
424
470
510
470
514
511
511
504
508
551
551
552
544
544
592
589
594
721
592
587
629
631
842
626
624
669
664
671
669
671
714
753
798
794
922
750
750
792
744
834
833
830
824
830
831
830
868
869
865
871
874
870
911
914
910
915
914
951
949
947
984
72
44
24
8
26
99
7
8
20
7
41
95
14
13
164
240
94
40
33
92
38
95
93
129
128
91
85
88
124
87
123
161
123
125
155
231
266
192
300
301
185
229
189
263
299
219
226
226
447
300
298
296
258
258
333
256
333
294
366
367
328
328
400
401
361
356
363
398
393
361
397
395
397
430
429
467
467
538
500
501
499
498
572
606
531
569
533
604
607
565
604
598
630
632
632
661
724
656
689
686
689
721
689
718
714
747
715
749
718
749
745
748
773
777
774
773
802
837
833
837
866
863
860
866
857
919
948
952
982
979
1011
1008
1005
1010
1009
1036
1032
1056
1054
1052
1056
1051
1055
1056
609
641
637
669
665
666
667
693
724
724
722
721
749
721
754
815
783
751
749
777
783
779
809
806
807
807
805
809
840
807
805
806
836
833
839
835
835
870
865
865
867
861
793
925
891
926
897
894
921
917
920
918
917
917
978
947
981
978
975
1007
1003
1005
1004
1021
1003
1016
899
1015
1030
1020
1020
1014
1016
1017
1029
1029
1027
933
1028
1029
1028
1028
1039
1032
1049
1049
1050
1043
1048
1051
1060
1046
1053
1058
1052
1055
1055
)


// ************************************************************************* //
