/*--------------------------------*- C++ -*----------------------------------*\
  =========                 |
  \\      /  F ield         | OpenFOAM: The Open Source CFD Toolbox
   \\    /   O peration     | Website:  https://openfoam.org
    \\  /    A nd           | Version:  7
     \\/     M anipulation  |
\*---------------------------------------------------------------------------*/
FoamFile
{
    version     2.0;
    format      ascii;
    class       vectorField;
    location    "0.115/lagrangian/reactingCloud1";
    object      coordinates;
}
// * * * * * * * * * * * * * * * * * * * * * * * * * * * * * * * * * * * * * //


633
(
(1.81148 0.0924799 3.11209e-07)
(1.78408 0.078711 -2.58556e-07)
(1.74149 0.0903646 1.87945e-08)
(1.75775 0.0726175 -4.18856e-07)
(1.76219 0.0439821 1.21264e-13)
(1.74791 0.0259369 -4.05517e-14)
(1.73137 0.0755996 3.25282e-07)
(1.73435 0.0482164 -1.03001e-13)
(1.7395 0.0540045 3.81246e-07)
(1.70766 0.0772112 -2.15826e-07)
(1.6778 0.0843334 1.3438e-07)
(1.61717 0.0984625 -4.83119e-07)
(1.6663 0.042936 -2.37417e-14)
(1.65775 0.0715023 -5.8932e-08)
(1.65542 0.0607197 -1.68307e-07)
(1.6475 0.00969595 -1.20413e-14)
(1.64398 0.0353204 -5.46438e-15)
(1.62952 0.0691168 -1.60786e-07)
(1.5999 0.0736442 2.30062e-09)
(1.59697 0.075754 -1.21416e-08)
(1.58918 0.0504146 -1.60974e-07)
(1.54454 0.062639 1.05875e-07)
(1.52509 0.0851585 2.62087e-07)
(1.54209 0.0648512 4.90134e-08)
(1.51201 0.0510209 -3.8447e-08)
(1.51387 0.0292684 -9.45196e-13)
(1.50475 0.0469633 -7.20393e-14)
(1.49384 0.0690652 -5.44375e-07)
(1.45285 0.0869064 8.31887e-08)
(1.42887 0.103427 -2.96274e-07)
(1.44197 0.0804984 -2.46358e-09)
(1.43686 0.0646396 2.23374e-07)
(1.42213 0.083022 -3.55825e-08)
(1.431 0.0579594 -1.21406e-07)
(1.41403 0.0738462 -5.5833e-07)
(1.4158 0.015941 -1.56387e-14)
(1.40019 0.0522285 -7.31432e-13)
(1.38313 0.0795603 2.3095e-07)
(1.37963 0.069285 2.36484e-08)
(1.35848 0.0809912 -3.64067e-07)
(1.35009 0.079723 -1.83372e-07)
(1.35388 0.0475757 -1.44962e-12)
(1.32615 0.0562909 -1.85774e-07)
(1.32682 0.0348691 -8.16341e-12)
(1.30702 0.044813 -2.56186e-13)
(1.2896 0.0774319 -3.38838e-07)
(1.29156 0.0865343 2.99528e-07)
(1.28283 0.086768 -1.11595e-07)
(1.26398 0.0788533 8.50288e-08)
(1.24385 0.0614909 -1.19331e-07)
(1.23713 0.0731062 1.33823e-07)
(1.21467 0.0563485 1.77204e-07)
(1.20572 0.0708884 3.18936e-07)
(1.19754 0.0677962 -7.04268e-08)
(1.18875 0.0739029 1.37215e-07)
(1.17378 0.060144 -8.11725e-07)
(1.16893 0.0860202 -2.10459e-07)
(1.17908 0.110831 6.11381e-07)
(0.424999 0.139401 -1.83375e-07)
(0.426065 0.144688 -3.63847e-08)
(0.427066 0.131921 3.10952e-11)
(0.42255 0.0249917 9.28107e-12)
(0.422117 0.123985 -6.10775e-11)
(0.419326 0.123942 -5.12199e-11)
(0.416603 0.124814 1.33563e-11)
(0.412866 0.134428 8.29598e-08)
(0.409376 0.10806 -8.7935e-11)
(0.405541 0.0973017 -1.26829e-10)
(0.40091 0.0653068 3.04868e-12)
(0.39878 0.135128 -3.41054e-09)
(0.394356 0.0645656 2.59122e-12)
(0.393979 0.129462 -4.2991e-13)
(0.387462 0.0639798 -1.38362e-12)
(0.382762 0.0455464 -2.27599e-11)
(0.382665 0.0967811 -3.21501e-11)
(0.379983 0.109646 -6.3653e-11)
(0.296091 0.124064 -2.77387e-08)
(0.37401 0.12576 -3.23368e-11)
(0.370618 0.118027 -2.88829e-11)
(0.366813 0.11686 -3.87141e-12)
(0.361623 0.105162 -6.38722e-11)
(0.356532 0.0877213 -8.0858e-11)
(0.351229 0.0638276 -4.4256e-12)
(0.350617 0.114755 -6.51964e-11)
(0.346048 0.102795 -9.05033e-11)
(0.341546 0.0878878 -5.25427e-13)
(0.258826 0.129077 -4.63544e-08)
(0.333783 0.0851334 -1.17734e-10)
(0.330061 0.0975966 -8.59576e-11)
(0.326545 0.116387 -4.87863e-12)
(0.322683 0.106526 2.08492e-11)
(0.317471 0.0809342 1.1359e-11)
(0.313511 0.0737747 1.47582e-12)
(0.309042 0.0372191 -1.57647e-11)
(0.30647 0.0906058 -4.94992e-11)
(0.302249 0.0953499 7.55939e-12)
(0.297721 0.122539 -5.41512e-11)
(0.293766 0.121813 4.86839e-11)
(0.290198 0.10004 2.14607e-11)
(0.286212 0.112604 -8.60794e-12)
(0.282212 0.0908739 -2.25722e-11)
(0.27733 0.0412078 4.61619e-12)
(0.273759 0.0778853 -2.83853e-12)
(0.269751 0.0794509 1.30243e-12)
(0.266501 0.0963773 -3.45394e-11)
(0.261882 0.0816003 3.25409e-12)
(0.258149 0.121428 6.02484e-12)
(0.253477 0.0244051 7.50388e-14)
(0.250288 0.0730414 -6.96286e-12)
(0.246283 0.114325 -3.93333e-12)
(0.241711 0.0389033 -2.67301e-12)
(0.23872 0.0896728 -2.71929e-12)
(0.233797 0.118198 1.09513e-11)
(0.230508 0.0954869 -5.22756e-12)
(0.226115 0.0665141 3.27168e-12)
(0.222454 0.121387 9.47709e-12)
(0.218343 0.0341024 -1.13507e-12)
(0.214543 0.048855 1.23664e-12)
(0.210494 0.0975476 -1.54286e-13)
(0.206742 0.0434838 2.47146e-13)
(0.206566 0.0758249 2.41766e-12)
(0.202519 0.107337 -1.18972e-13)
(0.198444 0.00360415 -4.38358e-15)
(0.194728 0.0962622 3.48236e-12)
(0.190209 0.077492 -6.4688e-13)
(0.18492 0.126941 -1.13849e-12)
(0.183109 0.0983848 1.072e-11)
(0.178422 0.103904 -8.88775e-16)
(0.556404 0.153485 4.41856e-08)
(0.554709 0.146823 -2.21676e-07)
(0.555879 0.136124 -5.75653e-09)
(0.542888 0.136784 -1.17264e-07)
(0.554984 0.126927 -6.76676e-11)
(0.536577 0.140732 -1.09519e-09)
(0.559183 0.0882062 -1.11692e-11)
(0.545393 0.122599 9.51656e-11)
(0.545085 0.112825 2.4018e-12)
(0.554933 0.0392843 9.92408e-12)
(0.517473 0.148792 -2.52545e-07)
(0.542323 0.102329 -1.12875e-13)
(0.516184 0.145254 -2.81915e-08)
(0.539782 0.0464647 7.32578e-11)
(0.522575 0.12555 1.96865e-07)
(0.534012 0.105799 5.3565e-12)
(0.528327 0.105456 5.78232e-11)
(0.522562 0.119378 1.91713e-11)
(0.528981 0.0147461 -1.30322e-12)
(0.51216 0.131189 1.02475e-06)
(0.518163 0.0921503 1.46242e-11)
(0.495018 0.14698 -6.63622e-08)
(0.507474 0.127977 9.30097e-11)
(0.509866 0.10962 3.59668e-11)
(0.510438 0.0522365 6.75859e-14)
(0.503679 0.124189 1.04367e-10)
(0.507174 0.0557409 5.22385e-11)
(0.486394 0.142031 4.29517e-09)
(0.498399 0.0972054 1.04999e-10)
(0.493462 0.0936348 1.2471e-11)
(0.486083 0.138563 6.38435e-11)
(0.486833 0.0814695 7.86549e-11)
(0.485754 0.115061 1.30855e-10)
(0.483952 0.0767802 6.17318e-12)
(0.472355 0.138572 1.38209e-07)
(0.479576 0.100098 4.44466e-13)
(0.473914 0.0424126 2.41029e-11)
(0.465918 0.146013 3.5818e-08)
(0.467651 0.0792126 -4.36705e-12)
(0.467978 0.115241 2.47901e-11)
(0.461825 0.0544638 -2.07989e-12)
(0.463687 0.0972635 -6.44989e-13)
(0.45588 0.0928476 -8.90835e-12)
(0.458044 0.105228 8.59747e-11)
(0.452761 0.0988834 1.28891e-10)
(0.445141 0.135368 2.77342e-10)
(0.444274 0.137831 2.24646e-08)
(0.443546 0.126676 2.22072e-12)
(0.438449 0.0902319 -4.75446e-11)
(0.440476 0.137427 -2.30022e-07)
(0.434492 0.135317 2.88149e-11)
(0.428571 0.0297393 -6.06685e-13)
(0.433471 0.12183 -4.70158e-11)
(0.70084 0.110631 -2.92483e-08)
(0.808553 0.083178 -3.75649e-07)
(0.809315 0.035909 -1.97181e-11)
(0.797241 0.0420209 -5.2799e-12)
(0.779281 0.0443616 -1.2253e-10)
(0.763425 0.0788002 -3.0014e-07)
(0.767019 0.0727978 -2.70365e-07)
(0.779363 0.0214656 2.13857e-13)
(0.776928 0.0391399 1.24494e-11)
(0.61336 0.139238 -1.22417e-07)
(0.750292 0.0715663 -2.64085e-08)
(0.715586 0.0998021 -4.15464e-08)
(0.712283 0.0968167 1.52916e-07)
(0.734434 0.0506052 -9.92375e-11)
(0.733332 0.0427821 2.03285e-11)
(0.717762 0.0733195 1.30568e-10)
(0.716564 0.0576455 4.38209e-12)
(0.693776 0.0953855 4.30715e-08)
(0.673624 0.111786 1.1945e-07)
(0.705776 0.0291014 1.02414e-11)
(0.697211 0.0391689 3.00378e-11)
(0.682781 0.0385167 1.05104e-12)
(0.664373 0.104105 1.2357e-10)
(0.668517 0.0504314 4.02383e-11)
(0.664703 0.0513346 2.74482e-11)
(0.651176 0.108387 2.11805e-10)
(0.653966 0.0661199 3.59487e-13)
(0.655098 0.0548736 3.12686e-11)
(0.649259 0.0589708 1.25548e-12)
(0.6399 0.101902 1.69856e-07)
(0.631475 0.125006 -2.57895e-09)
(0.630989 0.113095 -9.01834e-07)
(0.632487 0.112845 6.32483e-08)
(0.635974 0.0725268 6.09914e-12)
(0.636477 0.0631825 1.32513e-13)
(0.629005 0.113764 1.13219e-10)
(0.632398 0.064644 -8.44846e-14)
(0.622184 0.023837 -3.348e-12)
(0.614781 0.112836 -7.13694e-11)
(0.61692 0.077674 4.00366e-11)
(0.614321 0.0926585 6.48526e-13)
(0.61457 0.0529644 -8.84273e-13)
(0.59379 0.141331 1.25708e-07)
(0.607584 0.0927921 7.90229e-11)
(0.60139 0.0201275 7.67628e-12)
(0.600778 0.0528117 -3.15247e-12)
(0.594711 0.00109887 -1.73127e-15)
(0.588008 0.00952226 -1.2794e-11)
(0.582853 0.129265 -1.36305e-07)
(0.579848 0.0879482 -1.03843e-12)
(0.577658 0.122446 -8.03034e-11)
(0.575878 0.137735 2.72378e-09)
(0.575857 0.113463 -1.12355e-07)
(0.571796 0.148397 1.06531e-07)
(0.573561 0.127466 2.02853e-07)
(0.571376 0.0738399 -1.77542e-12)
(0.570041 0.0439922 1.47938e-11)
(1.14875 0.0511759 -6.10649e-13)
(1.13523 0.080176 -1.34621e-07)
(1.12597 0.0527445 -2.42719e-12)
(1.11983 0.0193574 -2.91444e-13)
(1.0959 0.0813028 1.8912e-08)
(1.0527 0.0941651 4.78467e-08)
(1.05202 0.0587352 -5.11919e-08)
(1.04082 0.0690577 6.8044e-07)
(1.04365 0.0447222 1.97639e-11)
(1.02552 0.0457199 -1.75943e-07)
(1.02689 0.076759 3.39326e-07)
(1.03192 0.0733322 1.55794e-07)
(1.01132 0.0894567 1.82915e-07)
(1.0257 0.0229727 8.11395e-13)
(1.00459 0.0778425 -8.85838e-08)
(0.999464 0.0406866 8.75752e-12)
(0.989779 0.0308706 1.75576e-11)
(0.985096 0.0864583 2.6417e-07)
(0.985957 0.0721213 -1.93874e-07)
(0.987457 0.0582132 -3.80826e-07)
(0.976406 0.0746591 2.64156e-08)
(0.946427 0.0755338 3.73544e-07)
(0.946174 0.0338684 -2.89951e-12)
(0.936856 0.0496738 -2.51667e-12)
(0.929128 0.078615 -1.37898e-07)
(0.923692 0.0681982 -2.74735e-07)
(0.92033 0.0706816 -1.62128e-07)
(0.90723 0.0504319 -2.33351e-11)
(0.901911 0.0595513 -5.7621e-07)
(0.89634 0.0774736 8.02014e-07)
(0.882856 0.0301011 -1.62908e-12)
(0.87307 0.063654 5.4001e-07)
(0.86954 0.0768819 1.81284e-08)
(0.864573 0.0412789 4.41489e-11)
(0.851566 0.0818654 -3.07257e-07)
(0.850131 0.0638184 -1.15957e-07)
(0.846462 0.0117896 3.36835e-13)
(0.835283 0.0956089 -8.38316e-07)
(0.835326 0.0506239 -7.65337e-11)
(0.82624 0.0519322 -3.57378e-14)
(4.702 0.0922547 1.91527e-08)
(4.64293 0.111845 -1.03637e-11)
(4.62948 0.140647 -4.45114e-07)
(4.54639 0.129801 -6.80957e-07)
(4.54392 0.084819 7.18748e-07)
(4.28861 0.0912126 -2.37888e-07)
(4.06561 0.146433 3.18126e-07)
(4.31278 0.0589188 -7.70542e-08)
(4.32107 0.0483865 -3.28228e-10)
(4.32176 0.0134073 3.31459e-07)
(4.12922 0.0996916 -1.23741e-06)
(4.115 0.100371 6.57957e-08)
(4.27304 0.0612173 4.68478e-07)
(4.17045 0.0975566 1.68042e-07)
(4.23629 0.0592829 1.67766e-07)
(4.10625 0.11449 -2.73356e-07)
(4.21104 0.0469715 1.07529e-07)
(4.18419 0.0809283 -3.62892e-07)
(4.21641 0.0500578 1.00105e-07)
(4.17303 0.0869934 3.98192e-07)
(4.14587 0.071295 -4.41593e-07)
(4.09417 0.0854198 -2.53291e-09)
(4.19122 0.0439378 -1.72321e-08)
(4.15773 0.0555317 4.306e-08)
(4.06444 0.0713983 6.17529e-09)
(4.13284 0.051783 -1.67545e-07)
(4.16272 0.0192067 5.56675e-07)
(4.14639 0.0455032 -1.17535e-08)
(4.10955 0.035681 -2.2405e-07)
(4.05422 0.061008 2.42976e-07)
(3.99841 0.103901 -2.32472e-07)
(4.07707 0.0419825 -3.57497e-07)
(4.05979 0.051657 -1.68945e-07)
(4.02689 0.0337405 6.54022e-08)
(4.00206 0.0547841 -3.12361e-07)
(3.95828 0.100517 -7.54412e-07)
(4.03132 0.0268111 -2.9334e-07)
(3.92748 0.0816316 9.62311e-08)
(3.83888 0.149541 -3.73421e-07)
(3.99246 0.0251792 -4.70676e-07)
(3.96227 0.0554239 4.12072e-07)
(3.98395 0.0620271 1.74757e-08)
(3.95394 0.00577035 -7.53981e-07)
(3.97342 0.0379733 -1.93589e-07)
(3.95853 0.0405182 -1.42087e-07)
(4.00884 0.0174109 -3.11954e-07)
(3.915 0.0269571 -6.64173e-08)
(3.89489 0.0672941 -2.06686e-07)
(3.91174 0.0466759 -1.10944e-07)
(3.90945 0.00740448 -1.27346e-07)
(3.81222 0.0755591 -6.7623e-07)
(3.72775 0.113419 1.39621e-07)
(3.87852 0.0514273 -5.69652e-07)
(3.88447 9.05526e-10 7.69933e-12)
(3.83363 0.040662 3.62862e-07)
(3.80255 0.0435604 1.38499e-07)
(3.81854 0.0453347 -1.12566e-07)
(3.7717 0.0768265 4.36701e-08)
(3.79538 0.0566278 -7.88943e-08)
(3.77311 0.0494271 -1.96726e-07)
(3.79563 0.00122326 -2.69957e-08)
(3.78696 0.028746 -4.08476e-08)
(3.75514 0.0542819 9.89184e-07)
(3.75007 0.0542413 -9.0447e-08)
(3.72078 0.0584414 6.60679e-07)
(3.72759 8.3034e-05 -1.65836e-09)
(3.72176 1.35078e-10 4.6595e-13)
(3.68803 0.0588227 7.74733e-08)
(3.69275 0.0396344 -4.58695e-08)
(3.67399 0.0748594 5.12136e-08)
(3.53516 0.12819 1.0344e-07)
(3.65358 0.0589183 -1.26019e-07)
(3.66617 0.0187905 -3.52025e-08)
(3.63301 0.0351094 5.70852e-08)
(3.61851 0.0490502 1.55678e-08)
(3.36628 0.131598 5.07365e-08)
(3.60127 0.0139663 -6.23703e-09)
(3.59972 9.09783e-11 5.23536e-14)
(3.58332 0.035681 1.20696e-07)
(3.58872 2.32248e-09 -6.23995e-12)
(3.56871 0.0555834 8.23629e-08)
(3.57452 0.0352258 -7.06613e-08)
(3.53893 0.0476229 -9.34161e-08)
(3.50244 0.0727661 -6.18768e-07)
(3.47529 0.064381 1.92028e-07)
(3.38706 0.104834 7.22699e-08)
(3.42996 0.0748583 -5.87986e-07)
(3.24952 0.130052 1.92449e-07)
(3.43594 0.042335 -5.99102e-07)
(3.43086 0.0430895 2.57114e-08)
(3.4194 0.0625823 1.14412e-07)
(3.43044 2.14658e-10 1.77592e-14)
(3.37376 0.0749451 -1.93316e-08)
(3.37312 0.0634946 -1.70528e-07)
(3.36267 0.0445367 1.79689e-07)
(3.36577 0.000417915 -1.16508e-09)
(3.36263 0.041475 1.21837e-09)
(3.35578 0.0521241 3.05235e-08)
(3.32681 0.0433032 -7.62768e-08)
(3.32554 0.0269031 -2.19593e-07)
(3.32284 0.0351251 1.34745e-07)
(3.30224 0.00832912 8.72771e-08)
(3.2966 0.0473583 1.5268e-07)
(3.28642 0.0765469 3.27577e-07)
(3.28933 0.0444502 1.02426e-08)
(3.26636 0.0526419 -1.66465e-07)
(3.24357 0.0781269 8.13493e-08)
(3.24861 0.0407555 -1.13417e-08)
(3.23477 0.0812543 -9.23019e-09)
(3.22892 0.0704727 -1.46804e-08)
(3.2237 0.046944 -7.58486e-08)
(3.21713 0.0318964 -1.21374e-08)
(3.21628 0.0182219 -2.29296e-13)
(3.12878 0.0989211 4.4035e-08)
(3.02375 0.14675 -3.63879e-07)
(3.07024 0.0977962 2.13533e-08)
(3.11937 0.0840071 8.13199e-08)
(3.16901 0.0560824 3.58905e-09)
(3.08152 0.0979978 -1.87656e-07)
(2.95612 0.112781 2.35883e-07)
(3.13616 0.052141 2.59119e-07)
(3.1658 0.0539062 -2.0117e-07)
(3.12042 0.0469096 1.01694e-06)
(3.12956 0.0457904 2.52335e-07)
(3.05449 0.0757705 4.62564e-07)
(2.97881 0.0896138 -5.49866e-08)
(3.10223 0.00564145 -1.3803e-12)
(3.11228 0.00227674 -3.82073e-07)
(2.88592 0.0927188 4.6065e-07)
(2.77578 0.135169 -6.49705e-07)
(2.94875 0.0825862 1.88119e-08)
(3.04428 0.0649483 1.47666e-07)
(3.05821 0.0160081 -2.24556e-12)
(2.96633 0.0631028 -2.92282e-07)
(3.04349 0.0468253 8.0264e-09)
(2.97907 0.0849306 -6.18575e-07)
(2.95093 0.069278 2.15651e-07)
(2.90088 0.0843418 -9.32081e-09)
(2.91558 0.0794602 -6.88076e-10)
(2.97715 0.0543954 -3.0739e-07)
(2.96534 0.0120023 -1.26119e-12)
(2.96209 0.0352337 -9.0389e-09)
(2.92268 0.0475986 1.16044e-08)
(2.96472 0.0257023 -2.62319e-07)
(2.92667 0.036648 4.30244e-07)
(2.87496 0.0682974 2.93024e-07)
(2.91304 0.0369861 4.608e-08)
(2.90002 0.0567683 -7.50837e-08)
(2.87918 0.0278394 -6.9225e-08)
(2.7747 0.0885921 3.99254e-08)
(2.73094 0.093526 -5.23838e-08)
(2.83196 0.0432808 4.6042e-08)
(2.71126 0.0912639 -2.19685e-07)
(2.71184 0.100427 1.55347e-07)
(2.81125 0.00064045 5.07904e-08)
(2.77866 0.0716369 -1.41772e-07)
(2.80658 0.0264197 -3.67021e-12)
(2.75463 0.07321 1.81165e-09)
(2.702 0.082127 9.74905e-08)
(2.79515 0.00293041 -1.73393e-07)
(2.79555 0.0428665 5.30618e-07)
(2.77741 0.0440673 -9.21195e-08)
(2.53868 0.146577 4.50598e-07)
(2.67936 0.0953343 5.54098e-08)
(2.68367 0.0783644 -7.09161e-08)
(2.70593 0.0655577 1.05295e-08)
(2.7211 0.0344168 1.18425e-08)
(2.73234 0.0290148 4.43612e-13)
(2.6357 0.0838086 -1.49072e-07)
(2.72604 0.0201414 -9.62926e-13)
(2.67327 0.0870958 2.14698e-07)
(2.69083 0.0490141 3.86107e-07)
(2.61928 0.0799763 6.04239e-08)
(2.59539 0.083186 -2.81195e-07)
(2.6541 0.0424315 -1.25512e-07)
(2.65983 0.0469475 2.42158e-07)
(2.57799 0.0799282 -9.91904e-08)
(2.57679 0.0880308 2.28379e-08)
(2.61789 0.0374272 4.71862e-08)
(2.62426 0.0102667 8.16704e-13)
(2.61228 0.0548898 -3.11859e-08)
(2.58717 0.0620103 6.12568e-07)
(2.59381 0.022141 5.94781e-07)
(2.59493 0.0383633 2.87549e-08)
(2.57724 0.0550988 3.67186e-07)
(2.57514 0.0381421 -1.96756e-07)
(2.57011 0.0490765 3.54405e-07)
(2.53548 0.0452492 2.46204e-08)
(2.53484 0.035289 4.62035e-08)
(2.50892 0.0646977 -4.38731e-07)
(2.50553 0.0679985 -6.00579e-07)
(2.40916 0.090977 -1.16994e-07)
(2.47374 0.0569535 4.99849e-08)
(2.44854 0.0676704 -4.25637e-08)
(2.44965 0.0511101 -4.50908e-08)
(2.46124 0.0461122 -2.03327e-08)
(2.36612 0.0921032 -5.2841e-07)
(2.3543 0.0861889 -6.15529e-07)
(2.41769 0.0393204 4.41802e-07)
(2.39228 0.0659009 -3.7997e-08)
(2.40561 0.04888 9.82198e-08)
(2.36136 0.0766162 4.00264e-07)
(2.34096 0.0943023 5.50658e-07)
(2.39251 0.037979 2.6101e-07)
(2.33671 0.0754893 -1.83444e-09)
(2.33028 0.0268627 -8.29209e-14)
(2.32044 0.0521404 -3.89326e-07)
(2.31729 0.0695321 6.5358e-07)
(2.29971 0.0639499 4.36356e-07)
(2.28199 0.064548 1.05584e-07)
(2.20164 0.0986337 -1.32339e-07)
(2.25565 0.0313393 1.53925e-07)
(2.24659 0.056598 -9.44709e-08)
(2.24899 0.0355484 -3.76078e-13)
(2.24308 0.0578618 -7.14794e-07)
(2.21842 0.0789387 1.49988e-08)
(2.22391 0.0614593 -1.55791e-07)
(2.21251 0.0580155 -6.03352e-08)
(2.21121 0.0274172 -3.63132e-14)
(2.18582 0.0545363 -5.71568e-07)
(2.19719 0.0342466 9.16317e-15)
(2.18377 0.0715039 -4.97434e-08)
(2.18927 0.0604331 -1.99913e-07)
(2.15958 0.0695183 -3.17437e-07)
(2.16229 0.040479 -5.11005e-07)
(2.16372 0.0670077 -4.97157e-07)
(2.15206 0.0371358 -6.52429e-13)
(2.14196 0.0648976 9.65768e-08)
(2.13263 0.0434054 3.53263e-09)
(2.12181 0.0349577 -2.29775e-12)
(2.11066 0.0362387 -3.81804e-13)
(2.08456 0.0822967 -7.25121e-08)
(2.08568 0.0459708 3.38473e-07)
(2.05973 0.0771967 3.50712e-08)
(2.04043 0.0784043 1.44569e-08)
(2.04687 0.0549335 -1.49113e-07)
(2.03804 0.03157 4.85372e-13)
(2.02879 0.0776382 -3.80732e-08)
(2.02575 0.0194233 8.27123e-15)
(1.96756 0.039353 -2.36064e-13)
(1.95188 0.0435887 2.19345e-12)
(1.94256 0.069056 6.51606e-08)
(1.92184 0.0800926 1.8757e-07)
(1.90894 0.0528275 8.69854e-09)
(1.8914 0.0901901 3.37942e-07)
(1.89942 0.0718602 3.2194e-07)
(1.90004 0.0505021 5.63614e-08)
(1.89341 0.085064 -7.23273e-07)
(1.89103 0.0762016 1.76384e-07)
(1.87572 0.0846192 3.87305e-08)
(1.86305 0.0550338 5.38352e-08)
(1.84688 0.0789878 1.73743e-08)
(1.84407 0.0660381 -5.87663e-08)
(1.84044 0.0473655 -1.03267e-12)
(1.83723 0.079637 -1.16319e-07)
(1.83822 0.0417884 -3.14902e-14)
(1.83437 0.0689921 -4.87064e-07)
(1.82391 0.0765633 -2.09808e-09)
(5.66596 5.10416e-11 3.22475e-14)
(5.55969 0.036536 8.0852e-08)
(5.57254 3.69316e-11 -2.13104e-13)
(5.49568 0.0344615 5.37176e-08)
(5.54109 1.48853e-10 -1.1003e-13)
(5.50987 0.0116061 -3.02545e-08)
(5.48324 0.0146961 2.15278e-07)
(5.46652 0.00183093 -1.09261e-07)
(5.40627 0.0296125 -9.04278e-08)
(5.37637 0.0241806 -5.89264e-07)
(5.38086 0.00968603 -1.21094e-07)
(5.38854 0.00328018 1.09023e-07)
(5.33726 0.00331385 -1.68742e-07)
(5.34314 0.0057196 -3.38583e-08)
(5.27418 0.0461664 1.58949e-07)
(5.19769 0.0889161 9.0202e-07)
(5.24119 0.055758 2.8284e-08)
(5.29599 0.0202023 5.39724e-08)
(5.27485 0.00519014 -2.92806e-07)
(5.26251 2.87472e-09 6.37658e-13)
(5.20289 0.0492082 6.63926e-08)
(5.22431 0.0159304 6.02033e-07)
(5.18123 0.0319087 -5.27795e-07)
(5.1969 0.0130788 2.57011e-07)
(5.19055 0.0147565 -3.92011e-08)
(5.18992 0.0171318 4.49365e-07)
(5.17021 0.00397308 -5.25901e-07)
(5.13266 0.0310517 -2.93333e-07)
(5.09023 0.0570821 -6.23818e-07)
(5.13764 0.0196241 -4.07813e-07)
(5.14967 3.64614e-05 1.69489e-08)
(5.18337 0.00971628 -4.39228e-07)
(5.11322 0.0258554 4.08935e-07)
(5.12459 4.5565e-11 -1.38514e-13)
(5.08045 0.055192 -2.32751e-07)
(5.09766 0.0212332 -4.3346e-09)
(5.08772 0.018812 -4.77889e-08)
(5.02078 0.0754835 2.48902e-07)
(5.05279 0.0332807 -1.46463e-07)
(5.03713 0.0297676 2.09675e-07)
(5.0042 0.04901 6.66075e-08)
(5.05711 0.0058488 4.40146e-07)
(5.25508 0.142957 4.78606e-07)
(4.91751 0.0697234 6.11847e-07)
(4.97712 0.0169231 -6.96286e-08)
(4.90297 0.0835959 9.82805e-07)
(4.93893 0.0698242 -4.47776e-07)
(4.93994 0.0397692 1.58031e-08)
(4.92647 0.0344771 1.93872e-07)
(4.92652 0.00410927 3.82735e-07)
(4.92541 0.0217407 2.02139e-08)
(4.89591 0.00887976 -1.50863e-07)
(4.90427 6.67366e-11 -2.2273e-13)
(4.87841 6.64181e-11 3.10279e-13)
(4.79526 0.0414049 2.06228e-07)
(4.81533 0.0137277 -3.45785e-07)
(4.76774 0.0716843 2.26589e-07)
(4.78526 0.0446619 -1.26725e-07)
(4.77316 0.020601 -9.94136e-08)
(4.70447 0.0501814 5.18995e-07)
(4.69901 0.0191588 -1.59789e-07)
(4.68382 0.0343359 -2.98297e-07)
(4.69096 0.0220908 -1.04457e-08)
(4.6577 0.0763499 3.73382e-07)
(4.67817 0.0156814 -2.61027e-08)
(4.65886 0.033136 1.83697e-07)
(4.94179 0.0914696 7.35714e-07)
(4.66073 0.0232742 3.04513e-07)
(4.59771 0.0679605 -1.2012e-07)
(4.60935 0.0666884 8.11594e-08)
(4.60745 0.0685743 -5.90945e-09)
(4.62611 0.0159023 1.13846e-07)
(4.62213 0.030271 -4.51024e-07)
(4.61449 0.0394998 4.45887e-08)
(4.58781 0.0572776 4.65145e-08)
(4.57673 0.0621855 6.01067e-08)
(4.57855 0.036129 2.69849e-07)
(4.9249 0.138523 4.16185e-07)
(4.55541 0.0478388 -3.59688e-07)
(4.5457 0.054586 4.97565e-07)
(4.5495 0.0517665 1.50713e-07)
(4.54977 0.0468792 8.73947e-08)
(4.49677 0.0539372 3.0247e-07)
(4.48127 0.0013397 2.30179e-08)
(4.46304 0.0543159 -4.61108e-07)
(4.46984 0.0568986 -2.8209e-07)
(4.45673 0.0621316 -1.81528e-07)
(4.4637 0.00946254 -3.51037e-07)
(4.44341 0.0474344 9.36785e-08)
(4.42648 0.0771842 6.15143e-08)
(4.41023 0.0643717 -5.72055e-07)
(4.41307 0.0337117 1.08146e-07)
(4.39213 0.00747535 4.06262e-07)
(4.38861 0.0493334 8.59488e-08)
(4.38069 4.88726e-11 -4.03042e-14)
(4.37978 0.0234258 1.80814e-07)
(4.36007 0.0235682 1.51332e-07)
)


// ************************************************************************* //
