/*--------------------------------*- C++ -*----------------------------------*\
  =========                 |
  \\      /  F ield         | OpenFOAM: The Open Source CFD Toolbox
   \\    /   O peration     | Website:  https://openfoam.org
    \\  /    A nd           | Version:  7
     \\/     M anipulation  |
\*---------------------------------------------------------------------------*/
FoamFile
{
    version     2.0;
    format      ascii;
    class       labelField;
    location    "0.115/lagrangian/reactingCloud1";
    object      origId;
}
// * * * * * * * * * * * * * * * * * * * * * * * * * * * * * * * * * * * * * //


633
(
349
353
360
366
370
373
367
372
371
364
368
183
379
374
369
383
382
378
376
377
384
380
375
387
390
395
394
392
385
320
388
399
389
400
391
406
404
398
401
386
402
409
410
413
414
381
405
403
408
417
412
419
411
420
421
422
415
397
542
547
565
566
567
568
569
570
571
572
573
574
575
576
577
578
579
580
581
582
583
584
585
586
587
588
589
590
591
592
593
594
595
596
597
598
599
600
601
602
603
604
605
606
607
608
609
610
611
612
613
614
615
616
617
618
619
620
621
622
623
624
625
626
627
628
629
630
631
632
459
496
507
511
513
512
517
518
520
521
519
522
523
526
524
525
527
528
530
529
532
531
533
534
536
535
537
538
539
541
540
544
543
545
515
546
549
548
551
550
553
552
555
554
556
558
557
559
561
560
562
564
563
396
455
465
466
468
463
464
470
469
345
467
440
453
474
475
473
476
471
454
481
482
485
477
487
488
480
489
490
491
479
478
472
484
493
494
486
495
500
492
498
497
501
416
499
506
505
508
510
441
509
504
483
502
426
503
514
516
428
418
430
434
407
350
435
365
439
326
425
432
427
443
423
444
446
424
429
442
438
436
450
449
393
445
447
452
451
437
457
431
433
458
448
456
462
246
460
461
18
13
53
19
59
100
86
119
95
114
112
113
118
108
107
111
115
121
133
125
127
99
126
128
103
131
134
136
129
106
92
145
143
144
148
150
152
132
61
147
137
151
130
140
139
155
154
160
161
166
141
146
156
158
135
142
159
165
167
138
149
172
163
169
157
177
176
184
186
171
9
178
188
185
191
153
195
164
192
162
181
196
198
170
189
173
174
109
180
203
205
209
197
182
168
206
216
210
219
221
218
217
175
194
222
220
204
124
202
201
226
231
233
234
187
212
214
228
224
193
200
229
225
235
208
207
244
237
232
63
223
241
248
215
247
243
227
190
236
252
257
256
245
238
249
253
259
261
264
254
239
267
242
179
263
268
271
262
251
213
270
269
230
199
255
265
266
278
260
279
258
250
273
272
284
275
240
276
283
289
285
280
282
290
287
293
286
296
297
211
292
48
294
288
303
301
291
277
307
302
306
295
299
310
304
317
281
316
312
314
300
315
308
324
313
311
321
318
328
309
329
323
327
298
305
330
333
325
334
336
337
331
338
332
322
341
344
335
347
351
352
340
342
355
319
348
356
343
346
274
359
357
358
362
339
363
354
361
0
1
4
7
3
12
11
17
8
20
22
16
26
31
23
5
15
30
35
33
29
24
39
42
38
40
46
44
6
37
56
32
49
10
41
45
47
25
34
43
36
62
2
21
52
14
55
60
64
68
69
66
72
74
67
80
70
82
76
73
57
54
79
71
91
83
27
81
50
75
58
97
96
89
77
84
94
28
87
51
65
88
104
117
105
102
93
110
90
85
78
116
123
98
101
120
122
)


// ************************************************************************* //
