/*--------------------------------*- C++ -*----------------------------------*\
  =========                 |
  \\      /  F ield         | OpenFOAM: The Open Source CFD Toolbox
   \\    /   O peration     | Website:  https://openfoam.org
    \\  /    A nd           | Version:  7
     \\/     M anipulation  |
\*---------------------------------------------------------------------------*/
FoamFile
{
    version     2.0;
    format      ascii;
    class       Cloud<passiveParticle>;
    location    "0.115/lagrangian/reactingCloud1";
    object      positions;
}
// * * * * * * * * * * * * * * * * * * * * * * * * * * * * * * * * * * * * * //

633
(
(0.323856 0.198771 0.337941 0.139433) 46110 91542 2
(0.447021 0.162539 0.276032 0.114408) 46152 91626 2
(0.0355829 0.358367 0.135759 0.470291) 46242 91803 2
(0.0824109 0.349154 0.457868 0.110568) 46195 91712 2
(0.151188 0.143256 0.28144 0.424117) 46192 91704 2
(0.459855 0.279871 0.180749 0.0795249) 46189 91785 1
(0.818383 0.00723185 0.0833329 0.0910526) 46240 91800 2
(0.598532 0.0184512 0.183603 0.199414) 46236 91791 2
(0.19243 0.43088 0.374395 0.00229517) 46237 91793 1
(0.656454 0.0273152 0.171574 0.144657) 46284 91890 2
(0.456058 0.272201 0.0633926 0.208348) 46329 91980 1
(0.211433 0.400293 0.224184 0.164089) 46464 92247 1
(0.044863 0.0120086 0.465583 0.477546) 46368 92056 2
(0.124989 0.328314 0.436931 0.109766) 46371 92064 2
(0.925846 0.025435 0.0118547 0.0368646) 46370 92060 2
(0.258911 0.370643 0.052551 0.317895) 46362 92044 1
(0.070878 0.0431187 0.460734 0.425269) 46366 92139 2
(0.716125 0.142166 0.0788806 0.0628287) 46415 92152 1
(0.291649 0.362691 0.171896 0.173765) 46460 92327 1
(0.0376022 0.353852 0.465395 0.143151) 46460 92327 2
(0.283502 0.183515 0.175239 0.357744) 46501 92322 2
(0.276166 0.193302 0.361715 0.168817) 46590 92502 2
(0.318309 0.0713395 0.269425 0.340926) 46638 92596 2
(0.337918 0.274951 0.0564696 0.330662) 46591 92502 2
(0.311026 0.355773 0.182116 0.151086) 46633 92673 1
(0.144736 0.42795 0.170602 0.256712) 46630 92580 1
(0.377877 0.0649489 0.250804 0.306371) 46676 92671 2
(0.368654 0.316266 0.210605 0.104474) 46679 92680 1
(0.556156 0.144198 0.217114 0.0825322) 46770 92947 2
(0.128016 0.0140267 0.43554 0.422418) 46817 93041 2
(0.540139 0.161689 0.0745659 0.223606) 46813 92945 2
(0.543317 0.228418 0.198746 0.0295186) 46811 92942 1
(0.0160618 0.276847 0.491599 0.215493) 46857 93036 2
(0.344146 0.340104 0.131912 0.183837) 46810 93027 1
(0.589095 0.0932643 0.200833 0.116808) 46856 93119 2
(0.772006 0.0112179 0.112575 0.104202) 46847 93101 2
(0.818307 0.0238275 0.0908125 0.0670529) 46897 93116 2
(0.687261 0.138129 0.0234962 0.151113) 46945 93209 2
(0.00555597 0.497802 0.464755 0.0318873) 46944 93208 1
(0.437573 0.281574 0.19027 0.0905825) 46989 93300 1
(0.31492 0.242881 0.109326 0.332872) 47033 93385 2
(0.0011078 0.499525 0.0545455 0.444822) 46985 93290 1
(0.494483 0.253267 0.235689 0.0165603) 47074 93468 1
(0.277648 0.340103 0.021588 0.360661) 47071 93462 2
(0.717477 0.141276 0.13112 0.0101278) 47116 93554 1
(0.662723 0.169283 0.158983 0.00901189) 47165 93737 1
(0.367843 0.316167 0.050984 0.265006) 47166 93654 1
(0.152008 0.0509905 0.37481 0.422191) 47210 93739 2
(0.471832 0.159374 0.110935 0.257858) 47253 93825 2
(0.159547 0.420819 0.414462 0.00517119) 47295 93910 1
(0.129266 0.167634 0.427853 0.275247) 47296 93999 2
(0.77171 0.022653 0.0913289 0.114308) 47382 94084 2
(0.00948674 0.507452 0.0106503 0.472411) 47428 94175 2
(0.0839306 0.458511 0.396488 0.0610701) 47428 94176 1
(0.0834542 0.121514 0.458258 0.336773) 47472 94266 2
(0.0414628 0.188308 0.478299 0.29193) 47514 94350 2
(0.0735658 0.463734 0.0529865 0.409714) 47518 94358 1
(0.276101 0.361657 0.336427 0.0258146) 47480 94282 1
(0.283157 0.357008 0.0765431 0.283292) 3421 6649 1
(0.359289 0.319307 0.281018 0.0403864) 3421 6685 1
(0.141208 0.0508572 0.429654 0.378281) 3442 6690 2
(0.490817 0.197436 0.25564 0.0561068) 3436 6679 2
(0.154904 0.169995 0.42786 0.24724) 3403 6650 2
(0.462723 0.126034 0.138666 0.272577) 3403 6611 2
(0.827867 0.0859077 0.0311699 0.0550553) 3383 6573 1
(0.0879021 0.454188 0.0909543 0.366956) 3361 6532 1
(0.250794 0.365683 0.115907 0.267617) 3345 6537 1
(0.0136741 0.258819 0.224389 0.503117) 3346 6500 2
(0.0360344 0.0615852 0.420104 0.482276) 3331 6472 2
(0.327599 0.333727 0.0940643 0.24461) 3301 6412 1
(0.0131349 0.491388 0.0358676 0.45961) 3290 6394 1
(0.100757 0.0868134 0.360397 0.452033) 3281 6373 2
(0.102095 0.448826 0.418652 0.0304267) 3250 6316 1
(0.121225 0.40765 0.0267957 0.44433) 3233 6319 1
(0.317943 0.34003 0.24973 0.0922978) 3226 6267 1
(0.232111 0.380404 0.274175 0.113311) 3204 6262 1
(0.442259 0.247097 0.278858 0.0317855) 2840 5516 2
(0.583511 0.104324 0.20863 0.103535) 3181 6181 2
(0.51607 0.241703 0.16715 0.0750774) 3162 6144 1
(0.380904 0.309532 0.304683 0.00488166) 3142 6105 1
(0.595244 0.198536 0.0832627 0.122958) 3124 6106 1
(0.160348 0.41909 0.168542 0.25202) 3106 6035 1
(0.735823 0.128876 0.0710501 0.0642508) 3090 6040 1
(0.343362 0.0834446 0.24242 0.330773) 3082 5985 2
(0.467368 0.258922 0.236606 0.0371037) 3064 5950 1
(0.662902 0.0012247 0.168552 0.167322) 3046 5918 2
(1.52011e-06 0.0304907 0.469488 0.50002) 2680 96690 1
(0.0148853 0.491932 0.150036 0.343147) 3006 5840 1
(0.0846742 0.457362 0.189565 0.268398) 2985 5797 1
(0.193895 0.402561 0.385835 0.0177097) 2962 5790 1
(0.260996 0.272967 0.0880052 0.378032) 2963 5753 2
(0.310807 0.330924 0.355484 0.00278484) 2947 5722 1
(0.699536 0.0475297 0.100542 0.152393) 2928 5685 2
(0.497966 0.250922 0.164929 0.0861826) 2914 5659 1
(0.059499 0.470192 0.278264 0.192045) 2885 5604 1
(0.255197 0.369006 0.273943 0.101854) 2865 5601 1
(0.0267084 0.486645 0.176298 0.310349) 2841 5516 1
(0.00108867 0.496166 0.377753 0.124992) 2821 5515 1
(0.718117 0.136441 0.144013 0.00142882) 2824 5482 1
(0.886462 0.0502731 0.056769 0.00649592) 2802 5442 2
(0.15922 0.42039 0.263416 0.156974) 2785 5409 1
(0.0921238 0.337724 0.482082 0.0880709) 2773 5422 2
(0.134205 0.0306717 0.432898 0.402226) 2767 5374 2
(0.573366 0.0200286 0.192454 0.214151) 2747 5332 2
(0.135037 0.432481 0.349985 0.0824958) 2725 5290 1
(0.579499 0.207538 0.142436 0.0705268) 2707 5293 1
(0.282347 0.357631 0.314615 0.0454067) 2681 5242 1
(0.414785 0.289977 0.0210474 0.274191) 2696 5233 1
(0.625756 0.138729 0.187122 0.0483928) 2668 5181 2
(0.577209 0.211396 0.138468 0.0729272) 2642 5128 1
(0.0544015 0.472799 0.361826 0.110973) 2633 5113 1
(0.213803 0.0675429 0.325556 0.393099) 2626 5097 2
(0.361182 0.131989 0.183753 0.323075) 2601 5047 2
(0.414207 0.292897 0.191811 0.101085) 2585 5017 1
(0.358477 0.123968 0.32696 0.190595) 2569 5024 2
(0.097734 0.447364 0.143218 0.311684) 2561 4969 1
(0.551237 0.131628 0.224381 0.0927531) 2554 4959 2
(0.644745 0.170442 0.0698446 0.114968) 2532 4952 1
(0.226742 0.386629 0.373153 0.0134763) 2504 4861 1
(0.48015 0.25789 0.0284862 0.233474) 2513 4876 1
(0.352932 0.32031 0.0773677 0.24939) 2508 4866 1
(0.744654 0.041699 0.0859741 0.127673) 2483 4818 2
(0.498221 0.275511 0.113134 0.113134) 2479 4849 1
(0.0416596 0.477038 0.0639672 0.417335) 2465 4782 1
(0.0139649 0.217356 0.493018 0.275662) 2447 4750 2
(0.551016 0.223045 0.0578857 0.168054) 2420 4695 1
(0.0733418 0.207248 0.470237 0.249173) 2404 4702 2
(0.197093 0.046501 0.401454 0.354953) 2403 4679 2
(2.71631e-07 0.0157441 0.484233 0.500022) 4040 96622 1
(0.192408 0.404594 0.114504 0.288493) 4040 7856 1
(0.11125 0.438527 0.2396 0.210623) 4042 7896 1
(0.28768 0.34776 0.0604461 0.304114) 3982 7779 1
(0.44575 0.269567 0.0277004 0.256983) 4043 7898 1
(0.145286 0.261727 0.166257 0.42673) 3962 7702 2
(0.0754937 0.445037 0.0662725 0.413197) 4068 7947 1
(0.437297 0.281991 0.262476 0.0182368) 4004 7784 1
(0.964397 0.00982717 0.00799817 0.0177777) 4005 7786 2
(0.241504 0.0712361 0.379072 0.308188) 4074 7923 2
(0.529318 0.230407 0.0491736 0.191101) 3861 7543 1
(0.235602 0.013916 0.382734 0.367748) 3986 7787 2
(0.160105 0.361663 0.419094 0.0591381) 3861 7507 2
(0.095832 0.453092 0.416634 0.0344414) 3994 7765 1
(0.113221 0.437138 0.197216 0.252425) 3904 7588 1
(0.237543 0.328355 0.393857 0.0402439) 3946 7709 2
(0.629286 0.185744 0.022222 0.162748) 3926 7634 1
(0.0519012 0.0543568 0.419821 0.473921) 3905 7591 2
(0.1739 0.399178 0.0554872 0.371435) 3958 7694 1
(0.517461 0.241288 0.0376025 0.203649) 3843 7472 1
(0.287601 0.341618 0.349969 0.0208124) 3888 7557 1
(0.174172 0.288203 0.125151 0.412473) 3762 7312 2
(0.441236 0.20695 0.0729091 0.278905) 3824 7433 2
(0.155154 0.409403 0.364557 0.0708858) 3846 7475 1
(0.913528 0.00405552 0.0388427 0.0435741) 3853 7489 2
(0.502046 0.249442 0.0329329 0.215579) 3804 7396 1
(0.243911 0.378561 0.222997 0.15453) 3833 7451 1
(0.477248 0.108338 0.261308 0.153106) 3722 7236 2
(0.233456 0.259859 0.123887 0.382798) 3788 7363 2
(0.417904 0.19471 0.0874879 0.299899) 3768 7323 2
(0.366781 0.102218 0.214457 0.316544) 3723 7236 2
(0.216776 0.391755 0.222246 0.169223) 3730 7250 1
(0.0689865 0.256558 0.209114 0.465342) 3726 7242 2
(0.0049978 0.313475 0.514916 0.166611) 3710 7249 2
(0.0663304 0.462667 0.139787 0.331216) 3663 7118 1
(0.254432 0.0110021 0.373243 0.361324) 3687 7204 2
(0.284742 0.357552 0.210083 0.147624) 3674 7143 1
(0.428862 0.269528 0.0156768 0.285933) 3622 7039 2
(0.191306 0.390812 0.270702 0.14718) 3650 7093 1
(0.0365517 0.0467116 0.481767 0.43497) 3645 7086 2
(0.450144 0.265462 0.151866 0.132528) 3613 7060 1
(0.192041 0.402127 0.0444632 0.361369) 3628 7050 1
(0.485602 0.152816 0.0974367 0.264145) 3588 6972 2
(0.216534 0.391388 0.166072 0.226006) 3587 6971 1
(0.363111 0.29747 0.319184 0.0202349) 3567 6934 2
(0.264588 0.366624 0.324048 0.0447408) 3523 6846 1
(0.397789 0.127985 0.301546 0.172681) 3522 6846 2
(0.354606 0.00554782 0.31713 0.322715) 3524 6848 2
(0.113261 0.308551 0.120794 0.457394) 3508 6816 2
(0.525289 0.142738 0.237798 0.0941747) 3502 6807 2
(0.102688 0.152689 0.453147 0.291477) 3462 6765 2
(0.26296 0.361574 0.319901 0.0555641) 3456 6754 1
(0.516811 0.234561 0.0235491 0.225079) 3464 6769 1
(0.672775 0.163229 0.0159268 0.148069) 4720 9180 1
(0.406915 0.152924 0.14364 0.296522) 5124 9981 2
(0.729697 0.0772638 0.134988 0.0580506) 5132 9999 2
(0.855311 0.0191551 0.07232 0.053214) 5091 9917 2
(0.358916 0.213091 0.107566 0.320427) 5031 9795 2
(0.620739 0.189771 0.135539 0.0539517) 4964 9663 1
(0.242969 0.14521 0.378517 0.233305) 4985 9705 2
(0.797714 0.0307715 0.0664199 0.105095) 5035 9802 2
(0.0292984 0.476493 0.361479 0.13273) 5012 9796 1
(3.3798e-05 0.476813 0.0209028 0.502251) 4320 96608 1
(0.0138982 0.303496 0.493479 0.189126) 4925 9585 2
(0.922171 0.0257152 0.0387198 0.0133941) 4781 9301 2
(0.41592 0.290714 0.248864 0.0445018) 4762 9300 1
(0.22886 0.298458 0.0892592 0.383423) 4870 9473 2
(0.380821 0.138634 0.162291 0.318254) 4871 9474 2
(0.0706605 0.453517 0.163535 0.312288) 4786 9347 1
(0.54386 0.22663 0.197832 0.0316782) 4789 9353 1
(0.322625 0.332535 0.136523 0.208317) 4683 9146 1
(0.788573 0.101199 0.00164114 0.108587) 4601 8947 2
(0.477591 0.258589 0.259556 0.00426447) 4754 9249 2
(0.205187 0.398829 0.228654 0.16733) 4713 9167 1
(0.860346 0.0666223 0.0281667 0.0448649) 4653 9088 1
(0.320912 0.194651 0.145955 0.338481) 4563 8874 2
(0.500795 0.170814 0.248655 0.0797355) 4591 8931 2
(0.636345 0.182413 0.0751139 0.106128) 4571 8892 1
(0.0337503 0.355216 0.12976 0.481274) 4503 8757 2
(0.273539 0.305239 0.0427293 0.378492) 4529 8807 2
(0.62421 0.113632 0.0748641 0.187294) 4531 8812 2
(0.201294 0.111971 0.281161 0.405574) 4510 8770 2
(0.343842 0.319415 0.0624639 0.274279) 4444 8680 1
(0.391389 0.301592 0.203875 0.103143) 4401 8596 1
(0.182124 0.41023 0.170692 0.236953) 4403 8562 1
(0.142569 0.0135627 0.415188 0.428681) 4423 8601 2
(0.0325621 0.0213177 0.462508 0.483613) 4449 8652 2
(0.374716 0.300997 0.232896 0.0913906) 4450 8653 1
(0.134844 0.20961 0.223986 0.431561) 4403 8562 2
(0.498827 0.248515 0.0414354 0.211223) 4430 8614 1
(0.133636 0.379496 0.429487 0.0573809) 4396 8548 1
(0.0532982 0.248458 0.481115 0.217128) 4323 8444 2
(0.535879 0.232564 0.12458 0.106977) 4348 8457 1
(0.0911511 0.31646 0.466596 0.125793) 4326 8450 2
(0.371622 0.303948 0.163859 0.160572) 4352 8462 1
(0.226282 0.356477 0.396292 0.020949) 4220 8244 2
(0.373612 0.191558 0.312322 0.122508) 4306 8375 2
(0.360527 0.0855766 0.234545 0.319352) 4297 8356 2
(0.0626206 0.379151 0.495772 0.0624569) 4272 8345 2
(0.22832 2.73577e-11 0.681107 0.0905731) 4259 101665 2
(0.362509 0.10282 0.164516 0.370155) 4238 8240 2
(0.68401 0.0786953 0.077047 0.160248) 4182 8130 2
(0.309151 0.343883 0.309961 0.0370057) 4168 8142 1
(0.299177 0.225597 0.117765 0.357461) 4163 8093 2
(0.694981 0.022016 0.153122 0.129881) 4141 8089 2
(0.285465 0.357541 0.272182 0.0848118) 4144 8059 1
(0.617905 0.0514925 0.139465 0.191138) 4120 96618 1
(0.0796728 0.120788 0.339592 0.459948) 4143 8055 2
(0.158361 0.415372 0.317326 0.108941) 4130 8068 1
(0.326212 0.337093 0.078675 0.25802) 4134 8038 1
(0.0177711 0.252694 0.255069 0.474466) 47601 94521 2
(0.0239911 0.488861 0.0207227 0.466425) 47650 94619 1
(0.0196839 0.490445 0.213942 0.275929) 47645 94612 1
(0.366093 0.266996 0.0796584 0.287253) 47684 94687 2
(0.120017 0.448702 0.237205 0.194076) 47782 94883 1
(0.322676 0.338767 0.158335 0.180222) 47916 95154 1
(0.132723 0.433879 0.217346 0.216052) 47910 95142 1
(0.601167 0.206595 0.0385492 0.153689) 47956 95319 1
(0.153763 0.372515 0.422765 0.0509563) 47952 95226 2
(0.146717 0.428184 0.0172522 0.407847) 48041 95401 1
(0.102316 0.276431 0.438053 0.1832) 48001 95409 2
(0.237297 0.375925 0.00559747 0.381181) 48001 95322 2
(0.103206 0.339384 0.448278 0.109131) 48091 95504 2
(0.114248 0.480281 0.299672 0.1058) 48037 95393 1
(0.0506119 0.0918163 0.386612 0.47096) 48133 95585 2
(0.71438 0.142923 0.123174 0.0195227) 48128 95576 1
(0.383095 0.271042 0.308198 0.0376659) 48170 95662 2
(0.15277 0.434662 0.0529893 0.359579) 48179 95765 1
(0.00532064 0.497608 0.158565 0.338506) 48177 95674 1
(0.115908 0.442614 0.190527 0.250951) 48174 95670 1
(0.406469 0.306198 0.0700591 0.217273) 48221 95849 1
(0.118705 0.327975 0.427774 0.125546) 48353 96113 2
(0.0642673 0.499135 0.117677 0.318921) 48347 96101 1
(0.0152929 0.221573 0.477596 0.285538) 48393 96193 2
(0.276762 0.362003 0.353625 0.00761026) 48442 96291 1
(0.967966 0.0169263 0.0131085 0.00199872) 48484 96287 1
(0.231226 0.384526 0.370577 0.0136715) 48484 96290 1
(0.176197 0.411858 0.346504 0.0654401) 5410 10553 1
(0.201148 0.156542 0.407983 0.234327) 5388 10548 2
(0.155603 0.121339 0.423032 0.300027) 5385 10505 2
(0.744703 0.047861 0.079917 0.127519) 5353 10439 2
(0.0782467 0.0755261 0.38477 0.461457) 5328 10389 2
(0.306481 0.346371 0.135255 0.211894) 5305 10345 1
(0.182079 0.36817 0.438524 0.0112268) 5291 10354 2
(0.140183 0.122623 0.303583 0.433611) 5264 10260 2
(0.138522 0.430737 0.339561 0.0911802) 5247 10229 1
(0.482454 0.242584 0.097126 0.177836) 5257 10246 1
(0.4355 0.28258 0.130704 0.151215) 5201 10137 1
(0.0924858 0.453721 0.363273 0.0905201) 5210 10153 1
(0.341506 0.00598518 0.329247 0.323261) 5189 10113 2
(0.03265 0.438927 0.0461306 0.482293) 43335 85990 2
(0.554403 0.0889667 0.1341 0.222531) 43381 86082 2
(0.827725 0.0863551 0.011496 0.0744242) 43385 86090 1
(0.264692 0.0663977 0.365615 0.303295) 43427 86261 2
(0.187923 0.421843 0.1085 0.281734) 43422 86251 1
(0.054558 0.487527 0.169249 0.288665) 43599 86605 1
(0.400754 0.299893 0.145935 0.153418) 43784 86888 1
(0.401969 0.299838 0.0818887 0.216305) 43595 86512 1
(0.77311 0.0628345 0.113223 0.0508332) 43594 86510 2
(0.155924 0.359498 0.0622864 0.422292) 43590 86500 2
(0.81771 0.0938273 0.0446177 0.0438454) 43732 86871 1
(0.346307 0.273729 0.315754 0.0642091) 43732 86871 2
(0.166952 0.142854 0.273717 0.416477) 43640 86600 2
(0.186806 0.409336 0.339579 0.0642788) 43688 86783 1
(0.203614 0.398285 0.325143 0.0729573) 43639 86600 1
(0.0560246 0.482376 0.148785 0.312814) 43734 86875 1
(0.478696 0.235151 0.0453071 0.240846) 43682 86683 2
(0.568872 0.215942 0.0345918 0.180594) 43686 86692 1
(0.235305 0.0330247 0.382344 0.349327) 43682 86686 2
(0.075249 0.462423 0.364021 0.0983071) 43686 86694 1
(0.545865 0.0415339 0.186038 0.226563) 43729 86778 2
(0.269408 0.0397802 0.365171 0.325641) 43774 86870 2
(0.376203 0.312817 0.246652 0.0643286) 43682 86684 1
(0.23434 0.345641 0.0630802 0.356939) 43727 86773 2
(0.652884 0.175256 0.146569 0.0252911) 43773 86953 1
(0.269416 0.366667 0.33479 0.0291275) 43727 86774 1
(0.0487859 0.00964409 0.47722 0.46435) 43722 86766 2
(0.611947 0.203047 0.0881705 0.0968355) 43726 86771 1
(0.16535 0.435898 0.247023 0.151729) 43725 86857 1
(0.310564 0.349712 0.271891 0.0678335) 43772 86951 1
(0.240528 0.380133 0.0910803 0.288258) 43821 86962 1
(0.0665794 0.42798 0.0407531 0.464687) 43770 86860 2
(0.338162 0.331393 0.0795278 0.250917) 43771 86862 1
(0.0776089 0.267136 0.194915 0.46034) 43813 86946 2
(0.545519 0.166303 0.214416 0.0737618) 43815 87037 2
(0.487573 0.229921 0.255125 0.0273811) 43864 87050 2
(0.220143 0.120988 0.270024 0.388845) 43812 86944 2
(0.0012288 0.387513 0.132254 0.479003) 43906 87131 2
(0.919955 0.0403304 0.0303569 0.00935732) 43961 87329 1
(0.199748 0.401209 0.388491 0.0105513) 43811 86944 1
(0.678607 0.06636 0.160876 0.0941571) 43859 87040 2
(0.0679698 0.493739 0.359257 0.0790338) 43860 87039 1
(0.12036 0.448285 0.0393515 0.392004) 43852 87026 1
(0.429134 0.194157 0.110337 0.266372) 43857 87033 2
(0.150109 0.394212 0.423344 0.0323352) 43857 87036 2
(0.519769 0.241507 0.11094 0.127784) 43810 86942 1
(0.357976 0.0379748 0.283322 0.320727) 43900 87120 2
(0.101738 0.450573 0.384619 0.0630701) 43905 87130 1
(0.547095 0.041026 0.189046 0.222834) 43902 87123 2
(0.407654 0.109242 0.188495 0.294609) 43897 87114 2
(0.0111867 0.497134 0.0373629 0.454316) 43994 87307 1
(0.464013 0.268645 0.00456444 0.262778) 44042 87406 1
(0.304129 0.359032 0.219453 0.117386) 43903 87213 1
(5.84173e-09 1.47185e-07 0.744758 0.255241) 43896 189862 2
(0.0457381 0.477848 0.346001 0.130413) 43946 87212 1
(0.353876 0.344457 0.2102 0.0914679) 43990 87299 1
(0.209579 0.302423 0.369308 0.11869) 43946 87299 2
(0.439406 0.280446 0.0577412 0.222407) 43994 87308 1
(0.1343 0.236364 0.431981 0.197355) 43991 87304 2
(0.227654 0.38706 0.188807 0.196478) 43991 87302 1
(0.310217 0.545631 0.143627 0.000525978) 43984 141390 1
(0.90655 0.0496517 0.0196701 0.0241279) 43988 87295 1
(0.0303563 0.291625 0.214252 0.463767) 44035 87389 2
(0.212088 0.204205 0.205283 0.378425) 44035 87389 2
(0.388412 0.305714 0.175947 0.129927) 44036 87392 1
(0.0211955 0.481615 0.497157 3.25149e-05) 44028 141434 1
(2.08991e-08 9.07848e-09 0.612021 0.387979) 44028 189994 2
(0.436244 0.285309 0.0450954 0.233351) 44080 87479 1
(0.0331782 0.115775 0.48294 0.368106) 44077 87476 2
(0.186015 0.378644 0.0294826 0.405858) 44082 87484 2
(0.0365462 0.367245 0.12162 0.474589) 44221 87761 2
(0.31791 0.35237 0.186089 0.143631) 44080 87567 1
(0.160051 0.421137 0.306792 0.11202) 44075 87470 1
(0.431585 0.309244 0.208818 0.0503538) 44121 87561 1
(0.354888 0.303497 0.0200708 0.321545) 44123 87566 2
(0.38232 0.0378568 0.308767 0.271056) 44354 88030 2
(0.406779 0.329783 0.138657 0.124781) 44118 87643 1
(2.20153e-08 1.03291e-09 0.824551 0.175449) 44116 190082 2
(0.25293 0.341346 0.0651459 0.340578) 44165 87649 2
(4.19028e-07 0.973981 0.0260181 1.24647e-07) 44160 141566 1
(0.0177798 0.387698 0.489924 0.104598) 44167 87656 2
(0.579569 0.232276 0.182087 0.00606814) 44165 87649 1
(0.1037 0.449772 0.429691 0.0168378) 44167 87741 1
(0.0382394 0.482441 0.349434 0.129885) 44214 87748 1
(0.165401 0.0596063 0.357707 0.417285) 44257 87834 2
(0.168029 0.416186 0.0893198 0.326465) 44306 87932 1
(0.00441395 0.518024 0.329412 0.148151) 44302 87923 1
(0.404338 0.298414 0.027021 0.270227) 44442 88206 1
(0.221939 0.406196 0.353482 0.0183825) 44254 87915 2
(0.0294045 0.401052 0.450962 0.118582) 44254 87915 2
(0.153032 0.128823 0.423186 0.294959) 44300 87922 2
(5.61113e-08 3.56939e-10 0.9932 0.00680036) 44248 190214 2
(0.166549 0.435545 0.312852 0.0850534) 44346 88011 1
(0.141417 0.0250536 0.404471 0.429059) 44345 88010 2
(0.380144 0.109346 0.309791 0.200719) 44342 88006 2
(0.111599 0.705432 0.182945 2.38468e-05) 44336 141742 1
(0.600703 0.211911 0.118471 0.0689157) 44342 88003 1
(0.520126 0.173464 0.239414 0.0669962) 44343 88008 2
(0.00624838 0.31159 0.470036 0.212125) 44342 88091 2
(0.0437779 0.511218 0.0244468 0.420558) 44384 88087 2
(0.150425 0.303582 0.15053 0.395463) 44385 88089 2
(0.848742 0.057749 0.0171591 0.0763498) 44381 88082 2
(0.417099 0.291914 0.198734 0.0922523) 44387 88094 1
(0.413309 0.123909 0.286912 0.17587) 44390 88187 2
(0.290757 0.355001 0.235537 0.118706) 44386 88094 1
(0.243124 0.0696232 0.37804 0.309212) 44431 88184 2
(0.197314 0.402015 0.145606 0.255066) 44434 88190 1
(0.804346 0.0980178 0.0516122 0.0460236) 44430 88180 1
(0.355574 0.327807 0.21048 0.106139) 44435 88277 1
(0.0353054 0.482489 0.0436291 0.438577) 44434 88188 1
(0.0872527 0.472122 0.173386 0.26724) 44475 88269 1
(0.353824 0.330998 0.0652455 0.249932) 44473 88265 1
(0.310325 0.038945 0.306018 0.344711) 44471 88262 2
(0.044175 0.32008 0.466234 0.169511) 44525 88457 2
(0.118357 0.121714 0.319524 0.440405) 44667 88654 2
(0.396396 0.214629 0.095021 0.293953) 44613 88545 2
(0.347148 0.0788454 0.251295 0.322712) 44567 88453 2
(0.305593 0.36441 0.217663 0.112334) 44520 88359 1
(0.0788736 0.360141 0.447267 0.113718) 44569 88545 2
(0.0936177 0.453833 0.316918 0.135631) 44704 88728 1
(0.148845 0.425606 0.326669 0.0988803) 44519 88360 1
(0.228493 0.10428 0.282016 0.385211) 44520 88360 2
(0.303525 0.359266 0.136286 0.200923) 44563 88445 1
(0.0761499 0.47131 0.345267 0.107273) 44519 88445 1
(0.359034 0.320944 0.0298738 0.290148) 44610 88542 1
(0.28842 0.228364 0.137087 0.346128) 44700 88719 2
(0.0605255 0.471018 0.439829 0.0286266) 44557 88434 1
(0.614395 0.371477 0.0060738 0.00805434) 44556 141962 1
(0.316275 0.0207199 0.320907 0.342099) 44789 88898 2
(0.653142 0.176539 0.0132033 0.157115) 44885 89177 1
(0.40697 0.0245847 0.295345 0.2731) 44699 88805 2
(0.508467 0.207521 0.233209 0.0508029) 44609 88625 2
(0.317369 0.293192 0.340388 0.0490512) 44602 88526 2
(0.777658 0.0266507 0.0848774 0.110814) 44697 88714 2
(0.475016 0.271244 0.157183 0.0965575) 44607 88621 1
(0.0572149 0.109797 0.362301 0.470686) 44700 88720 2
(0.30039 0.349908 0.100799 0.248903) 44698 88716 1
(0.0995127 0.45052 0.103428 0.346538) 44744 88808 1
(0.841898 0.0792007 0.0552573 0.0236437) 44743 88806 1
(0.360614 0.331919 0.149376 0.158092) 44696 88711 1
(0.353769 0.259827 0.0640615 0.322343) 44690 88700 2
(0.250433 0.375983 0.00580599 0.367778) 44693 88708 1
(0.735325 0.108827 0.031875 0.123974) 44739 88797 2
(0.901223 0.0521231 0.0143938 0.0322597) 44692 88703 1
(0.192135 0.183313 0.220516 0.404036) 44738 88796 2
(0.219888 0.313709 0.0769638 0.389439) 44786 88892 2
(0.297362 0.352114 0.271923 0.0786011) 44738 88796 1
(0.268107 0.177767 0.35364 0.200487) 44740 88887 2
(0.281006 0.18901 0.358754 0.171229) 44780 88882 2
(0.481153 0.259549 0.197951 0.0613464) 44876 89074 1
(0.56844 0.224073 0.00135389 0.206134) 44921 89249 1
(0.108276 0.335617 0.111204 0.444903) 44827 88974 2
(0.356295 0.323117 0.0280789 0.292508) 44965 89249 1
(0.328519 0.317132 0.028696 0.325653) 44966 89251 2
(0.180654 0.00110145 0.76887 0.049374) 44820 190786 2
(0.777287 0.111476 0.10723 0.00400719) 44874 89070 1
(0.0700601 0.279042 0.433807 0.217092) 44824 89055 2
(0.324638 0.00404474 0.333856 0.337461) 44918 89155 2
(0.0250376 0.384959 0.103407 0.486596) 44964 89248 2
(0.455448 0.289703 0.129315 0.125534) 44864 89048 1
(0.0590955 0.188671 0.281638 0.470596) 44871 89062 2
(0.38628 0.307503 0.171043 0.135174) 44871 89062 1
(0.440645 0.166537 0.113294 0.279525) 45152 89624 2
(0.130839 0.113982 0.430379 0.3248) 44965 89337 2
(0.334926 0.274131 0.31917 0.0717733) 44963 89333 2
(0.102381 0.253018 0.448146 0.196454) 44961 89244 2
(0.109349 0.0138924 0.443987 0.432772) 44913 89233 2
(0.258817 0.37118 0.187666 0.182337) 44913 89146 1
(0.0298571 0.499326 0.167808 0.303009) 45008 89423 1
(0.339312 0.130845 0.313287 0.216556) 44911 89229 2
(0.160676 0.220004 0.208902 0.410418) 45008 89335 2
(0.18595 0.407282 0.162385 0.244382) 44959 89240 1
(0.323005 0.225479 0.337994 0.113522) 45051 89424 2
(0.0574199 0.483614 0.199774 0.259193) 45052 89511 1
(0.161975 0.420296 0.376962 0.040766) 45003 89326 1
(0.684874 0.0620781 0.157667 0.0953813) 45003 89328 2
(0.233597 0.286634 0.382444 0.0973247) 45095 89512 2
(0.0959514 0.385141 0.451144 0.0677639) 45096 89514 2
(0.825104 0.00884961 0.0785461 0.0874999) 45046 89412 2
(0.0717235 0.229115 0.463505 0.235656) 45041 89404 2
(0.57329 0.213807 0.0579007 0.155001) 45048 89418 1
(0.350526 0.196689 0.139706 0.313079) 45093 89505 2
(0.0203459 0.504456 0.112868 0.36233) 45088 89495 1
(0.0348738 0.410484 0.44692 0.107723) 45046 89499 2
(0.452454 0.195984 0.273618 0.0779434) 45092 89506 2
(0.914961 0.0174124 0.0421976 0.0254293) 45090 89502 2
(0.0453667 0.477956 0.378147 0.0985299) 45092 89504 1
(0.927167 0.00452437 0.0364329 0.0318756) 45135 89592 2
(0.366948 0.300527 0.0168001 0.315725) 45134 89588 2
(0.0914259 0.0946829 0.360233 0.453658) 45182 89684 2
(0.455471 0.287138 0.230601 0.0267905) 45182 89683 1
(0.517791 0.132386 0.236062 0.11376) 45273 89953 2
(0.0881914 0.460651 0.06744 0.383718) 45225 89769 1
(0.596186 0.213142 0.0112042 0.179468) 45226 89859 1
(0.654074 0.177368 0.114931 0.0536277) 45224 89855 1
(0.560654 0.0902587 0.219406 0.129681) 45223 89768 2
(0.205756 0.0608473 0.39451 0.338887) 45317 90041 2
(0.0220082 0.208479 0.281377 0.488135) 45361 90042 2
(0.314487 0.343037 0.0146833 0.327793) 45266 89854 1
(0.384061 0.315869 0.125857 0.174213) 45314 89947 1
(0.27648 0.361713 0.0264045 0.335403) 45268 89856 1
(0.0515049 0.249144 0.237066 0.462285) 45359 90037 2
(0.407006 0.296604 0.211231 0.0851591) 45362 90044 1
(0.371757 0.142654 0.183544 0.302045) 45310 89939 2
(0.596319 0.0968804 0.197067 0.109733) 45359 90125 2
(0.12435 0.437995 0.0598912 0.377764) 45353 90026 1
(0.300961 0.211431 0.153307 0.3343) 45400 90119 2
(0.276754 0.0996653 0.361925 0.261656) 45402 90126 2
(0.340887 0.329399 0.101333 0.228381) 45402 90124 1
(0.452651 0.276004 0.0386334 0.232712) 45446 90211 1
(0.260988 0.370231 0.329535 0.0392454) 45539 90398 1
(0.0539811 0.160446 0.457516 0.328057) 45441 90289 2
(0.468505 0.269476 0.0505424 0.211476) 45489 90297 1
(0.329605 0.364085 0.272288 0.0340222) 45486 90291 1
(0.671165 0.173234 0.112302 0.0432992) 45489 90297 1
(0.0948742 0.460452 0.166148 0.278525) 45536 90391 1
(0.129336 0.435586 0.387864 0.047214) 45489 90300 1
(0.442273 0.277627 0.0187468 0.261353) 45533 90385 2
(0.444419 0.037077 0.240813 0.27769) 45529 90378 2
(0.00818694 0.502349 0.0810214 0.408442) 45577 90473 1
(0.567918 0.216161 0.0452685 0.170652) 45530 90380 1
(0.131203 0.445967 0.209626 0.213204) 45579 90477 1
(0.193805 0.0637159 0.398901 0.343578) 45533 90473 2
(0.0881142 0.456573 0.167934 0.287379) 45579 90478 1
(0.428281 0.286814 0.078447 0.206458) 45575 90470 1
(0.579607 0.210708 0.164148 0.0455364) 45578 90478 1
(0.0253445 0.235153 0.2728 0.466702) 45618 90555 2
(0.639944 0.188907 0.141928 0.0292214) 45622 90563 1
(0.719057 0.140556 0.103811 0.0365759) 45619 90560 1
(0.135571 0.473406 0.00410902 0.386914) 45618 90643 1
(0.552171 0.0779664 0.152791 0.217071) 45662 90643 2
(0.169491 0.0612897 0.356691 0.412528) 45712 90743 2
(0.0934512 0.0026124 0.450243 0.453693) 45708 90736 2
(0.266458 0.369269 0.311575 0.052697) 45712 90831 1
(0.74962 0.10832 0.0170747 0.124986) 45756 90832 2
(0.539719 0.00686984 0.223448 0.229964) 45753 90826 2
(0.0383116 0.481897 0.421247 0.0585444) 45750 90820 1
(0.287434 0.363254 0.20464 0.144672) 45756 90919 1
(0.0633557 0.46836 0.453419 0.0148654) 45747 90816 1
(0.264304 0.376606 0.2658 0.0932896) 45839 91085 1
(0.325365 0.233709 0.336796 0.104131) 45883 91088 2
(0.48226 0.258908 0.0472731 0.211559) 45887 91094 1
(0.450024 0.195876 0.274764 0.079336) 45932 91186 2
(0.268908 0.365639 0.364043 0.00140976) 45929 91265 1
(0.652839 0.152642 0.0209843 0.173535) 45978 91276 2
(0.394987 0.131165 0.177671 0.296177) 45975 91269 2
(0.337352 0.00685868 0.331372 0.324417) 45972 91266 2
(0.817718 0.0533399 0.040314 0.0886284) 45977 91273 2
(0.549584 0.217256 0.00821767 0.224942) 45976 91272 2
(0.0605419 0.465196 0.0223504 0.451912) 46021 91361 2
(0.937527 0.0154061 0.0158021 0.0312646) 46017 91354 2
(0.126933 0.207684 0.238001 0.427382) 46064 91447 2
(0.0794929 0.126203 0.459968 0.334336) 46062 91446 2
(0.597187 0.214794 0.161096 0.026923) 46060 91439 1
(0.336293 0.247347 0.331342 0.0850176) 46064 91450 2
(0.634387 0.062276 0.182675 0.120662) 46059 91440 2
(0.728698 0.136289 0.115816 0.0191961) 46063 91446 1
(0.198519 0.416315 0.0637957 0.32137) 46064 91535 1
(9.96104e-09 5.16603e-10 0.29413 0.70587) 42708 188674 2
(0.388008 0.171464 0.286897 0.15363) 42756 84919 2
(2.64963e-09 0.377515 0.622485 3.4587e-09) 42752 140158 1
(0.55731 0.242147 0.0558171 0.144726) 42800 85007 1
(2.90406e-08 0.929113 0.070887 1.79751e-09) 42796 140202 1
(0.878864 0.0608308 0.0183639 0.0419409) 42797 84916 1
(0.0526432 0.473082 0.0750084 0.399267) 42798 84916 1
(0.27761 0.64583 0.0391725 0.0373875) 42840 85000 1
(0.00895581 0.0834275 0.423493 0.484124) 42887 85093 2
(0.487063 0.193312 0.0653609 0.254264) 42887 85094 2
(0.665126 0.0396411 0.128921 0.166312) 42885 85090 2
(0.522011 0.354138 0.061029 0.0628217) 42884 85088 1
(0.00210551 0.520606 0.240041 0.237248) 42928 85176 1
(0.16734 0.11839 0.356855 0.357415) 42884 85176 1
(0.166611 0.0878098 0.408452 0.337127) 42933 85273 2
(0.0648118 0.477843 0.190738 0.266607) 43026 85371 1
(0.291521 0.252009 0.353375 0.103095) 42978 85278 2
(0.478495 0.261181 0.100126 0.160198) 42930 85182 1
(0.185905 0.183776 0.31272 0.317599) 42928 85264 1
(6.13063e-07 1.06244e-08 0.0864303 0.913569) 42972 188938 2
(0.0872645 0.471367 0.291548 0.14982) 42978 85363 1
(0.444547 0.275735 0.133517 0.146201) 42974 85268 1
(0.516336 0.0163179 0.226593 0.240753) 43020 85360 2
(0.0880905 0.0979484 0.382159 0.431802) 43017 85353 2
(0.171138 0.0517382 0.363029 0.414094) 43018 85356 2
(0.293227 0.418328 0.246442 0.0420036) 43018 85355 1