/*--------------------------------*- C++ -*----------------------------------*\
  =========                 |
  \\      /  F ield         | OpenFOAM: The Open Source CFD Toolbox
   \\    /   O peration     | Website:  https://openfoam.org
    \\  /    A nd           | Version:  7
     \\/     M anipulation  |
\*---------------------------------------------------------------------------*/
FoamFile
{
    version     2.0;
    format      ascii;
    class       scalarField;
    location    "0.115/lagrangian/reactingCloud1";
    object      tTurb;
}
// * * * * * * * * * * * * * * * * * * * * * * * * * * * * * * * * * * * * * //


633
(
0.00159818
0.00137729
0.00114535
0.00204755
0.006217
0.006145
9.55224e-05
0.006169
0.00213735
0.001144
0.0009447
0.0016087
0.006001
0.00221118
0.0024822
0.005905
0.005929
0.00208673
0.0023295
0.00214778
0.000769
0.0022405
0.00061985
0.00175335
0.001689
0.005617
0.005641
0.001635
0.0007442
0.00114205
8.685e-05
0.00125555
0.0006097
0.00040855
0.0019542
0.005377
0.005425
0.00166105
0.00159459
0.00051035
0.00158905
0.005305
0.000161
0.005209
0.005185
0.001548
0.00057135
0.00020035
0.001577
0.00106119
0.00150155
0.00112766
0.000835833
0.00108464
0.00100517
0.00072755
0.00139123
0.00146773
0.000610846
0.00027005
0.001585
0.001561
0.001537
0.001513
0.001489
5.2172e-05
0.001441
0.001417
0.001393
0.00024985
0.001345
0.001321
0.001297
0.001273
0.001249
0.001225
8.35e-06
0.001177
0.001153
0.001129
0.001105
0.001081
0.001057
0.001033
0.001009
0.000985
0.000224722
0.000937
0.000913
0.000889
0.000865
0.000841
0.000817
0.000793
0.000769
0.000745
0.000721
0.000697
0.000673
0.000649
0.000625
0.000601
0.000577
0.000553
0.000529
0.000505
0.000481
0.000457
0.000433
0.000409
0.000385
0.000361
0.000337
0.000313
0.000289
0.000265
0.000241
0.000217
0.000193
0.000169
0.000168625
0.000145
0.000121
9.7e-05
7.3e-05
4.9e-05
2.5e-05
1e-06
0.0010128
0.000234606
0.00237705
0.00145684
0.002833
0.00143208
0.002737
0.002713
0.002665
0.002641
0.00127218
0.002617
0.00117773
0.002521
0.0011577
0.002545
0.002497
0.002473
0.002425
0.00103372
0.002377
0.0009765
0.002353
0.002329
0.002281
0.002305
0.002257
0.0002332
0.002209
0.002161
0.002185
0.002089
0.002113
0.002065
0.00159655
0.002041
0.001969
0.0005805
0.001921
0.001945
0.001873
0.001897
0.001825
0.001849
0.001801
0.001753
0.00120105
0.001729
0.001681
0.0010435
0.001657
0.001609
0.001633
0.00024
0.0004422
0.003961
0.003937
0.003889
0.00012505
0.0001055
0.003841
0.003865
0.000363847
5.80464e-06
0.00022255
0.00021405
0.003745
0.003721
0.003769
0.003697
5.82e-05
0.00133611
0.003577
0.003553
0.003481
0.003673
0.003433
0.003409
0.003601
0.003385
0.003361
0.003337
0.00219309
0.0016492
0.00236468
0.0002335
0.003289
0.003265
0.003457
0.003241
0.003121
0.003313
0.003169
0.003193
0.003097
0.00070885
0.003145
0.002977
0.003001
0.002929
0.002881
0.0012912
0.002905
0.003025
0.0017082
0.00249305
0.000407
0.000618239
0.002809
0.002761
0.004849
3.72e-05
0.004801
0.004705
0.000921195
0.00012455
0.000411
0.00149185
0.004585
0.004881
0.000807522
0.00102155
0.000808
0.004489
0.00061905
0.004465
0.004417
0.000933
0.0003725
0.00024755
0.00074428
0.00058355
0.004321
0.004345
0.000512253
0.000326331
0.000436317
0.004273
3.155e-05
0.000612038
0.004153
0.0036467
0.00036807
0.004129
0.000684
0.000123268
0.004033
0.00037255
0.004081
0.004057
0.00266605
0.002361
0.00392835
0.00493735
0.00195135
0.00394756
0.0013317
0.0015042
0.00183209
0.00835216
0.00113755
0.0032317
5.205e-05
0.00386205
0.0041275
0.0034952
0.0040667
0.00253705
0.00049405
0.0017132
0.0016682
0.00237905
0.00280355
0.00405455
0.0034965
0.0039797
0.00751955
0.00266659
1.12671e-05
0.00314555
0.00310285
0.0008802
0.0019902
0.00305835
0.00235805
0.00268085
0.004185
0.00318785
0.00461085
0.00167504
0.0039792
0.00231607
0.00606885
0.00500677
0.000590337
0.00510662
0.00619302
0.0021362
0.003969
0.00196885
0.0014282
0.00150435
0.00231857
0.00222104
0.00021585
0.00217735
0.0015752
0.00254303
0.002994
2.185e-05
0.00266014
0.00436735
0.00289985
0.002469
0.00157155
1.01671e-05
0.00268473
0.00342081
0.00208776
0.00205185
0.00295055
0.0034792
0.0008407
0.00471435
0.00260561
0.00028155
0.00012605
0.000594219
0.00388735
0.001669
0.00114455
0.00184154
0.003081
0.00061405
0.00052005
0.00071555
0.0025072
0.00407132
0.0005362
0.000903505
0.00212117
0.00011321
0.0004967
0.0033252
0.00358705
0.00159071
0.002673
0.00150685
0.002601
0.00127114
0.00394635
0.005762
0.0038267
0.00193635
0.002529
0.0013092
0.0019427
0.0045432
0.00278455
0.00075455
0.00037735
0.0010306
0.009457
0.0007317
0.0042005
0.0019787
0.00261385
0.00370635
0.00295577
0.0033572
0.00331155
0.0022415
0.0010862
0.004289
0.0018935
0.00201855
0.009193
0.0002815
0.0024405
0.005314
0.0024627
0.00142785
0.009097
0.0017447
0.001953
0.0025335
0.00236555
0.00270655
0.00119405
0.00249535
0.008881
0.000451809
0.0012602
0.00233585
0.00518905
0.00173405
0.00232735
0.0004135
0.000270206
0.00106385
0.00190071
0.001473
0.0018525
0.002754
0.00038
0.00277035
0.008545
0.00256962
0.00154355
0.00776385
0.00272235
0.003473
0.0042437
0.0021822
0.00054085
0.00136203
0.0048855
0.008377
0.00200085
0.008353
0.00023905
0.004664
0.00230005
0.00135085
0.0010675
0.00471076
9.42e-05
0.00229505
0.003137
0.008113
0.00236235
0.0010602
0.00439705
0.00027105
0.003892
0.000224159
0.00426328
0.000801
0.0001345
0.00086755
0.00134985
0.00223835
0.0001685
0.00267784
0.00129535
0.0035833
0.00190435
0.0019342
0.000537
0.0011355
0.00346355
0.00089485
0.00113685
0.000467
0.0015815
0.007465
0.00129055
0.00111534
0.0008272
0.000295728
0.0018525
0.00357161
0.0039222
0.007297
0.0035555
0.00193959
0.00012455
0.00359225
0.007201
0.0031087
0.007177
0.0006425
0.002105
0.000598156
0.00545472
0.002033
0.007081
0.00106955
0.00055135
0.007009
0.006985
0.0009287
0.00045535
0.00089755
0.0018047
0.00104235
0.006817
0.000848039
0.006769
0.006673
0.006649
0.00123481
0.0015475
0.00073035
0.0017
0.00053421
0.00228575
0.00114755
0.00111984
0.00173005
0.00063435
0.00079835
0.00223955
0.006409
0.0008155
0.006385
0.0028422
5.705e-05
0.001827
0.001804
0.000231704
0.0030997
0.0014552
0.0050407
0.00225406
0.0049207
0.00319085
0.00175355
0.00115935
0.0029215
0.00125639
0.00403805
0.0037842
0.0031877
0.0032402
0.00503335
0.0044887
0.0013452
0.0046357
0.001076
0.0043927
0.0043207
0.00192516
0.00072735
0.0017325
0.00486606
0.00295585
0.00137471
0.000978702
0.00444055
0.00161735
0.00660571
0.0026847
0.000691
0.00138363
0.00167135
0.00370405
0.00019835
0.00060905
0.0056735
0.00507635
0.0021002
0.001983
0.00046985
0.00174935
0.00223685
0.0011805
0.0036967
0.000743
0.003754
0.00230585
0.00189953
0.00092255
0.00238905
0.0037182
0.00062455
0.00284855
0.00119635
0.00577935
0.004205
0.00397959
0.00137485
0.0031447
0.00341404
0.00322535
0.004591
0.00181235
0.000201
0.0031975
0.00362124
4.65e-05
0.003189
0.00417305
0.00217885
0.0010117
0.00515105
0.00251304
0.0040487
0.0018422
0.00160935
0.0021935
0.00143558
0.0026462
0.00122305
0.00287355
0.00809555
0.0020445
0.0022727
0.00148305
0.0031661
0.0024007
0.00114855
0.000706703
0.00561535
0.00362057
)


// ************************************************************************* //
