/*--------------------------------*- C++ -*----------------------------------*\
  =========                 |
  \\      /  F ield         | OpenFOAM: The Open Source CFD Toolbox
   \\    /   O peration     | Website:  https://openfoam.org
    \\  /    A nd           | Version:  7
     \\/     M anipulation  |
\*---------------------------------------------------------------------------*/
FoamFile
{
    version     2.0;
    format      ascii;
    class       vectorField;
    location    "0.115/lagrangian/reactingCloud1";
    object      U;
}
// * * * * * * * * * * * * * * * * * * * * * * * * * * * * * * * * * * * * * //


633
(
(390.201 3.33066 6.22418)
(420.745 -3.89141 -5.17111)
(399.953 2.62734 0.375889)
(425.096 6.18395 -8.37712)
(440.567 -0.0485293 2.41118e-06)
(440.873 -0.0235885 -8.04851e-07)
(415.991 1.63994 6.50563)
(440.302 -0.0622938 -2.15842e-06)
(452.626 -4.8758 7.62493)
(428.423 -4.22636 -4.31653)
(407.949 1.75101 2.68759)
(360.123 0.772366 -9.66237)
(440.288 -0.04839 -4.4589e-07)
(432.088 1.12982 -1.17864)
(435.538 -7.60664 -3.36614)
(440.614 -0.0086649 -2.42769e-07)
(440.378 -0.0339759 -1.08301e-07)
(434.229 1.89092 -3.21572)
(431.076 -1.58642 0.0460132)
(429.113 -0.25072 -0.242832)
(442.591 -10.3624 -3.21949)
(432.236 -6.67294 2.11751)
(407.405 -0.204636 5.24175)
(438.114 0.469585 0.980267)
(437.052 -6.65118 -0.768939)
(439.936 0.0141742 -1.90217e-05)
(439.534 0.0340632 -1.46217e-06)
(438.009 3.58995 -10.8875)
(403.178 -1.27628 1.66378)
(376.53 10.8661 -5.92548)
(429.068 -2.53874 -0.0492725)
(443.607 4.70782 4.46748)
(417.185 2.18716 -0.71165)
(440.398 0.0171937 -2.42812)
(429.874 -3.01367 -11.1666)
(439.55 0.0622013 -3.16493e-07)
(438.773 0.251407 -1.3995e-05)
(423.801 4.08751 4.619)
(427.868 1.53884 0.472967)
(445.979 -12.0516 -7.28134)
(424.141 3.75489 -3.66743)
(438.606 0.384088 -2.9687e-05)
(426.677 -2.21581 -3.71548)
(438.652 0.365647 -0.000162678)
(438.223 0.550243 -5.94742e-06)
(395.829 -3.35075 -6.77675)
(403.3 1.02354 5.99055)
(408.194 2.7433 -2.2319)
(427.1 1.38943 1.70057)
(439.008 -0.0972158 -2.38662)
(432.924 -1.2308 2.67646)
(435.431 -5.80577 3.54408)
(426.448 -4.79996 6.3787)
(435.066 2.65641 -1.40854)
(429.299 -1.49208 2.7443)
(404.323 3.70715 -16.2345)
(411.384 5.6944 -4.20918)
(334.192 14.4583 12.2276)
(123.815 14.3132 -3.66749)
(112.561 26.4341 -0.727674)
(111.009 23.5939 0.000641062)
(132.23 3.11804 0.000187164)
(118.608 23.0797 -0.00123168)
(120.328 23.9533 -0.00101183)
(121.655 25.1402 0.000255002)
(122.155 31.9528 1.65917)
(130.473 20.5763 -0.00176964)
(133.936 17.7253 -0.00200847)
(137.931 10.3172 6.26268e-05)
(127.47 28.7709 -0.0682106)
(140.504 10.2886 5.16461e-05)
(134.652 30.5201 -8.4421e-06)
(143.198 10.1659 -2.6371e-05)
(144.642 6.75859 -0.000456925)
(146.043 18.0359 -0.000638545)
(147.951 22.1626 -0.00129333)
(166.045 1.27384 -0.554784)
(150.638 29.1868 -0.000657998)
(153.84 23.2593 -0.000565144)
(156.159 22.3462 -6.26393e-05)
(157.682 17.8861 -0.00129682)
(156.871 12.7903 -0.0016063)
(155.54 7.98961 -9.10661e-05)
(164.358 17.7609 -0.00127606)
(163.312 13.7678 -0.00179693)
(161.295 10.1986 -9.79656e-06)
(67.2093 0.907759 -0.50668)
(162.34 8.50951 -0.00234283)
(165.344 9.12729 -0.0017032)
(169.627 10.7056 -0.000109603)
(167.78 8.59529 0.000414236)
(163.841 5.71331 0.000226092)
(163.361 4.83571 2.85084e-05)
(161.188 2.37376 -0.000312111)
(165.757 4.72244 -0.000981121)
(166.422 4.29269 0.000153789)
(166.794 2.02811 -0.00107281)
(166.403 1.56299 0.000987162)
(166.838 2.93872 0.000424238)
(167.73 1.86808 -0.000178466)
(166.031 2.43934 -0.000446668)
(163.802 1.38596 9.2801e-05)
(165.354 1.92391 -6.02959e-05)
(165.467 1.75097 2.42306e-05)
(166.216 1.45753 -0.000687585)
(165.594 1.44724 6.66546e-05)
(165.057 0.0953131 0.00012513)
(164.462 0.540303 1.3994e-06)
(165.404 1.10709 -0.000140917)
(166.184 0.223503 -7.77849e-05)
(164.942 0.663845 -5.27142e-05)
(165.763 0.77114 -5.57486e-05)
(165.681 -0.00682014 0.000216468)
(165.798 0.547466 -0.000103718)
(165.454 0.717296 6.63003e-05)
(164.879 -0.125245 0.000187576)
(165.312 0.440063 -2.2975e-05)
(165.418 0.55806 2.50683e-05)
(165.684 0.355177 -2.81788e-06)
(165.46 0.491645 4.70743e-06)
(165.573 0.585249 4.74552e-05)
(165.671 0.168426 -2.46543e-06)
(165.477 0.0402711 -8.71443e-08)
(165.624 0.336231 6.81381e-05)
(165.585 0.540101 -1.30268e-05)
(127.358 -0.179129 -2.23587e-05)
(165.603 0.29585 0.00021594)
(165.7 0.212186 -1.66546e-08)
(29.2854 -5.03521 0.479852)
(85.429 -12.1293 -4.43353)
(105.368 -18.9617 -0.11514)
(100.09 -18.804 -2.34529)
(109.019 -15.6635 -0.00136017)
(95.7384 -16.2623 -0.0218969)
(120.289 -12.4439 -0.000224152)
(108.942 -13.3983 0.00189418)
(111.699 -12.5907 5.72366e-05)
(126.065 -5.37689 0.000202891)
(81.4446 -6.27097 -5.05093)
(113.526 -10.9488 -2.77031e-06)
(89.9083 -8.98163 -0.563824)
(121.942 -4.8912 0.00146011)
(101.709 -23.9523 3.9373)
(111.171 -9.72102 0.000107583)
(110.304 -8.57126 0.00114709)
(105.815 -8.61394 0.000393194)
(122.288 -1.2562 -2.54822e-05)
(101.197 -19.6679 20.495)
(111.795 -5.63176 0.000291356)
(82.7205 -4.88567 -1.32723)
(100.754 -5.82802 0.00187172)
(106.939 -5.08296 0.000716756)
(117.929 -2.22683 1.05748e-06)
(101.974 -4.49079 0.00207518)
(117.428 -1.97465 0.0010384)
(79.7246 0.930367 0.0859152)
(109.922 -1.78782 0.00211116)
(110.896 -0.600102 0.00024777)
(93.9906 -0.142798 0.00129148)
(113.825 0.8072 0.00156377)
(105.343 0.932879 0.00263032)
(114.888 1.28346 0.000124026)
(85.7217 -6.12044 2.76416)
(110.148 2.58124 9.63221e-06)
(120.604 1.61282 0.000477434)
(89.4947 11.1019 0.716376)
(116.342 4.32872 -8.69062e-05)
(106.932 6.20272 0.000510165)
(121.059 3.51764 -4.2055e-05)
(113.04 6.38287 -1.25426e-05)
(115.738 7.83406 -0.000176549)
(111.988 8.50055 0.0017057)
(115.022 9.22729 0.0025901)
(101.138 16.2433 0.00552546)
(100.004 9.39129 0.449312)
(107.56 15.8643 6.01739e-05)
(121.152 11.1728 -0.000946205)
(103.913 12.0415 -4.60039)
(104.524 21.1401 0.000581027)
(130.418 3.52064 -1.24882e-05)
(113.866 18.6654 -0.000946541)
(156.236 -42.4891 -0.58447)
(354.202 -6.44805 -7.51305)
(342.749 -4.27298 -0.000409869)
(333.892 -7.08464 -0.000127824)
(317.98 -11.3258 -0.00248216)
(305.029 -8.90741 -6.00281)
(317.023 -26.2118 -5.40745)
(314.721 -5.03642 3.94134e-06)
(314.658 -10.2511 0.000254336)
(40.6562 -12.1246 -1.26703)
(294.686 -25.882 -0.528248)
(226.945 -59.6567 -0.830913)
(220.968 -58.0841 3.05842)
(266.893 -24.0496 -0.00200435)
(264.51 -19.9566 0.000399245)
(242.2 -39.1723 0.00263188)
(241.584 -29.0696 9.56789e-05)
(199.067 -51.5338 0.861443)
(168.284 -51.7298 2.38909)
(229.01 -13.708 0.00020676)
(218.698 -18.288 0.000594892)
(203.29 -16.9578 2.21522e-05)
(170.133 -41.6308 0.00249646)
(188.225 -20.592 0.000814785)
(184.666 -20.5165 0.000538783)
(158.154 -38.4974 0.00425807)
(173.141 -24.6039 7.14299e-06)
(176.008 -20.5597 0.000636877)
(170.728 -21.1583 2.46909e-05)
(152.658 -44.9976 3.39716)
(132.639 -33.0967 -0.0516073)
(135.656 -39.8289 -18.0369)
(136.789 -38.0407 1.265)
(158.593 -23.45 0.000135086)
(160.7 -20.5577 2.62831e-06)
(141.538 -33.6687 0.00228272)
(157.709 -20.3105 -1.62882e-06)
(156.049 -6.96886 -6.66959e-05)
(134.362 -29.7088 -0.00143685)
(145.748 -21.2463 0.000788352)
(140.785 -24.5975 1.30419e-05)
(148.687 -14.3229 -1.75072e-05)
(73.5868 -22.6131 2.51403)
(137.288 -23.0394 0.00159383)
(144.807 -4.86433 0.000156737)
(141.499 -12.5344 -6.33382e-05)
(142.118 -0.240419 -3.46253e-08)
(139.015 -2.11831 -0.000251556)
(113.086 -35.333 -2.72611)
(126.65 -16.2256 -2.16853e-05)
(115.538 -20.5843 -0.00159634)
(103.761 -21.7135 0.0544439)
(118.427 -30.3657 -2.24713)
(56.4397 -16.356 2.13063)
(112.069 -22.7887 4.05709)
(126.473 -12.4339 -3.6006e-05)
(130.078 -7.41661 0.000290331)
(433.648 1.48597 -1.22897e-05)
(424.316 3.07363 -2.69243)
(432.214 1.58313 -4.88336e-05)
(432.35 0.585164 -5.86259e-06)
(417.243 1.63197 0.378238)
(363.554 1.503 0.956935)
(418.213 -4.01866 -1.02384)
(419.746 -15.5495 13.6088)
(424.106 1.0093 0.0003933)
(395.263 -13.3444 -3.51886)
(398.605 -4.34182 6.78651)
(418.348 -0.957898 3.11587)
(378.543 7.61598 3.65829)
(421.41 0.370576 1.63397e-05)
(408.012 5.52117 -1.77168)
(416.702 0.303628 0.000178161)
(414.688 0.05025 0.000348534)
(399.006 2.83848 5.28341)
(410.353 -4.98327 -3.87748)
(415.229 -4.85909 -7.61652)
(408.262 -0.0834279 0.52831)
(402.34 -0.869751 7.47088)
(404.253 -0.452648 -5.75906e-05)
(401.545 -0.881975 -0.000108457)
(393.209 -10.4762 -2.75797)
(402.783 2.13567 -5.49471)
(390.183 8.21034 -3.24257)
(392.328 -1.39392 -0.000463439)
(385.508 -7.34601 -11.5242)
(376.975 -15.5837 16.0403)
(383.354 -0.517909 -3.46592e-05)
(378.02 -15.6124 10.8002)
(380.307 -7.60795 0.362578)
(375.504 -1.6076 0.000889775)
(366.863 -6.79059 -6.14515)
(365.572 3.86633 -2.31914)
(365.965 -0.276224 6.5611e-06)
(309.221 -4.06339 -16.7663)
(360.813 -3.92602 -0.00151902)
(355.606 -4.87577 -1.23134e-05)
(379.739 -3.86111 0.383054)
(360.285 -0.375341 -0.000207306)
(338.932 20.0412 -8.90228)
(335.776 10.5472 -13.6191)
(383.026 1.29007 14.375)
(384.211 8.12733 -4.75777)
(344.656 6.77887 6.36252)
(408.266 3.09569 -1.54108)
(424.106 -0.354762 -0.00656453)
(435.166 -6.6798 6.62919)
(329.36 2.6476 -24.7481)
(375.994 1.05344 1.31591)
(405.962 -4.96682 9.36956)
(368.911 7.55373 3.36085)
(413.33 -1.76807 3.35532)
(359.131 8.28561 -5.46712)
(413.548 -6.65878 2.15059)
(400.011 2.7531 -7.25785)
(411.656 -6.2519 2.00211)
(405.607 10.5943 7.96384)
(406.247 0.251727 -8.83187)
(390.355 -0.688288 -0.0506582)
(430.264 -0.374862 -0.344642)
(419.273 -0.437495 0.8612)
(387.854 1.10617 0.123506)
(420.842 -1.96798 -3.35091)
(437.456 -5.43013 11.1335)
(431.391 -2.4624 -0.23507)
(437.295 7.94012 -4.481)
(417.32 -11.1138 4.85951)
(377.821 6.44729 -4.64944)
(453.633 -12.4953 -7.14993)
(433.422 -2.23011 -3.37889)
(427.127 -8.4315 1.30805)
(421.069 -4.67692 -6.24723)
(389.548 10.463 -15.0882)
(441.103 -4.12254 -5.8668)
(390.691 -0.104689 1.92462)
(361.811 14.2865 -7.46842)
(427.902 -8.00013 -9.41353)
(416.185 -4.39603 8.24143)
(421.974 2.44861 0.349515)
(422.169 -12.6467 -15.0796)
(434.183 -5.68481 -3.87179)
(436.353 0.631377 -2.84174)
(461.072 -10.6427 -6.23908)
(430.025 -5.04504 -1.32835)
(410.988 5.48324 -4.13372)
(427.514 0.894075 -2.21887)
(445.099 -8.15963 -2.54692)
(389.09 1.34144 -13.5246)
(366.759 11.4728 2.79241)
(435.711 3.026 -11.3931)
(445.496 0.0011741 0.0793186)
(428.96 -2.72475 7.25725)
(429.933 -15.385 2.76998)
(436.274 -8.74727 -2.25133)
(401.404 4.77643 0.873402)
(421.324 -1.05767 -1.57789)
(424.558 1.88377 -3.93452)
(440.121 0.463005 -0.539913)
(435.686 -4.4595 -0.816952)
(433.368 -7.39369 19.7837)
(427.396 0.969701 -1.80894)
(415.008 -11.1179 13.2136)
(443.355 2.22584 -0.0331673)
(445.171 0.0332735 0.0239196)
(425.089 5.50721 1.54947)
(442.296 4.62982 -0.917391)
(431.773 -0.399862 1.02427)
(354.404 5.22255 2.0688)
(421.443 -1.42225 -2.52037)
(437.967 -3.7791 -0.704049)
(432.821 -3.52184 1.1417)
(431.421 4.75738 0.311357)
(351.533 0.116855 1.01473)
(445.211 -5.00677 -0.124741)
(443.228 0.000432877 0.0134377)
(437.196 -3.61341 2.41392)
(446.393 -0.144638 -0.0132737)
(426.71 0.931651 1.64726)
(439.925 1.0457 -1.41323)
(435.984 0.974096 -1.86832)
(409.964 -8.98785 -12.3754)
(416.519 -1.89653 3.84055)
(372.03 5.91615 1.4454)
(398.498 -0.409007 -11.7597)
(343.906 9.327 3.84899)
(432.747 -5.63679 -11.982)
(439.861 -2.05411 0.514228)
(419.063 1.47138 2.28824)
(441.51 0.00174386 0.0519054)
(410.22 -6.61461 -0.386633)
(415.363 -6.81151 -3.41057)
(425.739 -8.38711 3.59378)
(442.959 0.209589 -0.0233015)
(438.972 -0.132771 0.0243674)
(428.006 0.329964 0.610471)
(437.824 -0.423855 -1.13083)
(443.465 -3.14079 -4.39186)
(439.103 -3.88771 2.6949)
(440.573 -9.50597 1.74554)
(426.471 -7.16272 3.05359)
(401.598 -0.333783 6.55153)
(436.297 0.0570366 0.204853)
(433.896 0.504531 -3.32929)
(403.944 6.23756 1.62699)
(444.386 -9.20735 -0.226834)
(400.157 -0.446878 -0.184604)
(413.63 -0.572209 -0.293608)
(431.627 -2.60131 -1.51697)
(441.638 1.50575 -0.242747)
(442.827 -0.0630684 -4.53886e-06)
(377.546 41.2781 0.8807)
(346.039 16.7075 -7.27758)
(380.533 0.354016 0.427065)
(398.977 2.42241 1.6264)
(421.216 0.612272 0.0717806)
(374.555 9.26593 -3.75312)
(354.959 5.88168 4.71765)
(437.077 -11.5707 5.18239)
(435.316 -3.90604 -4.0234)
(434.188 -21.1214 20.3388)
(434.869 -2.56247 5.04671)
(414.107 -5.06093 9.25129)
(395.228 0.570198 -1.09973)
(442.981 -0.0154389 -2.76405e-05)
(447.885 7.85786 -7.64147)
(364.817 3.23264 9.21299)
(336.063 7.77685 -12.9941)
(404.412 -2.94173 0.376238)
(420.618 5.85895 2.95332)
(442.87 -0.0109161 -4.48385e-05)
(408.891 -4.8103 -5.84564)
(440.425 1.39519 0.160529)
(406.565 5.76719 -12.3715)
(417.083 -3.45519 4.31302)
(398.03 -0.491458 -0.186416)
(404.563 -0.557991 -0.0137615)
(432.563 3.23635 -6.1478)
(442.898 0.016817 -2.51735e-05)
(443.428 7.32487 -0.180778)
(432.921 -8.65925 0.232087)
(448.748 -19.2831 -5.24637)
(437.456 -7.00134 8.60488)
(409.901 1.4199 5.86048)
(442.567 -4.65311 0.921599)
(436.021 7.49024 -1.50167)
(435.049 -4.14676 -1.3845)
(393.763 1.76871 0.798508)
(382.931 2.76254 -1.04768)
(440.443 0.0676111 0.92084)
(391.188 -0.81326 -4.39371)
(377.108 7.43155 3.10695)
(441.631 1.02515 1.01581)
(414.652 6.96659 -2.83544)
(442.568 0.0149332 -7.32831e-05)
(415.823 -0.377641 0.0362328)
(401.034 -2.73859 1.94981)
(444.397 -13.9715 -3.46785)
(445.429 -3.85476 10.6124)
(438.141 -3.55916 -1.84239)
(324.55 14.562 9.01195)
(382.224 6.29257 1.1082)
(407.299 0.305226 -1.41832)
(425.197 2.02311 0.21059)
(435.75 -8.65237 0.23685)
(442.481 -0.00654441 8.89954e-06)
(394.049 -0.681564 -2.98143)
(442.694 0.024651 -1.91877e-05)
(397.986 -1.54199 4.29397)
(438.325 -8.58685 7.72215)
(408.366 1.67107 1.20848)
(406.355 -2.86361 -5.6239)
(438.221 2.93563 -2.51023)
(443.338 -6.66529 4.84317)
(407.809 -8.7988 -1.98381)
(392.903 7.00952 0.456759)
(434.61 -5.96433 0.943724)
(442.718 0.0129463 1.62964e-05)
(434.507 0.340686 -0.623718)
(414.54 -2.29043 12.2514)
(440.313 -11.5594 11.8956)
(443.075 -0.172815 0.575098)
(437.315 -1.85998 7.34373)
(444.578 0.0615776 -3.93511)
(440.777 -5.00057 7.0881)
(437.074 6.71369 0.492409)
(441.424 0.379534 0.924071)
(441.9 -5.11505 -8.77462)
(430.511 -1.74268 -12.0116)
(388.325 -1.01864 -2.33988)
(440.726 -0.704675 0.999697)
(432.117 -6.02248 -0.851273)
(433.595 4.31532 -0.901815)
(444.997 -4.1812 -0.406655)
(383.347 5.61697 -10.5682)
(389.89 -0.335268 -12.3106)
(440.2 -8.586 8.83603)
(424.555 -2.21705 -0.759941)
(442.772 -3.10424 1.9644)
(420.025 -11.2372 8.00527)
(389.891 7.06581 11.0132)
(442.349 -3.60039 5.2202)
(418.669 -0.47685 -0.0366887)
(442.24 -0.00717677 -1.67572e-06)
(449.156 -28.7243 -7.78651)
(444.01 -3.8296 13.0716)
(432.508 -9.8211 8.72713)
(437.235 -0.918184 2.11168)
(377.613 1.57069 -2.64678)
(432.402 -9.25334 3.07851)
(428.872 -5.83907 -1.88942)
(441.915 0.0182455 -7.54387e-06)
(438.251 -4.42651 -14.2959)
(410.91 -0.0763114 0.299975)
(437.262 -1.30254 -3.11581)
(438.902 -5.21735 -1.2067)
(442.056 0.00903467 -7.17314e-07)
(424.098 -9.70708 -11.4314)
(441.895 0.0193187 1.8964e-07)
(424.543 -1.29538 -0.994868)
(441.01 1.64171 -3.99826)
(423.669 0.254573 -6.34874)
(427.619 -8.55986 -10.2201)
(441.297 4.79543 -9.94315)
(441.714 0.010144 -1.30888e-05)
(432.409 -10.7457 1.93154)
(442.566 -2.24737 0.0706526)
(441.729 0.00767199 -4.58781e-05)
(441.686 0.00654261 -7.70272e-06)
(416.588 7.28861 -1.45024)
(435.186 2.8734 6.76947)
(438.33 -0.288863 0.701424)
(421.203 -2.26434 0.289139)
(440.531 4.25663 -2.98227)
(441.641 0.0106555 9.72428e-06)
(422.801 0.373635 -0.761464)
(441.759 0.00566491 1.75896e-07)
(441.285 -0.0083513 -4.68398e-06)
(441.088 -0.0220347 4.37251e-05)
(434.415 -6.78158 1.30321)
(414.671 -3.08367 3.75141)
(442.199 1.66064 0.173971)
(376.523 2.19392 6.75884)
(434.308 -3.51206 6.43881)
(451.139 -4.98426 1.12723)
(416.453 3.90475 -14.4655)
(428.492 -1.29385 3.52769)
(406.56 0.941616 0.774609)
(440.256 4.40965 1.0767)
(420.494 0.282859 0.347485)
(431.733 2.51985 -1.17533)
(440.632 -0.0522007 -2.07557e-05)
(413.781 -0.566149 -2.32637)
(440.872 -0.0385733 -6.24683e-07)
(442.397 -4.24951 -9.74129)
(424.039 -0.028126 -0.041961)
(430.686 0.00211418 0.0519423)
(413.65 0.884213 1.61704)
(427.198 0.0152225 -0.0272931)
(419.992 -0.293665 1.07435)
(436.835 0.00260747 -0.0794293)
(431.374 -2.49546 -0.605091)
(434.535 6.07726 4.30556)
(434.217 -4.04263 -2.18523)
(424.475 -1.92982 -1.80856)
(425.91 -8.14876 -11.7853)
(433.711 -3.74126 -2.42188)
(438.914 0.980588 2.18045)
(430.494 2.54749 -3.37485)
(440.606 -2.59982 -0.677167)
(409.871 -1.07869 3.17898)
(374.36 6.67015 18.0404)
(402.959 -0.235755 0.56568)
(441.402 -5.1492 1.07945)
(436.055 -3.93554 -5.85612)
(435.943 0.00278139 0.0955072)
(409.552 0.603214 1.32785)
(430.108 -6.08236 12.0407)
(417.216 1.93448 -10.5559)
(433.714 -1.19242 5.14023)
(434.199 -2.97798 -0.784023)
(432.234 3.45796 8.98732)
(430.345 2.23932 -10.518)
(420.842 0.474903 -5.86665)
(405.849 -8.06723 -12.4764)
(435.353 -7.36386 -8.15627)
(426.402 -0.158307 1.68214)
(463.793 -15.1184 -8.78457)
(427.24 -1.77375 8.17871)
(439.764 0.000631526 -0.0230794)
(410.687 3.45886 -4.65501)
(433.005 0.0687604 -0.0866921)
(441.4 -3.61999 -0.955777)
(400.525 -0.516532 4.97804)
(424.957 -4.48336 -2.92926)
(425.014 -22.6335 4.19351)
(417.811 -2.93279 1.33215)
(452.345 -5.34402 8.80292)
(340.626 14.6604 9.57212)
(395.974 -3.43734 12.2369)
(437.291 -1.53282 -1.39257)
(382.378 7.25702 19.6561)
(420.941 4.863 -8.95552)
(433.764 -7.57367 0.316062)
(431.649 3.38787 3.87744)
(437.432 -3.66708 7.6547)
(433.633 0.203151 0.404277)
(434.775 2.36609 -3.01726)
(443.125 0.00136437 -0.0513465)
(443.163 0.0949575 0.0918023)
(410.136 -7.47258 4.12457)
(440.415 1.22297 -6.9157)
(402.342 3.76641 4.53179)
(422.736 -2.53245 -2.53449)
(434.446 -6.63819 -1.98827)
(407.261 -10.9873 10.3799)
(434.1 -10.5989 -3.19578)
(428.086 -8.71995 -5.96595)
(441.333 -8.4694 -0.208913)
(398.402 4.07259 7.46765)
(436.039 -1.99132 -0.522054)
(419.534 -6.54403 3.67394)
(373.199 5.56529 14.7143)
(430.866 -6.2151 6.09026)
(382.91 -9.54617 -2.40239)
(405.906 -0.141077 1.62319)
(401.26 -0.169455 -0.118189)
(438.451 -3.20166 2.27692)
(433.692 -5.60537 -9.02049)
(429.779 -2.01646 0.891774)
(412.966 -0.877423 0.93029)
(413.067 -5.27708 1.20213)
(424.804 -0.141552 5.39699)
(356.341 11.7635 8.3237)
(421.362 -1.09086 -7.19376)
(406.703 -3.84713 9.95129)
(421.117 -5.23588 3.01425)
(438.731 -8.17416 1.74789)
(400.024 8.97552 6.04941)
(442.53 0.86638 0.460358)
(404.725 4.86509 -9.22216)
(433.902 9.99735 -5.64181)
(408.753 1.56002 -3.63056)
(443.295 -6.13088 -7.02075)
(419.901 -5.13211 1.87357)
(396.213 -2.58261 1.23029)
(399.253 8.34311 -11.4411)
(429.904 2.47568 2.16292)
(454.405 -4.89956 8.12525)
(419.119 -1.55961 1.71898)
(441.389 0.00143185 -0.0458428)
(442.614 -4.17162 3.61628)
(439.317 -2.53095 3.02664)
)


// ************************************************************************* //
