/*--------------------------------*- C++ -*----------------------------------*\
  =========                 |
  \\      /  F ield         | OpenFOAM: The Open Source CFD Toolbox
   \\    /   O peration     | Website:  https://openfoam.org
    \\  /    A nd           | Version:  7
     \\/     M anipulation  |
\*---------------------------------------------------------------------------*/
FoamFile
{
    version     2.0;
    format      ascii;
    class       vectorField;
    location    "0.115/lagrangian/reactingCloud1";
    object      UTurb;
}
// * * * * * * * * * * * * * * * * * * * * * * * * * * * * * * * * * * * * * //


633
(
(3.98615 3.94381 6.22417)
(-0.740156 -3.45317 -5.17111)
(7.68011 3.22888 0.375959)
(-6.28536 6.53184 -8.3771)
(0 0 0)
(0 0 0)
(-12.3992 2.02453 6.50564)
(0 0 0)
(12.8118 -4.78145 7.62506)
(2.55253 -3.82159 -4.31653)
(-2.20329 2.26632 2.68761)
(-9.30691 1.37314 -9.66249)
(0 0 0)
(-1.48381 1.42979 -1.1786)
(-3.36481 -7.47287 -3.36614)
(0 0 0)
(0 0 0)
(-1.60517 2.14053 -3.21571)
(-0.68365 -1.29371 0.0461385)
(0.470334 0.0724106 -0.242601)
(2.87184 -10.32 -3.21947)
(-5.95938 -6.59056 2.11756)
(-2.97554 0.181327 5.24178)
(0.417099 0.57533 0.980345)
(-2.32723 -6.67424 -0.768915)
(0 0 0)
(0 0 0)
(1.92946 3.65702 -10.8875)
(-3.07279 -1.03948 1.6639)
(20.6496 11.0564 -5.92552)
(5.30965 -2.46209 -0.0491359)
(6.01862 4.57296 4.46758)
(-0.967425 2.23209 -0.711443)
(1.90368 -0.154265 -2.42807)
(-3.38395 -3.14397 -11.1665)
(0 0 0)
(0 0 0)
(-2.74931 3.89049 4.61913)
(-8.00684 1.20812 0.473333)
(22.128 -12.3652 -7.28125)
(-1.60657 3.37185 -3.66718)
(0 0 0)
(-11.2354 -2.7866 -3.7153)
(0 0 0)
(0 0 0)
(-34.1646 -4.20506 -6.77673)
(-6.11786 0.326992 5.99088)
(-0.147594 1.97875 -2.23183)
(-0.403695 0.328912 1.70074)
(2.80632 -1.23549 -2.38621)
(0.384931 -2.53691 2.67656)
(-0.573911 -7.06362 3.5441)
(-6.34034 -6.35503 6.37899)
(1.15926 1.07227 -1.40814)
(-1.78963 -3.22779 2.74442)
(-29.95 2.10848 -16.2343)
(1.86832 3.79767 -4.20869)
(-15.182 12.462 12.2276)
(17.7019 -12.1038 -3.67172)
(17.6589 0.168916 -0.728051)
(0 0 0)
(0 0 0)
(0 0 0)
(0 0 0)
(0 0 0)
(3.7405 2.5356 1.65616)
(0 0 0)
(0 0 0)
(0 0 0)
(1.43141 -3.34166 -0.0682379)
(0 0 0)
(0 0 0)
(0 0 0)
(0 0 0)
(0 0 0)
(0 0 0)
(0.491089 -0.191238 -0.553314)
(0 0 0)
(0 0 0)
(0 0 0)
(0 0 0)
(0 0 0)
(0 0 0)
(0 0 0)
(0 0 0)
(0 0 0)
(1.49201 1.05111 -0.506676)
(0 0 0)
(0 0 0)
(0 0 0)
(0 0 0)
(0 0 0)
(0 0 0)
(0 0 0)
(0 0 0)
(0 0 0)
(0 0 0)
(0 0 0)
(0 0 0)
(0 0 0)
(0 0 0)
(0 0 0)
(0 0 0)
(0 0 0)
(0 0 0)
(0 0 0)
(0 0 0)
(0 0 0)
(0 0 0)
(0 0 0)
(0 0 0)
(0 0 0)
(0 0 0)
(0 0 0)
(0 0 0)
(0 0 0)
(0 0 0)
(0 0 0)
(0 0 0)
(0 0 0)
(0 0 0)
(0 0 0)
(0 0 0)
(0 0 0)
(0 0 0)
(0 0 0)
(0 0 0)
(0 0 0)
(-0.158502 -0.234465 0.479824)
(-1.75708 1.98807 -4.43517)
(2.11385 -3.11077 -0.113693)
(-1.06655 -5.12937 -2.3442)
(0 0 0)
(-1.40792 -3.37436 -0.0234727)
(0 0 0)
(0 0 0)
(0 0 0)
(0 0 0)
(-2.86039 3.63799 -5.04934)
(0 0 0)
(0.135374 0.55191 -0.566626)
(0 0 0)
(-2.03202 -14.7719 3.93698)
(0 0 0)
(0 0 0)
(0 0 0)
(0 0 0)
(1.25988 -12.2219 20.4934)
(0 0 0)
(-2.72135 -1.15612 -1.33064)
(0 0 0)
(0 0 0)
(0 0 0)
(0 0 0)
(0 0 0)
(-11.3459 1.17113 0.0845412)
(0 0 0)
(0 0 0)
(0 0 0)
(0 0 0)
(0 0 0)
(0 0 0)
(-8.52615 -11.0147 2.76366)
(0 0 0)
(0 0 0)
(2.32194 3.8644 0.712296)
(0 0 0)
(0 0 0)
(0 0 0)
(0 0 0)
(0 0 0)
(0 0 0)
(0 0 0)
(0 0 0)
(1.05996 -7.62155 0.447151)
(0 0 0)
(0 0 0)
(3.50882 -6.75248 -4.6027)
(0 0 0)
(0 0 0)
(0 0 0)
(-1.6265 0.400536 -0.579081)
(10.7051 5.51314 -7.51198)
(0 0 0)
(0 0 0)
(0 0 0)
(-8.02182 17.7537 -6.00133)
(3.09208 -2.38112 -5.40421)
(0 0 0)
(0 0 0)
(-0.427889 -0.0832162 -1.26937)
(1.42778 5.88384 -0.521401)
(-2.02764 2.07753 -0.831295)
(-5.12647 -3.0735 3.05797)
(0 0 0)
(0 0 0)
(0 0 0)
(0 0 0)
(-3.60515 -3.43031 0.861832)
(-2.42419 -3.36456 2.39122)
(0 0 0)
(0 0 0)
(0 0 0)
(0 0 0)
(0 0 0)
(0 0 0)
(0 0 0)
(0 0 0)
(0 0 0)
(0 0 0)
(-0.756646 -11.5956 3.39713)
(0.569454 3.33708 -0.0497294)
(-7.35653 -5.71502 -18.0394)
(-7.22047 -3.63383 1.26491)
(0 0 0)
(0 0 0)
(0 0 0)
(0 0 0)
(0 0 0)
(0 0 0)
(0 0 0)
(0 0 0)
(0 0 0)
(-1.78448 -3.57611 2.57073)
(0 0 0)
(0 0 0)
(0 0 0)
(0 0 0)
(0 0 0)
(0.78804 -13.1091 -2.72556)
(0 0 0)
(0 0 0)
(0.568039 -1.36261 0.0549874)
(-0.396859 -11.3106 -2.24797)
(-6.91796 -4.84186 2.13045)
(0.107692 -3.12603 4.05589)
(0 0 0)
(0 0 0)
(0 0 0)
(2.01112 0.899231 -2.69239)
(0 0 0)
(0 0 0)
(0.00548792 -0.631701 0.378506)
(0.441642 -0.326864 0.95676)
(-6.63144 -5.46207 -1.02406)
(-2.36659 -17.1092 13.6087)
(0 0 0)
(-26.0936 -14.1576 -3.51886)
(-17.3289 -5.82942 6.78649)
(-1.03105 -2.46973 3.11522)
(-3.36405 6.36689 3.65751)
(0 0 0)
(-3.61488 4.51248 -1.77169)
(0 0 0)
(0 0 0)
(9.65815 2.31292 5.28358)
(-1.5104 -5.41678 -3.87786)
(1.19849 -5.17142 -7.61705)
(-0.408402 -0.249339 0.528217)
(1.4811 0.159399 7.47066)
(0 0 0)
(0 0 0)
(-1.14747 -8.43404 -2.75801)
(5.77269 4.1262 -5.49471)
(-5.2996 10.489 -3.24262)
(0 0 0)
(-4.83537 -5.19182 -11.5246)
(-8.24969 -11.5851 16.0408)
(0 0 0)
(-1.17558 -12.0142 10.8005)
(4.49484 -2.21422 0.36334)
(0 0 0)
(2.54872 0.401895 -6.14492)
(-3.24988 8.6742 -2.31882)
(0 0 0)
(5.39947 4.32564 -16.7656)
(0 0 0)
(0 0 0)
(1.84763 -3.2519 0.383015)
(9.75109e-05 -0.000130471 -0.000231618)
(1.72707 19.9387 -8.90228)
(-10.2186 10.6193 -13.6193)
(-3.53911 1.94684 14.3746)
(1.77245 8.7314 -4.75805)
(8.57143 6.5126 6.36252)
(-6.03077 3.61618 -1.54109)
(0.0952513 0.104277 -0.00655884)
(-6.58902 -6.60429 6.62919)
(-45.657 3.21425 -24.7482)
(1.49537 1.60556 1.31558)
(-6.50866 -4.41259 9.36956)
(-8.02758 8.12999 3.36075)
(-1.45625 -1.23527 3.35532)
(-2.21357 8.64139 -5.46755)
(-12.8908 -6.23521 2.15056)
(6.45571 3.3772 -7.25785)
(-12.001 -5.80481 2.00211)
(18.1474 11.2092 7.96384)
(2.49773 0.875518 -8.83188)
(0.691219 -0.0743309 -0.0506582)
(1.10181 0.020918 -0.344601)
(0.00558457 0.0641669 0.861237)
(-16.5731 1.71069 0.123491)
(-2.27363 -1.50472 -3.35092)
(-3.92387 -5.31786 11.1335)
(2.87098 -2.0613 -0.235069)
(1.66923 8.22292 -4.48096)
(2.28855 -10.5612 4.85949)
(6.20528 6.9625 -4.64945)
(21.7288 -12.1421 -7.1499)
(9.28419 -1.76209 -3.3789)
(-10.3422 -8.20302 1.30809)
(-0.894183 -4.17178 -6.24723)
(14.4858 11.0142 -15.0883)
(0.923097 -3.98311 -5.86678)
(-4.01682 0.499281 1.9245)
(26.0266 13.9354 -7.46849)
(-12.8931 -7.89379 -9.41353)
(-5.72501 -3.88131 8.24145)
(7.13712 3.0006 0.349379)
(-20.6535 -12.6451 -15.0796)
(-1.508 -5.40817 -3.8717)
(2.12266 0.949106 -2.84172)
(18.9607 -10.5953 -6.23906)
(-10.7126 -4.94415 -1.32834)
(0.654882 6.03211 -4.13367)
(-2.83009 1.30787 -2.21886)
(2.2719 -8.16412 -2.54691)
(-13.0269 1.92199 -13.5246)
(3.10331 11.8544 2.79239)
(9.1989 3.49492 -11.3931)
(2.5812 -0.555 2.1813)
(-6.40566 -2.40763 7.25726)
(-3.84437 -15.0218 2.77009)
(4.06405 -8.35915 -2.2512)
(0.342922 5.37089 0.873401)
(-1.27093 -0.574192 -1.57785)
(-5.01834 2.31912 -3.9345)
(-2.83195 0.460251 -0.539913)
(-5.2902 -4.35734 -0.816938)
(8.1612 -6.93943 19.7836)
(1.98388 1.42497 -1.80898)
(-6.69257 -10.6621 13.2136)
(0.3798 2.22568 -0.0331672)
(2.19371 -3.17634 -0.480682)
(3.37494 5.95136 1.54946)
(5.06486 4.92169 -0.917382)
(27.7259 0.188292 1.02426)
(1.51224 5.27838 2.06846)
(-0.531296 -0.987632 -2.52038)
(-4.55936 -3.75538 -0.704078)
(-6.84444 -3.31062 1.14185)
(-0.329296 5.13478 0.31142)
(0.00657982 0.0756024 1.01472)
(2.39562 -4.98823 -0.124725)
(0.222339 -0.164556 0.481669)
(-2.44737 -3.39674 2.41408)
(3.38475 -1.56951 -0.0313227)
(0.306194 1.31791 1.64732)
(-0.0934519 1.25288 -1.41312)
(2.32858 1.30415 -1.86832)
(1.94718 -8.40199 -12.3754)
(-1.66684 -1.41391 3.84055)
(0.274317 6.40392 1.44539)
(-7.6485 0.175067 -11.7599)
(-9.19375 9.31104 3.84897)
(-5.02726 -5.39786 -11.982)
(2.56267 -1.81239 0.514288)
(-1.87588 1.92954 2.28823)
(-1.51552 -1.00299 -2.2336)
(3.67052 -6.03523 -0.386832)
(-5.09303 -6.32526 -3.41057)
(-11.6697 -8.16759 3.5938)
(-0.0670444 0.211714 -0.0233015)
(0.00377778 0.0614191 0.0243922)
(-4.34541 0.625413 0.610477)
(-0.189486 -0.226417 -1.13076)
(1.23046 -3.03319 -4.39188)
(-1.87069 -3.74886 2.69491)
(-2.42249 -9.46586 1.74554)
(-9.91567 -6.93994 3.05363)
(-3.719 0.226632 6.55146)
(-1.72831 0.247226 0.204871)
(1.07045 0.806806 -3.3293)
(0.310999 6.78075 1.62701)
(4.35667 -9.0716 -0.226825)
(0.543294 0.0907595 -0.184637)
(-0.0710625 -0.0252985 -0.293604)
(-5.3779 -2.38998 -1.51681)
(-0.28706 1.5911 -0.242744)
(0 0 0)
(-0.324796 41.8034 0.88039)
(1.41187 16.2998 -7.27759)
(1.57989 0.891304 0.426921)
(2.2797 2.97225 1.6264)
(-9.65942 0.997056 0.071975)
(-4.35831 9.79636 -3.75349)
(-8.36256 6.20928 4.71764)
(2.44061 -11.2629 5.18239)
(2.3792 -3.56208 -4.02341)
(-3.79726 -20.9174 20.339)
(-3.50583 -2.3768 5.04683)
(5.54449 -4.56907 9.2513)
(5.57123 1.15293 -1.09984)
(0 0 0)
(4.88931 7.86363 -7.64147)
(-20.647 3.78524 9.213)
(-16.9892 7.57832 -12.9942)
(4.68635 -2.37456 0.376245)
(-2.46233 6.32844 2.95326)
(0 0 0)
(-17.6777 -4.38443 -5.84564)
(1.75544 1.59768 0.160641)
(10.3839 6.3468 -12.3715)
(-1.6419 -3.02452 4.31304)
(0.548538 0.0916357 -0.18642)
(-0.00726799 -0.00806535 -0.013762)
(-2.02239 3.58959 -6.14772)
(0 0 0)
(1.50487 7.36951 -0.18077)
(-6.32339 -8.44313 0.232182)
(6.11667 -19.2946 -5.24637)
(-4.35828 -6.94329 8.60488)
(-11.1697 1.82378 5.86052)
(0.766406 -4.5917 0.921601)
(2.58623 7.84447 -1.50161)
(-7.47858 -4.15804 -1.3845)
(2.08442 2.32951 0.79851)
(-1.4248 3.28738 -1.0478)
(-0.415427 0.210022 0.920861)
(3.4448 -0.279151 -4.39372)
(2.27132 7.92791 3.10674)
(-1.23989 1.02262 1.01581)
(-3.29233 7.40031 -2.83544)
(0 0 0)
(0.00561194 0.0912389 0.036235)
(-1.2891 -2.18104 1.94984)
(1.53713 -13.9831 -3.46785)
(4.37785 -3.72247 10.6124)
(-2.75123 -3.41687 -1.84237)
(-24.8339 14.1532 9.01193)
(0.435089 6.81442 1.10814)
(-1.25589 0.844491 -1.41831)
(-1.81487 2.37479 0.210596)
(-6.45064 -8.61303 0.236854)
(0 0 0)
(-6.07829 -0.146096 -2.9816)
(0 0 0)
(3.47463 -1.00451 4.29385)
(-1.437 -8.41828 7.7222)
(1.69394 2.20854 1.2085)
(4.88082 -2.33822 -5.62402)
(-3.21662 3.02607 -2.51019)
(2.74148 -6.53392 4.84318)
(0.622455 -8.27559 -1.98378)
(-0.482977 7.53116 0.456758)
(-7.46135 -5.91807 0.943725)
(0 0 0)
(-3.27142 0.531672 -0.623697)
(-17.8795 -1.99722 12.2515)
(-2.26674 -11.5564 11.8956)
(1.1839 -0.123062 0.575177)
(-0.528271 -1.68063 7.34376)
(2.55135 0.100269 -3.93511)
(0.547801 -4.8917 7.08817)
(-4.22483 6.76821 0.49241)
(-0.741584 0.402952 0.924088)
(11.157 -4.76741 -8.77462)
(3.67301 -1.33661 -12.0114)
(-0.392104 -0.468525 -2.33989)
(3.32484 -0.511219 0.999774)
(3.88448 -5.62447 -0.851162)
(-6.59087 4.4032 -0.901767)
(3.8316 -4.13734 -0.406646)
(-3.47658 6.17067 -10.5682)
(-8.00664 0.183264 -12.3106)
(-1.68373 -8.58411 8.83606)
(-6.40981 -1.8605 -0.759869)
(2.02311 -3.04879 1.9644)
(4.53139 -10.7999 8.00528)
(7.07159 7.61888 11.0132)
(0.403437 -3.60257 5.2202)
(0.500508 -0.0538226 -0.0366813)
(0 0 0)
(9.078 -28.6359 -7.78635)
(16.3625 -3.45039 13.0716)
(-1.624 -9.51381 8.72714)
(3.38204 -0.606423 2.1117)
(2.9027 2.08493 -2.6468)
(-9.64006 -9.26683 3.07849)
(-10.2057 -5.67431 -1.88937)
(0 0 0)
(-0.402095 -4.23995 -14.2958)
(-2.53133 0.362094 0.30006)
(0.596112 -1.05664 -3.11581)
(0.378553 -5.0329 -1.20646)
(0 0 0)
(-15.6567 -9.58579 -11.4313)
(0 0 0)
(-2.00782 -0.943947 -0.99479)
(3.55632 1.86043 -3.99821)
(-6.20116 0.57906 -6.34873)
(-13.9978 -8.57015 -10.2201)
(8.34569 5.101 -9.94315)
(0 0 0)
(-2.68074 -10.475 1.93163)
(1.13455 -2.23811 0.0706519)
(0 0 0)
(0 0 0)
(8.00661 7.78028 -1.45021)
(-5.98652 2.89324 6.76947)
(18.9879 0.128951 0.701457)
(3.60145 -1.82484 0.289143)
(0.472469 4.35191 -2.98227)
(0 0 0)
(3.85673 0.798125 -0.761373)
(0 0 0)
(0 0 0)
(0 0 0)
(1.08376 -6.49304 1.30322)
(-1.4281 -2.63068 3.75141)
(1.90112 1.73026 0.173972)
(-15.147 2.77693 6.75884)
(3.85897 -3.18007 6.43891)
(10.6201 -4.91503 1.12723)
(11.6796 4.4374 -14.4654)
(4.17443 -0.89757 3.52769)
(0.649852 1.46189 0.774796)
(0.20581 4.48729 1.0767)
(1.28636 0.725706 0.347602)
(-4.59941 2.75791 -1.17533)
(0 0 0)
(-4.74254 -0.11399 -2.32637)
(0 0 0)
(7.70577 -3.95398 -9.74129)
(-0.120156 0.379432 -0.0417607)
(-0.509328 -4.61865 -2.53937)
(-1.91524 1.49927 1.61679)
(-5.73962 -3.13087 -0.832302)
(1.65683 0.302047 1.0741)
(3.34149 -3.66211 -4.51842)
(-0.790323 -2.07944 -0.605088)
(3.56048 6.55708 4.30558)
(-0.438297 -3.97454 -2.18524)
(1.22733 -1.37612 -1.80866)
(-1.67515 -7.61517 -11.7852)
(-0.988394 -3.41774 -2.42188)
(3.1383 1.09202 2.18046)
(-5.71097 2.66063 -3.37487)
(4.65565 -2.40562 -0.677169)
(-2.72512 -0.508025 3.17899)
(-1.5055 7.25014 18.0402)
(-2.00826 0.469805 0.565644)
(10.1708 -4.70707 1.07953)
(-0.832392 -3.78401 -5.85614)
(-1.52982 -0.285193 1.78461)
(-1.57296 1.23133 1.32785)
(-4.24362 -5.75122 12.0408)
(-8.14186 2.31972 -10.5559)
(-2.01573 -0.926736 5.14022)
(-1.024 -2.69427 -0.783996)
(-1.90613 3.76525 8.98717)
(-8.11265 2.3114 -10.5181)
(-5.65077 0.833715 -5.86666)
(-0.14925 -7.33659 -12.4764)
(1.7935 -7.08475 -8.15633)
(-12.2479 -0.186137 4.95328)
(26.6969 -14.9183 -8.78466)
(-3.20724 -1.47454 8.17865)
(0.874992 -0.981071 -1.28944)
(2.85975 4.18488 -4.65503)
(-0.261291 0.323287 -0.0864352)
(6.57115 -3.39538 -0.955781)
(10.3556 0.120106 4.97804)
(-1.19541 -4.13359 -2.92915)
(-3.81159 -22.342 4.1936)
(3.53181 -2.26789 1.3321)
(13.2879 -5.27476 8.80294)
(7.91551 14.5774 9.57197)
(-0.880241 -2.80038 12.2367)
(0.463122 -1.42284 -1.39256)
(-1.64035 7.89954 19.6561)
(24.4674 5.50603 -8.95588)
(10.9176 -7.08627 0.316179)
(4.69376 3.75513 3.87765)
(-2.69781 -3.65623 7.6547)
(-1.43538 0.335788 0.404288)
(-5.10577 2.37868 -3.01722)
(2.61353 -3.25162 2.95385)
(2.50178 -2.70141 -0.265513)
(-13.2925 -6.93765 4.12481)
(1.195 1.23677 -6.91566)
(5.48556 4.38859 4.53178)
(1.71986 -1.92837 -2.53449)
(-2.69765 -6.55456 -1.98827)
(-10.317 -10.3409 10.3799)
(-4.336 -10.5353 -3.19581)
(-2.3237 -8.33353 -5.96595)
(4.01291 -8.3558 -0.208927)
(4.78244 4.73164 7.46754)
(-3.59949 -1.96346 -0.521962)
(-11.8402 -6.17966 3.67415)
(-3.12078 6.16462 14.7141)
(-6.05364 -6.06767 6.09055)
(-19.375 -8.9421 -2.40247)
(2.50375 0.456442 1.62314)
(-0.357422 0.442228 -0.118236)
(-1.58053 -3.16739 2.27691)
(-0.107908 -5.30439 -9.0205)
(2.36451 -1.51833 0.89183)
(0.429338 -0.317758 0.930104)
(5.02895 -4.71053 1.20216)
(-5.5114 0.294578 5.39701)
(18.9669 11.7154 8.32345)
(-0.0681803 -0.529128 -7.19388)
(-8.78354 -3.30138 9.95127)
(3.10436 -4.67821 3.01427)
(16.4667 -7.62086 1.74779)
(-16.6703 9.50068 6.04946)
(0.386121 0.868606 0.460359)
(-12.0574 5.37842 -9.22217)
(19.6616 10.5274 -5.64201)
(-0.738245 2.11552 -3.63056)
(1.54379 -6.09835 -7.02073)
(-3.42121 -4.62268 1.87359)
(1.02015 -1.90733 1.23024)
(-8.58428 8.9209 -11.4411)
(-3.83412 2.84687 2.16298)
(12.2649 -4.86868 8.12525)
(-3.17451 -1.07389 1.71898)
(-0.979285 -3.51203 -2.51426)
(3.19964 -3.98083 3.61628)
(0.0803664 -2.33284 3.02675)
)


// ************************************************************************* //
