/*--------------------------------*- C++ -*----------------------------------*\
  =========                 |
  \\      /  F ield         | OpenFOAM: The Open Source CFD Toolbox
   \\    /   O peration     | Website:  https://openfoam.org
    \\  /    A nd           | Version:  7
     \\/     M anipulation  |
\*---------------------------------------------------------------------------*/
FoamFile
{
    version     2.0;
    format      ascii;
    class       scalarField;
    location    "0.125/lagrangian/reactingCloud1";
    object      age;
}
// * * * * * * * * * * * * * * * * * * * * * * * * * * * * * * * * * * * * * //


1058
(
0.007505
0.00628062
0.006425
0.006257
0.006161
0.006209
0.006137
0.006281
0.006113
0.006185
0.006233
0.006089
0.006353
0.006449
0.005921
0.005969
0.006329
0.005897
0.005945
0.005993
0.006041
0.005825
0.005753
0.005777
0.006065
0.006305
0.010961
0.005633
0.005609
0.005585
0.005729
0.005561
0.005513
0.006521
0.005465
0.005441
0.005705
0.005417
0.005681
0.005849
0.005537
0.005129
0.005153
0.005057
0.005225
0.005273
0.005249
0.005321
0.005009
0.005369
0.005033
0.005201
0.005297
0.00491262
0.005081
0.004913
0.004889
0.002801
0.001577
0.001553
0.001529
0.001505
0.001481
0.001457
0.001433
0.001409
0.001385
0.001361
0.001337
0.001313
0.001289
0.001265
0.001241
0.001217
0.001193
0.001169
0.001145
0.001121
0.001097
0.001073
0.001049
0.001025
0.001001
0.000977
0.000953
0.000929
0.000905
0.000881
0.000857
0.000833
0.000809
0.000785
0.000761
0.000737
0.000713
0.000689
0.000665
0.000641
0.000617
0.000593
0.000569
0.000545
0.000521
0.000497
0.000473
0.000449
0.000425
0.000401
0.000377
0.000353
0.000329
0.000305
0.000281
0.000257
0.000233
0.000209
0.000208625
0.000185
0.000161
0.000137
0.000113
8.9e-05
6.5e-05
4.1e-05
1.7e-05
0.005873
0.003065
0.002945
0.002921
0.002873
0.002849
0.002825
0.002753
0.002705
0.002729
0.002681
0.002657
0.002633
0.002777
0.002585
0.002537
0.002561
0.002513
0.002489
0.002441
0.002417
0.002465
0.004145
0.002393
0.002321
0.002345
0.002273
0.002297
0.002225
0.002249
0.002201
0.002177
0.002369
0.002129
0.002153
0.002081
0.002105
0.002057
0.002033
0.002009
0.001985
0.001961
0.00196062
0.002609
0.001937
0.001913
0.001865
0.001889
0.001841
0.001817
0.001793
0.001769
0.001745
0.001721
0.001697
0.001673
0.001649
0.001625
0.001601
0.008921
0.006401
0.008945
0.010049
0.003953
0.003977
0.003905
0.004961
0.004241
0.004001
0.003881
0.003809
0.003929
0.003785
0.00376062
0.005345
0.003761
0.003665
0.004025
0.003713
0.003833
0.003737
0.003497
0.003545
0.003473
0.003449
0.003617
0.003521
0.003425
0.003689
0.003857
0.003353
0.003641
0.00332862
0.003401
0.004169
0.003377
0.003233
0.003593
0.00325662
0.003209
0.003257
0.003329
0.003569
0.003185
0.003281
0.003041
0.003113
0.003305
0.002969
0.003089
0.003137
0.003017
0.002897
0.002993
0.003161
0.004841
0.004817
0.004985
0.004937
0.004793
0.004721
0.00479262
0.006905
0.006017
0.005105
0.004601
0.005801
0.004673
0.004649
0.005177
0.004577
0.004553
0.004481
0.004505
0.005489
0.004697
0.004385
0.004529
0.004769
0.004409
0.004745
0.004361
0.005393
0.004313
0.004625
0.004265
0.004433
0.007169
0.004289
0.004337
0.004457
0.004097
0.004049
0.004073
0.005657
0.004193
0.004217
0.004865
0.004121
0.015569
0.014081
0.014393
0.014873
0.019145
0.013193
0.013793
0.014225
0.015593
0.013649
0.012617
0.013049
0.012473
0.016793
0.013529
0.012065
0.012089
0.011969
0.012329
0.011873
0.011921
0.012353
0.011849
0.011945
0.013025
0.012689
0.014105
0.012113
0.011801
0.012041
0.011897
0.012857
0.012593
0.012209
0.012953
0.012185
0.011609
0.011825
0.011681
0.011561
0.012785
0.011753
0.014897
0.012401
0.011393
0.011465
0.015137
0.011297
0.011345
0.011273
0.011513
0.011777
0.011705
0.012137
0.011249
0.011441
0.011417
0.011729
0.012233
0.011537
0.011633
0.011057
0.013217
0.011489
0.011153
0.011993
0.010985
0.011225
0.010793
0.010913
0.010937
0.010841
0.011081
0.010817
0.010769
0.010601
0.011009
0.011585
0.010889
0.011369
0.010457
0.010865
0.010577
0.011105
0.010505
0.010385
0.010745
0.010433
0.010673
0.010529
0.011321
0.010625
0.011129
0.010553
0.010265
0.010649
0.010241
0.010289
0.010217
0.010169
0.011657
0.010121
0.0101686
0.010361
0.011033
0.010697
0.009977
0.011177
0.010409
0.012017
0.010193
0.010313
0.010073
0.009905
0.009881
0.009857
0.010025
0.010337
0.009929
0.010097
0.009713
0.009953
0.009569
0.009545
0.010001
0.009617
0.010145
0.009737
0.009641
0.009689
0.010721
0.009425
0.009665
0.009449
0.010481
0.009353
0.009833
0.009761
0.009401
0.009329
0.009377
0.009521
0.009281
0.009809
0.009233
0.009305
0.009113
0.009497
0.009593
0.009257
0.009473
0.009041
0.009137
0.009065
0.009185
0.009089
0.008969
0.009017
0.008993
0.008849
0.009785
0.008873
0.008777
0.008753
0.008801
0.009209
0.008705
0.008681
0.011201
0.008609
0.008513
0.00865662
0.008441
0.008729
0.008825
0.008393
0.008657
0.008369
0.008297
0.008489
0.008225
0.008633
0.008177
0.008345
0.009161
0.008129
0.008537
0.008201
0.008465
0.008273
0.008153
0.007961
0.008081
0.008897
0.007889
0.008561
0.008585
0.007913
0.008057
0.007745
0.008033
0.007985
0.007769
0.007577
0.008249
0.007721
0.007793
0.007841
0.007649
0.008009
0.008417
0.007457
0.007529
0.007553
0.007409
0.007385
0.007673
0.007865
0.007361
0.007433
0.008105
0.007265
0.007481
0.007241
0.007217
0.007145
0.007313
0.007289
0.007601
0.007193
0.007937
0.007025
0.007097
0.008321
0.007001
0.006953
0.007073
0.007049
0.007337
0.006977
0.006929
0.006833
0.006809
0.006737
0.007625
0.006857
0.006641
0.006665
0.006617
0.006689
0.006593
0.007121
0.007817
0.006713
0.007697
0.006881
0.006569
0.006473
0.006497
0.006545
0.006377
0.006785
0.006761
0.019433
0.020513
0.017369
0.022913
0.020825
0.023513
0.020177
0.021497
0.019121
0.018905
0.019001
0.018833
0.019073
0.019169
0.019865
0.018713
0.024761
0.018737
0.018641
0.018545
0.018569
0.018977
0.019913
0.019385
0.018593
0.020345
0.018377
0.020441
0.018353
0.018665
0.020849
0.019049
0.018617
0.018449
0.018761
0.018113
0.021329
0.019889
0.018281
0.018233
0.018689
0.018257
0.018089
0.019553
0.018041
0.019265
0.018209
0.018185
0.017945
0.018161
0.019961
0.019289
0.018857
0.018065
0.018329
0.017849
0.017969
0.022385
0.018497
0.018017
0.017705
0.019649
0.017633
0.017729
0.019937
0.017801
0.018929
0.018785
0.020057
0.018305
0.017993
0.019673
0.018137
0.017489
0.017585
0.019217
0.017465
0.017825
0.017297
0.017513
0.017441
0.017201
0.017777
0.017537
0.017177
0.020369
0.017681
0.017057
0.017561
0.0194806
0.017273
0.017657
0.017009
0.016985
0.017753
0.018953
0.018521
0.019025
0.017225
0.017321
0.017081
0.016817
0.018809
0.017153
0.016769
0.019313
0.016961
0.019241
0.017921
0.016673
0.016649
0.016553
0.020225
0.020705
0.017033
0.017105
0.016913
0.017345
0.016577
0.023465
0.016193
0.016601
0.016937
0.016481
0.017417
0.016217
0.018425
0.016505
0.016409
0.0167926
0.018473
0.016865
0.016145
0.018401
0.016169
0.015905
0.015929
0.016841
0.016241
0.016001
0.016265
0.015881
0.017609
0.016121
0.015641
0.016073
0.023825
0.017897
0.015617
0.015977
0.015737
0.015833
0.016721
0.016457
0.0180886
0.015809
0.019505
0.015377
0.015689
0.016097
0.015425
0.016025
0.015713
0.017129
0.016889
0.015209
0.016385
0.015305
0.015185
0.015521
0.015281
0.016433
0.015113
0.015065
0.016745
0.016625
0.014801
0.016289
0.015857
0.015257
0.015497
0.015545
0.014705
0.014849
0.017873
0.015329
0.015233
0.016313
0.014489
0.016337
0.014585
0.016529
0.014681
0.014513
0.014993
0.014417
0.014465
0.016361
0.014921
0.017249
0.016049
0.016697
0.014321
0.014753
0.015041
0.015665
0.0155206
0.014657
0.014297
0.014153
0.014777
0.014057
0.014945
0.014033
0.014969
0.014129
0.014633
0.015161
0.014273
0.020609
0.014177
0.015761
0.014441
0.013961
0.013865
0.014369
0.013841
0.015449
0.013937
0.013889
0.013721
0.013577
0.015473
0.013985
0.013745
0.015785
0.013553
0.013481
0.013769
0.014201
0.013697
0.014249
0.013433
0.014561
0.013361
0.013817
0.013913
0.013385
0.013625
0.013337
0.013241
0.014009
0.013121
0.013409
0.015401
0.013265
0.013457
0.014825
0.013289
0.012977
0.013097
0.013673
0.013169
0.013505
0.014609
0.013313
0.012929
0.012881
0.013001
0.013145
0.014345
0.017393
0.015953
0.014537
0.013073
0.015353
0.012713
0.012761
0.012809
0.014729
0.012641
0.015089
0.013601
0.015017
0.012521
0.012905
0.012737
0.012425
0.012833
0.012305
0.012281
0.012665
0.012449
0.012569
0.012545
0.0128806
0.012257
0.012497
0.012377
0.012161
0.024977
0.024881
0.024905
0.024689
0.024953
0.024569
0.024809
0.024713
0.024593
0.024785
0.024449
0.024497
0.024233
0.024353
0.024137
0.024185
0.024401
0.024209
0.023633
0.024065
0.023969
0.024737
0.024017
0.024089
0.024425
0.023873
0.024041
0.023849
0.024617
0.024257
0.023489
0.023897
0.023801
0.023921
0.024281
0.023945
0.024161
0.023729
0.024833
0.023537
0.024113
0.023249
0.023345
0.023201
0.023321
0.023993
0.024929
0.023393
0.023441
0.024857
0.023057
0.024377
0.023153
0.023657
0.023609
0.024473
0.023009
0.023033
0.023081
0.023369
0.023225
0.022673
0.022793
0.022985
0.022697
0.023681
0.023297
0.022865
0.022889
0.022841
0.023129
0.023753
0.022193
0.024641
0.022049
0.023417
0.024305
0.023777
0.022121
0.022961
0.022577
0.024545
0.023177
0.024329
0.022361
0.022265
0.023273
0.022817
0.022745
0.023585
0.022073
0.022553
0.022433
0.022481
0.024665
0.023561
0.022649
0.021521
0.021785
0.022505
0.021737
0.0227206
0.021281
0.022169
0.021809
0.021977
0.022241
0.021857
0.021353
0.021545
0.022937
0.022145
0.023105
0.024521
0.022217
0.021473
0.021569
0.021641
0.021209
0.021017
0.022601
0.022457
0.021881
0.022409
0.021449
0.021905
0.021185
0.021593
0.021425
0.020873
0.021953
0.021713
0.020777
0.021761
0.020753
0.021305
0.021665
0.021929
0.022097
0.021377
0.022529
0.022625
0.021257
0.021233
0.020489
0.021065
0.020321
0.021113
0.021089
0.021161
0.021137
0.021689
0.020945
0.020297
0.020561
0.020729
0.020657
0.020393
0.021833
0.022769
0.022001
0.020417
0.020897
0.020009
0.020921
0.020537
0.020081
0.020681
0.020129
0.021041
0.019817
0.022337
0.020585
0.019721
0.020993
0.0201046
0.021617
0.020969
0.020153
0.022313
0.020633
0.019793
0.019457
0.020249
0.022025
0.020273
0.019361
0.019841
0.020801
0.020201
0.019697
0.020465
0.019193
0.021401
0.019625
0.019601
0.019481
0.019097
0.019409
0.019769
0.020105
0.019337
0.019745
0.018881
0.019529
0.020033
0.019577
0.019985
0.022721
0.023705
0.022289
)


// ************************************************************************* //
