/*--------------------------------*- C++ -*----------------------------------*\
  =========                 |
  \\      /  F ield         | OpenFOAM: The Open Source CFD Toolbox
   \\    /   O peration     | Website:  https://openfoam.org
    \\  /    A nd           | Version:  7
     \\/     M anipulation  |
\*---------------------------------------------------------------------------*/
FoamFile
{
    version     2.0;
    format      ascii;
    class       labelField;
    location    "0.125/lagrangian/reactingCloud1";
    object      cellId;
}
// * * * * * * * * * * * * * * * * * * * * * * * * * * * * * * * * * * * * * //


1058
(
57
16
54
83
79
82
112
83
111
116
152
149
189
255
215
219
256
290
293
328
328
287
357
359
435
393
437
425
426
462
502
499
534
537
567
565
573
603
747
748
781
863
865
889
894
923
922
949
944
923
973
976
1001
996
1001
1025
1025
1041
1001
1028
1006
991
982
962
580
921
921
893
882
871
850
844
823
740
792
777
761
734
729
713
696
670
657
648
636
618
590
565
546
523
511
511
492
468
456
421
422
408
390
369
350
351
327
303
289
264
270
251
235
211
209
193
165
144
146
123
134
103
92
93
68
42
56
24
5
915
996
1038
997
1040
1040
999
1022
1026
939
984
1033
1012
776
945
903
797
907
908
820
800
717
676
801
784
760
791
718
747
720
748
729
618
709
638
664
661
598
622
622
607
611
580
475
537
517
545
542
525
527
511
485
478
463
417
418
419
412
387
982
880
840
620
970
948
931
765
843
845
890
874
784
833
835
320
686
713
542
626
542
503
579
528
512
492
423
404
407
301
281
389
301
370
345
344
284
310
201
266
205
204
183
140
185
163
193
187
142
131
104
83
106
70
44
2
432
460
518
545
570
569
571
683
599
627
620
623
650
650
654
675
731
783
785
815
842
803
868
897
892
895
947
978
1028
400
404
381
337
342
321
299
313
271
226
217
221
200
162
167
22
36
61
5
163
81
247
241
287
322
149
192
148
190
320
147
191
144
233
187
187
232
182
185
356
182
273
233
229
232
230
273
275
316
523
224
226
266
226
265
314
266
308
394
349
304
477
347
345
346
611
350
393
436
384
433
475
564
434
476
516
430
557
472
464
724
504
600
507
506
552
549
595
592
550
549
594
681
632
634
586
588
590
721
626
628
673
630
628
630
673
672
674
669
624
671
667
711
709
710
799
704
751
754
928
744
745
795
750
927
792
837
788
789
789
827
828
826
824
917
869
874
908
906
912
911
957
953
949
946
954
949
43
7
134
5
96
131
37
20
21
13
21
40
21
94
36
130
166
37
93
32
57
55
95
54
53
54
92
84
195
123
121
156
123
301
193
265
335
225
226
255
262
329
411
298
332
293
293
366
327
401
326
362
513
359
398
363
362
426
429
392
432
467
428
499
465
465
537
497
528
607
534
560
669
604
634
635
631
694
727
629
661
660
660
659
691
723
688
724
753
717
720
720
716
714
742
748
743
746
810
772
776
839
804
802
805
832
869
834
834
860
861
888
927
915
947
948
947
950
947
984
978
981
1010
1009
1006
1031
1032
1055
1051
1057
1056
909
691
726
7
24
128
57
117
18
16
113
16
19
15
81
15
145
46
44
44
76
44
16
73
106
89
75
197
74
73
216
165
165
227
194
131
172
170
102
252
227
131
164
268
131
142
227
191
162
163
162
132
223
255
222
160
222
195
251
282
191
164
190
218
195
221
254
292
160
189
189
226
306
277
217
252
245
277
276
247
276
247
305
302
245
254
334
274
332
355
273
273
302
334
302
312
350
312
392
361
363
330
310
391
393
310
421
367
420
389
331
392
310
339
357
449
357
390
448
367
445
445
414
505
413
477
454
475
473
534
441
441
570
391
534
442
501
562
471
531
469
469
450
500
499
500
482
449
526
558
527
525
589
558
537
617
537
554
583
553
586
645
553
537
602
613
543
615
643
671
643
591
642
609
625
596
669
593
701
666
700
665
665
668
689
728
726
650
693
693
757
620
722
723
756
725
755
715
721
721
647
721
752
787
782
750
646
783
779
783
749
749
777
778
814
780
777
839
813
706
778
730
840
808
805
805
808
814
840
838
864
862
787
896
896
792
865
893
895
925
925
918
920
924
949
922
953
951
917
953
950
950
949
980
846
979
973
844
980
975
980
980
976
977
846
973
973
973
1006
1008
874
877
913
1001
1003
872
1012
1016
1016
901
1012
936
1027
932
1023
1026
1028
1023
1039
1033
1046
1046
1045
1042
1045
1057
1058
1052
1060
1052
240
288
313
264
366
288
288
349
291
337
336
312
336
360
360
360
392
384
339
384
441
384
414
409
408
408
408
384
434
541
408
432
434
462
462
432
461
482
480
486
482
481
481
482
484
565
457
512
543
561
505
612
504
528
533
554
528
560
581
624
556
578
609
580
552
576
556
579
528
601
606
600
656
676
600
656
655
624
624
652
624
649
648
729
652
650
730
700
672
727
731
695
697
699
726
722
746
696
697
695
718
750
718
748
721
745
788
743
742
741
798
795
772
795
815
764
768
764
764
764
794
792
764
790
789
819
789
788
811
789
817
839
813
812
834
837
858
838
868
836
838
861
839
833
859
856
857
856
859
857
891
879
884
879
906
883
878
905
911
904
914
905
901
900
924
932
922
925
948
956
944
956
951
945
978
944
951
949
947
977
944
969
971
972
968
966
967
971
970
988
992
990
988
981
990
991
993
1010
1010
1017
1010
1013
1017
1032
1038
1032
1032
1043
774
920
1002
)


// ************************************************************************* //
