/*--------------------------------*- C++ -*----------------------------------*\
  =========                 |
  \\      /  F ield         | OpenFOAM: The Open Source CFD Toolbox
   \\    /   O peration     | Website:  https://openfoam.org
    \\  /    A nd           | Version:  7
     \\/     M anipulation  |
\*---------------------------------------------------------------------------*/
FoamFile
{
    version     2.0;
    format      ascii;
    class       vectorField;
    location    "0.125/lagrangian/reactingCloud1";
    object      coordinates;
}
// * * * * * * * * * * * * * * * * * * * * * * * * * * * * * * * * * * * * * //


1058
(
(1.78349 0.0983798 -1.59756e-07)
(1.7985 0.0357031 -1.25878e-14)
(1.77349 0.0749491 -7.04586e-08)
(1.76442 0.0521731 1.58903e-07)
(1.75354 0.0291293 2.45642e-13)
(1.7529 0.0465322 -6.81349e-14)
(1.73862 0.0317451 -1.1159e-13)
(1.7429 0.0521039 8.50484e-08)
(1.73313 0.0260551 -6.19832e-15)
(1.7285 0.0606417 -2.21683e-08)
(1.70802 0.0704889 1.27037e-07)
(1.70125 0.0471395 -2.85849e-13)
(1.67914 0.0800134 -2.8898e-07)
(1.63806 0.0552907 -3.36225e-08)
(1.65139 0.0190744 -6.70396e-14)
(1.6481 0.0472507 -7.40412e-13)
(1.64199 0.0644156 1.65208e-07)
(1.60816 0.0510044 -1.7521e-07)
(1.59988 0.0777119 -2.91642e-07)
(1.59509 0.0716886 2.07744e-10)
(1.59213 0.0750522 -1.1425e-08)
(1.59773 0.0348657 1.19198e-14)
(1.57042 0.0325161 1.05331e-13)
(1.56474 0.045183 -4.50925e-14)
(1.5292 0.0853936 -2.1025e-08)
(1.5499 0.0369817 -7.41843e-07)
(1.51128 0.0998412 -8.69077e-07)
(1.52538 0.0216657 8.6996e-15)
(1.51136 0.0236873 -9.37757e-14)
(1.4945 0.0342223 -1.67657e-12)
(1.47663 0.0673994 6.35186e-08)
(1.46973 0.0452052 -2.6482e-13)
(1.45223 0.0442812 -1.6112e-13)
(1.44908 0.0688402 7.7253e-08)
(1.44377 0.030942 1.63971e-13)
(1.43958 0.0213294 -8.46222e-13)
(1.42964 0.0730813 2.0072e-07)
(1.41572 0.0384284 -7.23137e-15)
(1.35136 0.084823 -6.9527e-08)
(1.34182 0.0921825 1.94065e-08)
(1.32705 0.0845667 4.17033e-08)
(1.28391 0.0422262 -7.99413e-13)
(1.27538 0.0557056 -9.29347e-08)
(1.26274 0.0350944 -2.36617e-12)
(1.25612 0.0724399 -4.12246e-09)
(1.24031 0.0836332 2.04223e-07)
(1.23922 0.0772139 2.83978e-10)
(1.23248 0.0799926 -8.22129e-08)
(1.23468 0.041296 -3.65871e-13)
(1.23722 0.0863568 2.11537e-07)
(1.2182 0.0567287 -2.95591e-12)
(1.21265 0.0757287 -1.01492e-07)
(1.20518 0.0658015 3.82178e-07)
(1.20283 0.0302698 -9.13959e-14)
(1.19838 0.0641628 2.53443e-07)
(1.18836 0.0434339 -5.01826e-13)
(1.1792 0.0416572 -2.95446e-13)
(0.430783 0.146823 1.02324e-07)
(0.422353 0.141286 4.48588e-07)
(0.423056 0.0861466 1.57328e-11)
(0.420873 0.104552 9.56136e-12)
(0.416025 0.0647285 -1.13103e-11)
(0.415241 0.130877 -1.60696e-10)
(0.414329 0.134449 6.50296e-07)
(0.331499 0.130341 7.40719e-07)
(0.404023 0.135779 8.09793e-12)
(0.40273 0.13136 1.6711e-11)
(0.395219 0.0456146 -1.22245e-11)
(0.397231 0.125237 -2.12872e-10)
(0.388886 0.0606179 -1.88792e-11)
(0.386199 0.0685865 -6.40793e-12)
(0.385642 0.105928 -1.47499e-11)
(0.382923 0.113726 -2.93921e-11)
(0.36623 0.134704 -4.82212e-07)
(0.371286 0.0514989 -1.60729e-11)
(0.367033 0.0143465 -8.19233e-12)
(0.368867 0.124328 -1.89041e-12)
(0.360151 0.0389541 -8.08375e-13)
(0.357984 0.0720982 -1.89081e-11)
(0.353472 0.0460337 -1.41798e-11)
(0.349025 0.0241781 -1.79323e-13)
(0.346895 0.0646127 -1.70385e-11)
(0.341828 0.0143809 1.74711e-13)
(0.339857 0.0761258 -2.67793e-11)
(0.334542 0.0246387 -8.45358e-14)
(0.3298 0.0110177 2.64778e-12)
(0.327183 0.0645167 -4.84959e-11)
(0.324315 0.0917412 -1.20497e-10)
(0.320579 0.0850318 -2.99745e-11)
(0.31688 0.105781 2.7217e-11)
(0.311341 0.0551953 4.78503e-12)
(0.307811 0.0565628 3.60808e-13)
(0.303691 0.0479148 2.2974e-13)
(0.300168 0.074703 -7.02258e-12)
(0.295887 0.0254692 -4.3895e-12)
(0.292692 0.120414 5.05807e-11)
(0.289498 0.1148 1.72555e-11)
(0.284433 0.0741116 1.03283e-11)
(0.280199 0.061928 -4.79416e-12)
(0.276879 0.0698734 -6.93006e-12)
(0.27211 0.0617113 7.28903e-12)
(0.268688 0.0556038 5.09106e-12)
(0.264955 0.0829876 -1.49632e-11)
(0.260773 0.103834 -2.63396e-11)
(0.256955 0.06561 -3.2956e-12)
(0.252698 0.100272 3.18686e-11)
(0.248845 0.064238 -6.77594e-12)
(0.244316 0.0534218 -2.0772e-12)
(0.241378 0.0294219 1.22006e-12)
(0.237378 0.0530458 3.91578e-12)
(0.232567 0.0693509 5.64192e-12)
(0.228718 0.0436615 -2.02522e-12)
(0.224764 0.0943647 -2.08573e-12)
(0.221603 0.102287 4.20332e-12)
(0.217184 0.0848496 1.46492e-12)
(0.213384 0.105015 -1.18841e-12)
(0.212955 0.0366714 -5.21441e-13)
(0.209351 0.10513 -4.20278e-13)
(0.204914 0.0493095 2.77906e-12)
(0.201237 0.0410307 1.10335e-12)
(0.196767 0.0740591 2.35788e-12)
(0.193359 0.111842 4.70552e-12)
(0.189172 0.0216882 5.87136e-13)
(0.185353 0.0973323 -2.35386e-13)
(0.181735 0.0949642 4.71384e-13)
(0.54296 0.155744 5.48433e-08)
(0.560157 0.13801 -7.18258e-10)
(0.564922 0.128152 -1.54241e-12)
(0.558912 0.131858 -3.74119e-10)
(0.567787 0.11255 1.78906e-12)
(0.567422 0.106413 4.72937e-11)
(0.558048 0.121338 1.27915e-10)
(0.560748 0.0923412 6.70811e-11)
(0.559505 0.0655289 -2.83302e-12)
(0.546774 0.123864 4.76663e-11)
(0.554226 0.0821321 -2.51343e-12)
(0.557976 0.010494 -2.38641e-11)
(0.554693 0.0203737 -1.93256e-12)
(0.512854 0.149301 -3.61224e-08)
(0.544109 0.0756353 4.45136e-11)
(0.535641 0.091323 3.25393e-13)
(0.515069 0.137185 1.17247e-08)
(0.537659 0.0568866 7.97049e-14)
(0.535348 0.0534729 5.0169e-11)
(0.520515 0.113532 6.82099e-11)
(0.517685 0.116474 2.21517e-11)
(0.501091 0.144587 -3.29764e-07)
(0.492326 0.152125 5.20133e-07)
(0.516185 0.112069 1.48525e-10)
(0.512028 0.0872536 4.6279e-11)
(0.508677 0.121075 9.42104e-11)
(0.510718 0.0286215 1.49298e-13)
(0.499802 0.133311 6.66388e-11)
(0.503142 0.0628284 1.68716e-11)
(0.499995 0.114842 1.23875e-10)
(0.501054 0.0539402 1.57958e-12)
(0.498185 0.0473644 5.30624e-11)
(0.476775 0.136078 -3.77096e-07)
(0.492579 0.0412278 2.85198e-11)
(0.481496 0.138996 6.96235e-07)
(0.485497 0.0831106 8.84632e-11)
(0.485811 0.109907 1.9107e-12)
(0.474289 0.137798 1.49764e-10)
(0.478664 0.100796 5.68445e-11)
(0.476747 0.0992497 7.14688e-11)
(0.474874 0.0607524 -1.24964e-12)
(0.473192 0.0279064 4.76537e-12)
(0.469923 0.117472 1.17533e-10)
(0.450951 0.157992 -4.1443e-07)
(0.461738 0.140445 2.62899e-10)
(0.459068 0.140259 -3.08354e-07)
(0.460561 0.0767689 8.63023e-12)
(0.462817 0.102666 -3.43106e-12)
(0.458262 0.0794106 -4.72257e-12)
(0.45502 0.0585318 -2.4037e-12)
(0.451924 0.027476 8.43783e-12)
(0.449172 0.0736838 5.40376e-11)
(0.449913 0.136167 -3.35735e-07)
(0.443819 0.0959105 1.22227e-10)
(0.438797 0.140848 -5.08637e-07)
(0.43684 0.132237 1.57617e-10)
(0.435506 0.11955 4.82343e-11)
(0.430232 0.0159915 1.07957e-11)
(0.428193 0.0561685 1.2921e-11)
(0.800604 0.0934714 4.61072e-08)
(0.776525 0.0975396 2.20747e-07)
(0.762077 0.0987184 2.27609e-08)
(0.708214 0.110354 4.63139e-07)
(0.797462 0.0459296 -1.65928e-10)
(0.79181 0.0576686 -1.64695e-10)
(0.787757 0.040489 -1.4191e-11)
(0.738547 0.0743382 -4.77512e-07)
(0.760169 0.0832938 -2.50743e-07)
(0.763712 0.0763823 -1.11279e-07)
(0.774844 0.0469443 -5.7596e-11)
(0.768332 0.0253543 -9.76932e-11)
(0.743155 0.0785576 -7.4964e-08)
(0.755522 0.0345326 -5.0753e-11)
(0.754523 0.0214288 5.95811e-12)
(0.638534 0.131251 5.68002e-08)
(0.720396 0.0697914 -3.65364e-12)
(0.723482 0.0367726 -1.35526e-11)
(0.688338 0.104543 3.14721e-08)
(0.706293 0.0734402 5.85974e-11)
(0.687475 0.100356 4.07081e-07)
(0.680139 0.0986916 -5.1851e-11)
(0.692542 0.00460378 -4.86402e-15)
(0.681985 0.065373 8.7768e-11)
(0.678499 0.0455315 3.57721e-12)
(0.673702 0.0440545 2.56092e-11)
(0.660759 0.102104 4.99875e-11)
(0.654036 0.0971922 1.28978e-11)
(0.655411 0.0765951 1.17213e-10)
(0.636023 0.124535 1.44683e-07)
(0.629534 0.127207 -5.53336e-08)
(0.649815 0.0643764 4.46055e-11)
(0.635915 0.120008 1.00258e-08)
(0.64808 0.0593591 7.99358e-13)
(0.641353 0.0931764 -1.1817e-11)
(0.644608 0.101355 -1.62339e-06)
(0.630605 0.103305 3.95176e-12)
(0.632268 0.0601646 5.66723e-11)
(0.61427 0.125605 -1.43076e-07)
(0.623485 0.0900003 2.12044e-12)
(0.613463 0.0974731 1.12129e-10)
(0.610805 0.11095 3.50566e-12)
(0.610054 0.118124 -2.89304e-07)
(0.602514 0.136196 3.35061e-07)
(0.609001 0.101346 -9.87719e-12)
(0.604882 0.119838 1.68439e-10)
(0.607652 0.0463273 -8.93317e-14)
(0.606451 0.0859352 -1.88453e-12)
(0.598795 0.127977 -1.70089e-07)
(0.59527 0.0586994 5.51015e-11)
(0.590045 0.113829 -1.4682e-11)
(0.588617 0.122093 -2.47364e-11)
(0.589484 0.0980974 -1.30211e-11)
(0.581931 0.0736258 1.02932e-10)
(0.580246 0.113022 1.10718e-11)
(0.571655 0.132851 1.27832e-07)
(1.15842 0.0433458 -1.28488e-13)
(1.14001 0.047732 -1.25351e-12)
(1.11146 0.0757802 7.70211e-08)
(1.10653 0.0770728 1.49571e-07)
(1.08484 0.0656604 1.21982e-07)
(1.08621 0.0542921 3.12779e-15)
(1.08616 0.0694337 -1.06939e-07)
(1.04307 0.0924556 -2.3553e-07)
(1.08215 0.0754859 -2.23596e-07)
(1.07013 0.0816931 2.05418e-07)
(1.06403 0.0329978 5.51781e-12)
(1.06661 0.0541625 -1.20921e-07)
(1.05986 0.0570805 -1.85892e-07)
(1.05763 0.0537873 1.03153e-12)
(1.05497 0.0805446 -4.62043e-07)
(1.04121 0.0439441 7.18104e-12)
(1.01759 0.0541098 1.62548e-12)
(1.00185 0.0430872 1.13847e-12)
(0.998565 0.0529313 2.0426e-11)
(0.986211 0.0734972 8.27071e-08)
(0.979804 0.0777363 1.05281e-07)
(0.986314 0.00590085 -4.97907e-14)
(0.971652 0.0661361 3.56785e-07)
(0.962452 0.0810434 9.19797e-08)
(0.96396 0.0489879 4.87051e-12)
(0.961172 0.0702875 4.03147e-07)
(0.939793 0.0521819 1.58673e-11)
(0.93582 0.0798266 1.9093e-07)
(0.914948 0.05616 2.11992e-11)
(0.908668 0.0824769 1.45156e-07)
(0.903384 0.0525577 1.78291e-11)
(0.897794 0.0761714 1.30487e-07)
(0.885884 0.0939716 8.59454e-09)
(0.883651 0.0687602 2.91288e-07)
(0.879483 0.0706587 1.1825e-07)
(0.870643 0.0832068 -3.22347e-08)
(0.87186 0.00675716 1.38807e-12)
(0.853461 0.0145733 8.8824e-13)
(0.843372 0.0415004 2.95466e-11)
(0.837942 0.0927334 2.89251e-07)
(0.839353 0.0710974 -1.67828e-08)
(0.832445 0.0754481 2.47839e-07)
(0.824568 0.0909856 -4.51818e-08)
(0.820118 0.0678599 -1.22751e-07)
(4.61712 0.147033 -1.38627e-07)
(4.55629 0.141654 -9.98457e-08)
(4.51822 0.203495 -5.67421e-07)
(4.69534 0.136218 -1.12366e-07)
(4.32466 0.168714 2.03712e-07)
(4.42256 0.127684 -1.0805e-06)
(4.19917 0.163221 3.40868e-07)
(4.19565 0.133472 -6.3087e-07)
(4.11121 0.165231 -2.51523e-08)
(4.09518 0.139838 1.79483e-07)
(4.32402 0.0762738 5.486e-09)
(4.26974 0.0872625 1.16968e-07)
(4.3256 0.0610785 -7.70344e-08)
(4.28341 0.067257 1.32701e-07)
(4.06434 0.127825 -2.40796e-07)
(4.30086 0.0515937 -3.48247e-07)
(4.28145 0.0772239 3.74039e-07)
(4.32043 0.0324947 -3.38319e-09)
(4.21608 0.0721914 1.5243e-08)
(4.26335 0.0345235 8.03899e-08)
(4.23748 0.0422614 1.58653e-07)
(4.18926 0.0648259 -4.01907e-08)
(4.25554 0.0036557 6.70387e-07)
(4.28048 0.0241984 -3.96755e-07)
(3.98799 0.0997811 9.48029e-07)
(4.22759 1.90099e-10 1.05914e-13)
(4.14728 0.0737343 4.31684e-08)
(4.16699 0.0767813 -3.25771e-07)
(4.22218 0.0411128 1.01515e-08)
(4.17298 0.0631525 -6.57498e-08)
(4.20984 0.0433579 -4.53989e-08)
(4.12622 0.0763682 3.87676e-08)
(4.10927 0.0870897 -4.93304e-07)
(4.04847 0.0997872 -1.90461e-07)
(3.80265 0.139266 -4.90982e-07)
(4.18972 1.41464e-11 5.72179e-14)
(4.171 0.0183447 -7.93389e-08)
(4.14763 0.0129236 1.33446e-07)
(4.16844 0.0156303 8.56391e-08)
(4.14853 0.00970292 -8.6398e-08)
(4.0488 0.078928 -4.44039e-07)
(4.12447 0.0148842 1.19266e-07)
(4.08458 0.0333426 1.87523e-07)
(3.97661 0.0806472 -1.4239e-07)
(4.03788 0.0385114 2.88276e-07)
(4.06144 0.00479697 -2.51265e-07)
(3.8409 0.10267 -1.09516e-07)
(4.0192 0.0253828 3.20709e-07)
(3.99722 0.00711908 4.83733e-07)
(4.00734 0.0172132 -1.08141e-07)
(3.68168 0.19107 -3.79295e-07)
(3.99437 0.0414197 2.32503e-07)
(3.94495 0.0678882 9.83136e-09)
(3.88314 0.0959472 3.35553e-07)
(3.9459 2.81443e-11 -1.89222e-13)
(3.88945 0.0745235 -2.19265e-07)
(3.85907 0.0920113 -1.80847e-07)
(3.73112 0.142513 2.1424e-07)
(3.88399 0.076839 -4.18487e-07)
(3.82348 0.0928717 -7.94111e-08)
(3.76556 0.0962588 1.54105e-08)
(3.88334 0.0478489 -4.06489e-09)
(3.71747 0.104292 2.00448e-07)
(3.82999 0.0659548 6.54089e-07)
(3.86914 0.000430784 -2.16323e-07)
(3.53515 0.13955 -7.29436e-08)
(3.80857 0.00566298 -8.49715e-08)
(3.65833 0.124704 1.79959e-07)
(3.80144 0.0234462 -9.17491e-08)
(3.78676 0.0147372 4.74048e-08)
(3.70892 0.0636193 -5.76036e-07)
(3.75237 0.0343039 3.13753e-08)
(3.69276 0.0903098 -1.68868e-07)
(3.69666 0.0611387 -1.19578e-07)
(3.71627 0.0463586 2.25606e-08)
(3.7143 0.0398445 -8.36065e-08)
(3.65834 0.0756525 1.16782e-07)
(3.5386 0.129542 -1.95313e-08)
(3.64203 0.0564017 6.06018e-08)
(3.61709 0.0797953 -4.23911e-07)
(3.65501 0.0166258 1.0907e-07)
(3.6451 0.0285272 -1.83447e-07)
(3.64691 0.0451678 -3.0483e-07)
(3.5261 0.125873 -2.59317e-08)
(3.63577 0.0171215 1.58335e-07)
(3.61865 0.0258079 5.67302e-08)
(3.58463 0.0709149 -4.31822e-08)
(3.60661 0.0434566 -1.03872e-07)
(3.59849 0.0307218 -2.12002e-07)
(3.60118 0.0437111 4.58978e-07)
(3.56516 0.0720479 2.99125e-07)
(3.57668 0.0593242 -2.9696e-07)
(3.56298 0.0770468 1.63013e-06)
(3.56801 0.0382238 -2.20371e-07)
(3.59053 0.000979925 3.65141e-07)
(3.54812 0.0540676 -1.60191e-07)
(3.5576 0.0237935 6.79175e-08)
(3.53559 0.0529771 -7.46793e-08)
(3.5304 0.0342934 -1.53188e-07)
(3.52438 0.0398131 -4.09725e-08)
(3.40431 0.115218 -1.58177e-07)
(3.51501 0.0027196 -1.60558e-14)
(3.46863 0.0505678 -1.43596e-08)
(3.44967 0.0765303 -4.04238e-08)
(3.25932 0.156806 -2.80007e-07)
(3.46013 4.39398e-11 3.39098e-13)
(3.45171 0.00734208 -5.4355e-13)
(3.40923 0.0878111 1.29318e-08)
(3.43557 0.04317 -9.47439e-07)
(3.22953 0.152834 -2.59074e-07)
(3.41947 0.0553615 4.21942e-08)
(3.33616 0.0985306 4.56776e-07)
(3.41239 0.0279566 9.52755e-08)
(3.39934 0.0362513 9.32888e-08)
(3.39108 0.034538 -2.18363e-08)
(3.37515 0.021906 -4.41135e-07)
(3.3702 0.0266507 -1.55225e-07)
(3.36724 0.0153043 3.70823e-07)
(3.35403 1.30166e-11 -2.12724e-14)
(3.27238 0.0976664 -5.06301e-07)
(3.31817 0.0364803 -3.80828e-07)
(3.29672 0.0715538 6.75959e-07)
(3.26103 0.0259892 -5.66743e-09)
(3.25782 0.0140808 2.12419e-13)
(3.23963 0.0618372 4.47799e-08)
(3.23805 0.0510231 -6.67649e-09)
(3.17833 0.0964653 2.73736e-08)
(3.22041 0.0628619 -1.19867e-07)
(3.21873 0.0324508 -1.01198e-07)
(3.21459 0.0153041 -5.67015e-07)
(3.18447 0.0713066 -8.50116e-07)
(3.17842 0.030733 -7.52296e-08)
(3.07239 0.0864519 -3.00583e-08)
(3.17444 0.0467447 1.9714e-08)
(2.90393 0.119792 1.81401e-07)
(3.16109 0.0313907 -1.00904e-09)
(2.94456 0.0987778 8.27809e-08)
(2.89727 0.105317 -1.05935e-06)
(3.06512 0.0399968 -2.51702e-07)
(3.12315 0.045333 5.66125e-09)
(3.11253 0.0559093 2.51119e-08)
(3.11261 0.00495335 8.16294e-07)
(3.08642 0.060204 -3.27473e-07)
(3.04185 0.0676911 9.78924e-08)
(3.08686 0.0534782 -8.17826e-08)
(2.97058 0.078993 -3.5561e-08)
(3.05224 0.0356601 4.40034e-08)
(2.90137 0.0985331 5.04987e-07)
(2.87848 0.109242 1.04869e-06)
(3.045 0.0438037 -3.31604e-07)
(2.96297 0.0700459 2.57459e-07)
(3.03611 0.00602038 3.67541e-14)
(2.99192 0.059551 5.58919e-07)
(3.02376 0.0396695 1.46209e-09)
(2.95001 0.0890952 4.20386e-07)
(2.99486 0.0351643 -3.31254e-08)
(2.99305 0.0280884 -4.39914e-14)
(2.9866 0.0325167 1.41393e-07)
(2.95386 0.0661227 1.09069e-07)
(2.94996 0.00798194 1.61014e-13)
(2.83642 0.0750752 3.58521e-08)
(2.92032 0.0430902 1.31236e-07)
(2.90784 0.0282392 -7.73447e-09)
(2.88957 0.032204 1.77529e-07)
(2.89501 0.0394408 6.3612e-07)
(2.70606 0.0983529 -1.95337e-07)
(2.82526 0.0526054 -1.05676e-07)
(2.75848 0.0861273 -9.82308e-08)
(2.65167 0.100908 5.05581e-07)
(2.80109 0.0404556 -3.29682e-08)
(2.7681 0.0450082 1.60281e-07)
(2.75858 0.0159679 -5.35694e-08)
(2.74545 0.0619757 1.43151e-07)
(2.66168 0.0574321 -8.4217e-08)
(2.56942 0.139301 7.64337e-07)
(2.68167 0.0784011 -2.55955e-07)
(2.64177 0.0798221 -7.1416e-08)
(2.68669 0.0394195 2.16918e-07)
(2.68614 0.0390609 -7.10756e-09)
(2.59867 0.073201 5.23515e-07)
(2.65379 0.0412072 1.57528e-07)
(2.57108 0.0808996 3.02186e-07)
(2.63834 0.0334584 -5.06765e-13)
(2.61288 0.0459755 5.11589e-07)
(2.47395 0.138361 1.2562e-07)
(2.62556 0.0218187 -2.93782e-13)
(2.56979 0.060655 3.88359e-07)
(2.61415 0.0542064 -1.028e-07)
(2.59828 0.0445422 -3.72815e-07)
(2.54656 0.0187721 4.69823e-07)
(2.54889 0.0410162 -1.74941e-07)
(2.55426 0.0177576 -1.17395e-12)
(2.51595 0.0582532 6.23756e-07)
(2.48103 0.0645382 -2.1074e-07)
(2.51548 0.0290522 -2.05374e-12)
(2.46369 0.0546508 1.33231e-06)
(2.48702 0.0541764 3.4075e-07)
(2.48973 0.0540774 1.54824e-08)
(2.43625 0.0824626 -9.8035e-08)
(2.44463 0.0371893 -3.29169e-12)
(2.41739 0.0202302 -3.2609e-07)
(2.35934 0.0944869 3.05276e-07)
(2.40479 0.0618354 1.58127e-09)
(2.387 0.00747322 -1.23504e-13)
(2.26843 0.117508 2.68575e-08)
(2.33536 0.074296 -8.86406e-08)
(2.30143 0.079724 -8.39029e-09)
(2.29767 0.0909954 -5.10857e-07)
(2.31105 0.0548571 -3.48061e-07)
(2.25077 0.0957755 -4.23296e-07)
(2.21901 0.114114 -2.27337e-07)
(2.30546 0.046426 1.48054e-08)
(2.28305 0.0644953 2.15791e-07)
(2.28341 0.0612824 1.74405e-07)
(2.27986 0.057331 -2.22007e-07)
(2.26241 0.0516974 -2.22612e-08)
(2.24349 0.0716021 1.86129e-07)
(2.19998 0.0949561 -1.65517e-07)
(2.23808 0.0490738 5.57278e-08)
(2.19187 0.0979031 -3.39049e-07)
(2.16146 0.0998714 -1.71368e-08)
(2.21892 0.0468833 -1.82383e-07)
(2.18645 0.076819 -4.68125e-08)
(2.19425 0.0750052 2.84004e-07)
(2.20106 0.0445609 7.3102e-08)
(2.19 0.026395 -7.76943e-15)
(2.17997 0.0244367 4.19262e-07)
(2.17831 0.0646829 3.14338e-07)
(2.16611 0.0271264 -1.32327e-07)
(2.16021 0.0468217 -1.10476e-08)
(2.09679 0.0917433 2.13835e-07)
(2.13479 0.0270138 -1.58461e-13)
(2.12207 0.0573757 2.33968e-08)
(2.06615 0.0932217 5.83034e-08)
(2.10237 0.0464565 9.58395e-09)
(2.09445 0.0374015 -1.21664e-13)
(2.09221 0.0580341 6.52829e-07)
(2.07889 0.0451111 2.13386e-07)
(2.03935 0.0980414 -1.71401e-07)
(2.07859 0.0587684 -1.12155e-07)
(2.05752 0.0548806 3.2563e-07)
(2.04124 0.0379028 -1.20314e-13)
(2.02814 0.0403678 -8.67463e-13)
(2.00537 0.0295821 2.34735e-13)
(1.97107 0.095574 -1.45451e-07)
(1.9677 0.0166274 -2.32756e-07)
(1.95938 0.0348533 -1.90698e-13)
(1.95699 0.0444438 -1.84946e-10)
(1.94746 0.0355527 6.5944e-13)
(1.94438 0.0569162 -6.6728e-08)
(1.94041 0.0322756 4.96333e-14)
(1.92298 0.0907472 -7.08021e-07)
(1.92259 0.0446345 -3.214e-07)
(1.91359 0.0712489 6.93374e-08)
(1.90232 0.0837403 -4.47477e-07)
(1.89044 0.0800301 -1.29248e-07)
(1.89292 0.0564245 1.16202e-08)
(1.87145 0.0456234 -4.91939e-14)
(1.86686 0.0569052 4.0447e-07)
(1.83153 0.0691017 -8.91052e-08)
(1.83172 0.0438821 -9.86897e-14)
(1.83031 0.0851441 5.27907e-09)
(1.82232 0.0747493 7.5154e-08)
(5.87304 0.518452 4.40195e-08)
(6.04232 0.262572 5.55423e-07)
(5.87324 0.293706 4.1722e-08)
(7.25338 0.196545 3.30425e-07)
(7.18645 0.102488 4.994e-07)
(6.94681 0.236622 -9.24295e-08)
(7.07098 0.141605 -1.11613e-07)
(6.9503 0.154657 -1.61045e-07)
(7.13612 0.0312775 1.08132e-06)
(7.1854 0.0164603 -3.12743e-07)
(6.95094 0.117528 -5.4192e-07)
(7.18748 0.0159441 -1.59817e-09)
(7.19533 0.0385876 8.8095e-08)
(7.17239 4.33702e-10 -2.35195e-12)
(7.03454 0.0823189 -2.24523e-07)
(7.13172 6.84829e-10 4.42437e-12)
(6.87024 0.147137 1.09195e-07)
(7.11707 0.0168629 -1.4304e-07)
(7.09257 0.00367071 2.1233e-08)
(7.12088 0.00235139 -7.30029e-07)
(7.05084 0.0278795 -2.31295e-08)
(7.12344 0.00431775 1.26028e-07)
(7.14919 0.00973807 4.00205e-07)
(7.01311 0.00510989 -4.2192e-08)
(6.9465 0.0409847 6.83492e-09)
(6.98234 0.16029 8.95849e-07)
(7.03617 0.0174554 9.46917e-07)
(6.71127 0.0805774 5.72847e-08)
(7.03294 0.0114729 -1.84822e-07)
(7.01954 0.00229986 9.67179e-09)
(6.7252 0.236609 -2.53288e-08)
(6.83273 0.0547616 1.18666e-07)
(6.81333 0.0511999 -3.91232e-09)
(6.68786 0.106853 -1.16366e-06)
(6.6971 0.0512223 -5.99214e-08)
(6.87339 0.00149175 -1.7939e-07)
(6.79597 0.12299 8.17939e-08)
(6.81603 0.108423 2.14662e-07)
(6.94415 0.000446036 9.43638e-08)
(6.58166 0.0672181 1.39385e-06)
(6.65426 0.10467 -5.79226e-07)
(6.90162 0.00338257 -3.74258e-08)
(6.82481 0.0419754 9.60067e-08)
(6.5575 0.197207 1.38255e-06)
(6.88542 3.40122e-11 -2.27659e-13)
(6.88466 0.115981 -2.55176e-07)
(6.67308 0.102325 5.53675e-07)
(6.7099 0.016864 8.08932e-07)
(6.81899 0.020244 3.71556e-08)
(6.76761 0.0253764 7.07273e-09)
(6.82123 0.0221686 -6.33129e-08)
(6.84136 0.00962613 -4.63563e-07)
(6.6261 0.0588862 5.73289e-07)
(6.57928 0.10863 7.80931e-07)
(6.64576 0.0520996 6.32511e-09)
(6.77506 0.00403433 -5.31484e-07)
(6.65611 0.0456286 2.8986e-07)
(6.69385 0.0559514 1.78425e-06)
(6.60517 0.0564315 -2.95208e-07)
(6.54292 0.0895756 7.54384e-08)
(6.73794 0.022595 1.0128e-07)
(6.77763 0.0384798 -1.87834e-07)
(6.71929 0.0126419 6.16756e-08)
(6.64692 0.00803786 4.71723e-07)
(6.75824 0.0657378 -1.38171e-07)
(6.64877 0.0378757 -2.41071e-08)
(6.55123 0.0952607 -1.56455e-06)
(6.53681 0.177676 5.59302e-08)
(6.81983 0.000749952 2.05572e-07)
(6.69704 5.71991e-11 9.81501e-14)
(6.69197 0.00656502 1.53729e-07)
(6.68315 0.0951861 -9.22846e-08)
(6.47384 0.0501717 2.56922e-07)
(6.54208 0.0393934 -3.1253e-08)
(6.62529 0.00634053 -1.42102e-07)
(6.56626 0.0713426 2.19397e-07)
(6.54821 0.00471238 -7.39507e-08)
(6.47909 0.0343341 -1.48013e-07)
(6.53734 0.0310298 -1.10842e-08)
(6.59408 0.0181712 1.772e-08)
(6.5175 0.0275991 -3.15968e-07)
(6.55549 0.0161455 -1.65806e-07)
(6.4448 0.0406486 -7.12269e-08)
(6.45645 0.00990328 4.15123e-07)
(6.54843 5.12184e-11 1.91058e-13)
(6.54844 0.0973652 5.63333e-08)
(6.3436 0.0456278 -3.97336e-07)
(6.48387 0.00975804 -1.31312e-08)
(6.37441 0.0290242 5.64437e-07)
(6.33211 0.218286 -6.37546e-07)
(6.4893 1.24862e-10 1.27395e-13)
(6.47882 0.00326919 -1.06761e-07)
(6.46395 0.0151446 -2.86166e-08)
(6.38743 0.0474419 -8.48755e-08)
(6.45587 0.00825642 -8.11476e-08)
(6.45913 0.11377 1.19459e-07)
(6.3986 0.181643 2.05168e-07)
(6.41442 0.115573 3.95138e-07)
(6.20834 0.068985 -2.55323e-07)
(6.26681 0.0393375 2.90162e-07)
(6.27606 0.0569749 2.1067e-07)
(6.38411 0.00803771 5.74659e-08)
(6.45151 0.0868596 6.98366e-08)
(6.24764 0.0624231 8.38027e-08)
(6.2552 0.0824455 1.00579e-06)
(6.46049 0.0971297 9.54576e-08)
(6.1426 0.078497 -6.66558e-08)
(6.26528 0.0960326 6.69989e-07)
(6.14311 0.0696617 -1.45066e-07)
(6.24517 0.0423787 7.80173e-08)
(6.33608 0.0170078 -5.91229e-07)
(6.22325 0.0630577 -6.57823e-08)
(6.4079 0.0879044 -4.96179e-08)
(6.35897 0.0979813 6.97266e-08)
(6.2749 0.000802771 6.44056e-09)
(6.07131 0.0807588 -9.27378e-08)
(6.26034 0.0022992 9.55263e-09)
(6.21389 0.0463901 -1.4235e-08)
(6.11213 0.0686624 -3.15796e-07)
(6.28504 0.104196 -7.90577e-08)
(6.0905 0.0335043 -5.16059e-08)
(6.06275 0.0397105 2.18003e-07)
(6.11921 0.0132785 2.77847e-07)
(5.94825 0.0719275 3.25268e-08)
(6.13416 0.00250926 9.51479e-08)
(6.00137 0.0826653 1.25414e-06)
(6.10642 0.132361 1.7165e-07)
(5.99454 0.0581493 -6.73362e-08)
(6.03493 0.0414922 7.33972e-08)
(5.89542 0.088845 -2.24288e-07)
(6.08637 2.7457e-11 -4.95993e-15)
(6.05986 1.1562e-10 7.51659e-14)
(5.78491 0.158132 -5.47349e-07)
(6.20279 0.0544426 -9.61153e-08)
(5.89023 0.0896685 2.11123e-07)
(6.05463 0.00954135 -1.74029e-07)
(5.96414 0.0399279 -1.10703e-08)
(5.81992 0.0845951 2.33858e-09)
(6.01156 0.0159707 -2.18462e-08)
(5.89558 0.0586395 6.33842e-08)
(6.00579 0.00471002 6.15925e-07)
(5.99171 7.13763e-12 5.10664e-14)
(6.07887 0.0893933 -7.04634e-07)
(5.91351 0.0278382 -2.50217e-08)
(5.93413 0.0229772 1.15405e-08)
(5.9059 0.028208 -1.19349e-07)
(6.01662 0.124698 -2.39882e-07)
(6.07665 0.0745718 3.08864e-08)
(5.88253 0.0118332 -2.92697e-07)
(5.82502 0.04239 -3.38134e-07)
(5.88228 0.0202512 -1.17e-07)
(5.88948 0.000278767 -7.91817e-09)
(5.73015 0.0742059 -1.44541e-07)
(5.80475 0.0498854 7.29468e-07)
(5.84888 0.114592 -3.33075e-07)
(5.65894 0.0730983 1.61157e-07)
(5.86561 0.121728 -8.49162e-08)
(5.81814 0.0117677 -9.91709e-08)
(5.71909 0.0223872 6.34377e-07)
(5.78567 0.00154834 -1.01982e-07)
(5.72151 0.0434261 -1.68146e-07)
(5.60082 0.0793734 5.95968e-07)
(5.78412 0.00150467 1.05716e-07)
(5.86775 0.116133 3.51791e-08)
(5.75333 0.177854 -1.14934e-07)
(5.68453 0.0385192 -8.15403e-08)
(5.83883 0.159724 -8.57734e-07)
(5.63982 0.0560801 -1.21552e-07)
(5.58028 0.052769 -1.11707e-08)
(5.52702 0.0505075 5.54226e-07)
(5.54708 0.0568512 6.41115e-08)
(5.741 0.0977042 -7.96548e-08)
(5.57224 0.0462708 -4.68735e-07)
(5.61906 0.00145739 9.4372e-09)
(5.67982 0.148878 1.16768e-07)
(5.73512 0.144046 -1.8479e-08)
(5.50452 0.0382082 6.52247e-08)
(5.69853 0.11982 5.06086e-07)
(5.42571 0.0749021 -1.20493e-07)
(5.50243 0.0142766 -1.9136e-07)
(5.41864 0.0615145 -2.16413e-07)
(5.52551 0.00255439 -7.26735e-08)
(5.52778 0.00498684 -4.74755e-07)
(5.51753 0.0240301 -5.52738e-07)
(5.53902 0.195139 -1.27135e-07)
(5.37538 0.062267 3.86506e-09)
(5.3948 0.0415591 2.00304e-07)
(5.59757 0.121627 2.49615e-07)
(5.45555 0.00404178 -1.8151e-07)
(5.44146 9.52258e-12 -1.21767e-14)
(5.33154 0.076552 -3.36111e-07)
(5.6238 0.103897 2.54894e-07)
(5.39555 0.0122978 -4.6278e-07)
(5.38607 0.0220797 3.87365e-08)
(5.30728 0.0661592 2.13118e-07)
(5.37051 0.0358519 2.43881e-07)
(5.31761 0.05572 1.89497e-08)
(5.4708 0.175143 -8.44717e-07)
(5.35119 0.00242501 -5.67691e-08)
(5.34939 0.00209427 -6.40434e-08)
(5.56976 0.0965676 3.49293e-07)
(5.33861 2.65584e-08 -2.20312e-11)
(5.30361 0.0269158 4.70467e-07)
(5.2015 0.0929009 -9.90192e-08)
(5.25743 0.0443091 1.38062e-07)
(5.30303 0.0125224 2.76938e-08)
(5.55417 0.0863236 -4.93859e-07)
(5.21569 0.0480437 7.92468e-08)
(5.25126 0.0196206 -6.54884e-09)
(5.20724 0.0540537 -8.13581e-09)
(5.27266 1.24547e-10 -8.23581e-13)
(5.27988 2.33755e-10 1.4611e-12)
(5.2359 0.00376079 1.04809e-07)
(5.2363 0.0109946 4.16162e-09)
(5.13304 0.0827712 -2.97644e-07)
(5.2157 0.0255965 -1.78476e-07)
(5.23302 0.00314537 -3.68381e-08)
(5.09491 0.0538721 3.92025e-07)
(5.15128 0.0683941 -3.46595e-07)
(5.44304 0.119778 3.31506e-07)
(5.21951 0.00987131 3.69478e-07)
(5.38976 0.0806586 -2.89568e-07)
(5.12465 0.0627677 -2.83723e-07)
(5.18421 0.0219081 -5.84343e-07)
(5.19524 0.000267486 4.93075e-08)
(5.15238 1.26447e-11 3.66412e-15)
(5.13569 0.0267331 7.26284e-08)
(5.17943 0.0813109 -7.3276e-08)
(5.08535 0.0659144 5.38034e-07)
(5.09809 0.0398569 6.58052e-09)
(5.06257 0.0265806 2.37865e-07)
(5.06306 0.012007 1.40121e-07)
(5.26568 0.0927753 -8.47004e-08)
(4.9918 0.058298 -3.78172e-08)
(4.97794 0.0623042 -2.01672e-07)
(5.25453 0.136038 -8.70959e-07)
(5.00155 0.034791 -9.38956e-08)
(4.96695 0.029519 2.88653e-07)
(4.93347 0.0527245 2.55019e-07)
(4.89006 0.066552 -1.75807e-07)
(4.88099 0.0679833 -1.95795e-07)
(4.92944 0.0132742 -3.35996e-07)
(4.90896 0.0272592 3.53996e-07)
(4.87338 0.0616445 6.0456e-07)
(4.85634 0.0296449 4.40578e-07)
(4.87668 0.0435826 1.23378e-07)
(4.83448 0.0715273 2.95498e-08)
(4.85073 0.0497792 -4.74283e-08)
(4.87815 0.00559529 -7.99018e-08)
(4.80884 0.066572 4.71827e-07)
(4.82976 0.0403078 2.15589e-08)
(4.83216 0.042206 6.42247e-07)
(4.8332 0.0348167 2.11756e-07)
(4.78857 0.062956 3.47954e-08)
(5.11334 0.119077 3.14027e-07)
(4.78917 0.0495918 8.13581e-07)
(4.7907 0.00369887 4.28438e-07)
(5.10001 0.100436 3.20305e-08)
(4.7559 0.0570051 1.06765e-08)
(4.78616 0.0142711 4.87854e-07)
(4.75031 0.0572032 -1.17712e-07)
(4.73696 0.0558614 -1.36865e-07)
(4.73597 0.0272115 -2.94482e-07)
(4.77081 0.0291014 4.1593e-07)
(5.07694 0.120089 1.41718e-07)
(4.76384 0.00330881 -1.29374e-07)
(4.75835 0.00210586 -4.38871e-08)
(4.73608 0.00288131 8.90624e-08)
(4.72274 0.0432733 -3.208e-07)
(4.69293 0.0581822 -8.79751e-07)
(5.02034 0.117833 -1.1843e-06)
(5.00444 0.141002 1.22563e-07)
(4.96692 0.186031 8.42308e-07)
(4.6868 0.000194006 -7.88962e-09)
(4.66875 0.0187992 6.47727e-08)
(5.00315 0.0995798 1.13036e-06)
(4.64026 1.92891e-11 -2.55391e-14)
(4.63237 0.0319209 1.04089e-08)
(4.61896 0.0292463 -4.43299e-08)
(4.9586 0.106857 3.17715e-08)
(4.61144 0.00610148 -5.79191e-08)
(4.92822 0.154373 7.42517e-07)
(4.58931 0.0435764 1.7504e-07)
(4.92454 0.132374 2.20867e-07)
(4.58977 0.00663557 7.6872e-08)
(4.56715 0.0341936 1.84646e-07)
(4.55456 0.0516653 -8.34858e-08)
(4.54417 0.0123957 1.79622e-07)
(4.49664 0.0584811 5.96452e-08)
(4.49712 0.00776103 -3.68862e-07)
(4.44835 0.0288885 -4.21851e-08)
(4.44782 0.030636 7.01318e-08)
(4.44416 0.0245011 -1.01966e-07)
(4.44059 1.18616e-11 -3.01642e-14)
(4.42882 0.020971 1.44426e-07)
(4.40748 0.0418932 1.43464e-08)
(4.40163 0.0461462 -7.21205e-08)
(4.39661 0.00408349 1.81268e-07)
(4.38308 0.0664575 1.22363e-09)
(4.37641 0.00258622 4.67176e-08)
(9.4284 0.000111216 -2.32435e-07)
(9.35587 4.69187e-09 3.84297e-11)
(9.28021 0.0163208 -7.19721e-07)
(9.37296 9.70003e-08 -4.55369e-10)
(9.16978 0.0746328 -1.80879e-06)
(9.33719 4.27825e-09 -1.79924e-11)
(9.32546 8.89843e-07 -1.62446e-09)
(9.24717 0.1593 7.24648e-07)
(9.33339 0.0397653 3.0836e-08)
(9.22561 0.0152797 -1.47143e-07)
(9.22082 0.00400329 1.08871e-07)
(9.25515 0.000493199 -3.67626e-08)
(9.2472 0.00200303 -8.73995e-09)
(9.16454 0.000338527 -1.92553e-11)
(9.17015 0.00107701 -3.69819e-10)
(9.14431 1.52897e-08 -5.8944e-11)
(9.10063 0.0993071 1.79064e-07)
(9.11682 2.46381e-09 -3.08591e-12)
(9.19606 0.0363755 -3.57148e-07)
(9.0825 7.34356e-09 -4.92189e-11)
(9.00598 0.111357 1.4719e-07)
(9.08405 0.00638447 -3.96828e-07)
(9.01521 0.0685073 1.28524e-06)
(9.07078 0.0131758 7.51646e-08)
(9.01709 2.93851e-05 -6.76863e-08)
(9.05505 0.00298629 -6.1603e-07)
(9.03895 0.00527558 6.16027e-07)
(9.08656 4.40239e-09 -2.17138e-11)
(8.98596 0.0266937 1.02534e-06)
(8.70119 0.158884 5.05089e-07)
(9.01303 6.67253e-09 5.46307e-11)
(8.9675 0.00473746 -8.69086e-08)
(8.97958 0.0268776 1.36056e-07)
(8.94189 0.0776604 -2.91795e-07)
(8.91853 0.0730763 3.448e-07)
(8.99121 5.96149e-09 4.3624e-11)
(8.9367 0.0612931 3.80397e-07)
(8.87896 0.0266829 -4.99056e-07)
(8.84808 1.57467e-08 -1.34232e-10)
(8.87267 0.0711897 1.27542e-07)
(8.88514 0.0201492 -1.9655e-07)
(8.88601 0.0155551 -4.8489e-07)
(8.86969 0.0106601 4.56998e-07)
(8.84047 0.024728 2.05544e-08)
(8.87098 0.0471856 4.01697e-07)
(8.69144 0.154653 2.52174e-07)
(8.92936 0.0179457 -5.7099e-07)
(8.76571 0.0965455 -3.03788e-07)
(8.74384 0.175405 -1.30558e-06)
(8.65984 0.109731 3.67078e-09)
(8.79087 0.0152937 -2.99413e-09)
(8.54512 0.143266 -1.35406e-07)
(8.78418 0.00146852 1.06949e-07)
(8.72734 3.05249e-08 -1.29423e-10)
(8.73981 0.064602 2.65712e-07)
(8.68874 0.0245348 3.37987e-07)
(8.76161 3.70743e-08 2.04075e-10)
(8.69797 0.0920037 -2.77148e-07)
(8.6156 0.0577733 1.59449e-07)