/*--------------------------------*- C++ -*----------------------------------*\
  =========                 |
  \\      /  F ield         | OpenFOAM: The Open Source CFD Toolbox
   \\    /   O peration     | Website:  https://openfoam.org
    \\  /    A nd           | Version:  7
     \\/     M anipulation  |
\*---------------------------------------------------------------------------*/
FoamFile
{
    version     2.0;
    format      ascii;
    class       scalarField;
    location    "0.125/lagrangian/reactingCloud1";
    object      d;
}
// * * * * * * * * * * * * * * * * * * * * * * * * * * * * * * * * * * * * * //


1058
(
1.12808e-06
2e-07
2e-07
2e-07
2e-07
2e-07
2e-07
2e-07
2e-07
2e-07
2e-07
2e-07
2e-07
2e-07
2e-07
2e-07
2e-07
2e-07
2e-07
2e-07
2e-07
2e-07
2e-07
2e-07
2e-07
2e-07
6.30781e-07
2e-07
2e-07
2e-07
2e-07
2e-07
2e-07
2e-07
2e-07
2e-07
2e-07
2e-07
2e-07
2e-07
2e-07
2e-07
2e-07
2e-07
2e-07
2e-07
2e-07
2e-07
2e-07
2e-07
2e-07
2e-07
2e-07
2e-07
2e-07
2e-07
2e-07
2e-07
2e-07
2e-07
2e-07
2e-07
2e-07
2e-07
2e-07
2e-07
2e-07
2e-07
2e-07
2e-07
2e-07
2e-07
2e-07
2e-07
2e-07
2e-07
2e-07
2e-07
2e-07
2e-07
2e-07
2e-07
2e-07
2e-07
2e-07
2e-07
2e-07
2e-07
2e-07
2e-07
2e-07
2e-07
2e-07
2e-07
2e-07
2e-07
2e-07
2e-07
2e-07
2e-07
2e-07
2e-07
2e-07
2e-07
2e-07
2e-07
2e-07
2e-07
2e-07
2e-07
2e-07
2e-07
2e-07
2e-07
2e-07
2e-07
2e-07
2e-07
2e-07
2e-07
2e-07
2e-07
2e-07
2e-07
2e-07
2e-07
2e-07
2e-07
2e-07
2e-07
2e-07
2e-07
2e-07
2e-07
2e-07
2e-07
2e-07
2e-07
2e-07
2e-07
2e-07
2e-07
2e-07
2e-07
2e-07
2e-07
2e-07
2e-07
2e-07
2e-07
2e-07
2e-07
2e-07
2e-07
2e-07
2e-07
2e-07
2e-07
2e-07
2e-07
2e-07
2e-07
2e-07
2e-07
2e-07
2e-07
2e-07
2e-07
2e-07
2e-07
2e-07
2e-07
2e-07
2e-07
2e-07
2e-07
2e-07
2e-07
2e-07
2e-07
2e-07
2e-07
2e-07
2e-07
2e-07
2e-07
2e-07
2e-07
2e-07
2e-07
2e-07
2e-07
2e-07
2e-07
2e-07
2e-07
2e-07
2e-07
2e-07
2e-07
2e-07
2e-07
2e-07
2e-07
2e-07
2e-07
2e-07
2e-07
2e-07
2e-07
2e-07
2e-07
2e-07
2e-07
2e-07
2e-07
2e-07
2e-07
2e-07
2e-07
2e-07
2e-07
2e-07
2e-07
2e-07
2e-07
2e-07
2e-07
2e-07
2e-07
2e-07
2e-07
2e-07
2e-07
2e-07
2e-07
2e-07
2e-07
2e-07
2e-07
2e-07
2e-07
2e-07
2e-07
2e-07
2e-07
2e-07
2e-07
2e-07
2e-07
2e-07
2e-07
2e-07
2e-07
2e-07
2e-07
2e-07
2e-07
2e-07
2e-07
2e-07
2e-07
2e-07
2e-07
2e-07
2e-07
2e-07
2e-07
2e-07
2e-07
2e-07
2e-07
2e-07
2e-07
2e-07
2e-07
2e-07
2e-07
2e-07
2e-07
2e-07
2e-07
2e-07
2e-07
7.16697e-07
9.3278e-07
1.09595e-06
2.13756e-06
1.80297e-06
1.29783e-06
1.07778e-06
9.57168e-07
8.2893e-07
1.12199e-06
2e-07
1.28019e-06
2e-07
2e-07
2.09649e-06
2e-07
2e-07
2e-07
2e-07
2e-07
2e-07
2e-07
2e-07
2e-07
2.06471e-06
2e-07
2e-07
2e-07
2e-07
2e-07
2e-07
2e-07
1.02142e-06
1.57187e-06
1.03231e-06
2e-07
2e-07
2e-07
2e-07
2e-07
2e-07
2e-07
2e-07
2e-07
2e-07
2e-07
2.59545e-06
2e-07
2e-07
2e-07
7.35237e-07
2e-07
2e-07
1.39678e-06
2e-07
2e-07
4.57102e-07
1.03769e-06
2e-07
2.81799e-07
2.2706e-06
2e-07
2.33978e-06
2e-07
2e-07
1.1265e-06
2e-07
1.29458e-06
2e-07
2e-07
2e-07
2e-07
1.28861e-06
2e-07
2e-07
2e-07
2e-07
1.38084e-06
2e-07
2e-07
2e-07
2e-07
2e-07
1.40834e-06
2e-07
2e-07
2e-07
2e-07
2e-07
2e-07
2.8572e-06
2e-07
2e-07
2e-07
2e-07
2e-07
2e-07
2e-07
2e-07
2e-07
1.76374e-06
2e-07
2e-07
2e-07
9.58436e-07
2e-07
2e-07
7.55189e-07
2e-07
1.03567e-06
2e-07
8.57253e-07
2e-07
2e-07
2e-07
2e-07
2e-07
2e-07
2e-07
1.32205e-06
2e-07
2e-07
2e-07
2e-07
2e-07
2e-07
1.23682e-06
2e-07
2e-07
2e-07
2e-07
2e-07
2e-07
2e-07
1.95858e-06
2e-07
1.92527e-06
1.29217e-06
2e-07
2e-07
2e-07
2e-07
2e-07
2e-07
2e-07
2e-07
2e-07
8.17231e-07
1.33092e-06
2e-07
2e-07
2e-07
2e-07
2e-07
2e-07
2e-07
2e-07
2e-07
2e-07
2e-07
2e-07
2e-07
2e-07
2e-07
2e-07
1.25874e-06
2e-07
2e-07
1.55334e-06
2e-07
2e-07
2e-07
2e-07
2.36208e-06
1.15913e-06
2e-07
2e-07
2e-07
2e-07
2e-07
2e-07
2e-07
2e-07
2e-07
7.67049e-07
2e-07
2e-07
2e-07
2e-07
2e-07
2e-07
2e-07
2e-07
2e-07
2e-07
2e-07
2e-07
2e-07
2e-07
2e-07
2e-07
4.55798e-07
2e-07
2e-07
1.12095e-06
2e-07
2e-07
2e-07
2e-07
3.86994e-07
1.36627e-06
2e-07
2e-07
2e-07
2e-07
2e-07
2e-07
2e-07
2e-07
2.20911e-07
1.87614e-06
2e-07
2e-07
2e-07
2e-07
2e-07
2e-07
2e-07
2e-07
2e-07
1.62378e-06
2e-07
2e-07
1.94067e-06
2e-07
2e-07
2e-07
2e-07
6.41042e-07
2e-07
2e-07
2e-07
2e-07
2e-07
9.07789e-07
2e-07
2e-07
2e-07
2e-07
2e-07
2e-07
2e-07
2e-07
2e-07
2e-07
2e-07
2e-07
2e-07
2e-07
2e-07
2e-07
2e-07
2e-07
7.07752e-07
9.97415e-07
8.81542e-07
1.23843e-06
2.63536e-06
2.92186e-06
2.0721e-06
1.85543e-06
2e-07
2e-07
1.57347e-06
2e-07
2e-07
2e-07
1.22635e-06
2e-07
1.65812e-06
2e-07
2e-07
2e-07
2e-07
2e-07
2e-07
2e-07
2e-07
1.96658e-06
2e-07
2.38394e-06
2e-07
2e-07
2.05285e-06
2e-07
1.01649e-06
1.41964e-06
2e-07
2e-07
1.97635e-06
2.93521e-06
2e-07
1.84498e-06
2.15311e-06
2e-07
2e-07
1.48879e-06
2e-07
2.67208e-06
1.6231e-06
2e-07
2e-07
2e-07
2e-07
2e-07
1.47878e-06
1.58659e-06
2e-07
2e-07
2e-07
2.39097e-06
4.91732e-07
1.7617e-06
2e-07
3.62315e-06
2e-07
2e-07
3.43265e-06
2e-07
2.62358e-06
1.7428e-06
3.48179e-06
2e-07
2e-07
2.7671e-06
2e-07
2e-07
2e-07
2.83212e-06
2e-07
2e-07
2e-07
2e-07
2e-07
2e-07
2e-07
2e-07
2e-07
2.96884e-06
2e-07
2e-07
2e-07
2.19236e-06
2e-07
2e-07
2e-07
2e-07
2e-07
2.90555e-06
1.99384e-06
2.32007e-06
2.10495e-06
2e-07
2e-07
2e-07
2.82911e-06
8.79622e-07
8.62442e-07
3.21994e-06
1.42925e-06
3.22555e-06
1.48379e-06
2e-07
2e-07
2.90479e-07
3.17351e-06
3.08747e-06
2e-07
1.91478e-06
2e-07
2e-07
5.44692e-07
2.38528e-06
2e-07
2e-07
2e-07
1.86209e-06
2e-07
1.24308e-06
1.91344e-06
2e-07
2e-07
1.70229e-06
2e-07
2e-07
1.13236e-06
3.14931e-06
1.01942e-06
2e-07
2e-07
1.63645e-06
2e-07
2e-07
2e-07
2e-07
2.66073e-06
2e-07
2e-07
2e-07
2.40285e-06
3.01385e-06
2e-07
2e-07
2e-07
2e-07
8.27458e-07
2e-07
1.51754e-06
6.64679e-07
1.02155e-06
2e-07
2e-07
2e-07
2e-07
4.83444e-07
2e-07
2.594e-06
1.27186e-06
2e-07
1.37869e-06
2e-07
2e-07
2e-07
2e-07
2.00951e-06
2e-07
2e-07
1.60173e-06
1.47914e-06
2e-07
1.71806e-06
2e-07
2e-07
2e-07
5.09111e-06
2e-07
2e-07
2.08813e-06
2e-07
2e-07
1.90278e-06
2e-07
2e-07
2e-07
2.51373e-06
2e-07
2e-07
2e-07
2e-07
2e-07
1.49678e-06
2e-07
2e-07
2.12004e-06
5.99926e-06
2e-07
1.18827e-06
3.13275e-06
2e-07
1.76914e-06
2e-07
2e-07
2e-07
2e-07
2e-07
2e-07
2e-07
7.19468e-07
2e-07
2e-07
2e-07
2e-07
4.04969e-06
2e-07
2.37281e-06
2e-07
2e-07
2e-07
2e-07
2e-07
2.73434e-06
2e-07
2e-07
2e-07
2e-07
2.14944e-06
2e-07
2e-07
1.74462e-06
2e-07
2e-07
2e-07
2e-07
2e-07
2e-07
2e-07
2e-07
2e-07
2e-07
2e-07
2e-07
2e-07
2e-07
2e-07
2e-07
2e-07
2e-07
2.6414e-06
2e-07
2e-07
1.63962e-06
2e-07
2e-07
2e-07
2e-07
2e-07
2e-07
1.6876e-06
2e-07
2e-07
2e-07
2e-07
2e-07
1.68782e-06
9.52934e-07
1.16069e-06
2e-07
2e-07
1.32574e-06
2e-07
2e-07
2e-07
1.78424e-06
2e-07
1.70972e-06
2e-07
1.10164e-06
2e-07
2e-07
2e-07
2e-07
2e-07
2e-07
2e-07
2e-07
2e-07
2e-07
2e-07
2e-07
2e-07
2e-07
2e-07
2e-07
2.2513e-06
2.2198e-06
2.19684e-06
2.19364e-06
2.40252e-06
2.18725e-06
2.18732e-06
2.01085e-06
2.11397e-06
2.23431e-06
2.14094e-06
2.14006e-06
2.13926e-06
2.14186e-06
2.09786e-06
2.08898e-06
2.03851e-06
2.06433e-06
2.13467e-06
2.05257e-06
2.12138e-06
2.04042e-06
2.12839e-06
2.02925e-06
2.02622e-06
2.02204e-06
2.01533e-06
2.02975e-06
1.99215e-06
2.12677e-06
2.00033e-06
2.09965e-06
2.08581e-06
2.35878e-06
2.57082e-06
1.98157e-06
2.22191e-06
1.95009e-06
1.94237e-06
2.03432e-06
2.11826e-06
1.90617e-06
1.90999e-06
1.88174e-06
1.95711e-06
2.3174e-06
2.75158e-06
2.06793e-06
1.83496e-06
2.76575e-06
1.84223e-06
3.09457e-06
1.8372e-06
3.00968e-06
2.03127e-06
2.39224e-06
2.03642e-06
2.12037e-06
1.91322e-06
1.71493e-06
1.81613e-06
1.73164e-06
1.99871e-06
1.80436e-06
1.73467e-06
1.72481e-06
3.07931e-06
1.71722e-06
1.73031e-06
1.66591e-06
1.78661e-06
1.63325e-06
1.80013e-06
2.57467e-06
1.61949e-06
2.00247e-06
2.75238e-06
4.63594e-06
1.58721e-06
2.15245e-06
1.56892e-06
4.08309e-06
2.78999e-06
2.86595e-06
1.75144e-06
1.65559e-06
2.67403e-06
1.87119e-06
1.45901e-06
2.65005e-06
1.81056e-06
2.90863e-06
1.41021e-06
2.35414e-06
3.53233e-06
3.41283e-06
2.04383e-06
1.37146e-06
1.35637e-06
3.25518e-06
1.34452e-06
2.03812e-06
1.33155e-06
1.67179e-06
1.46452e-06
2.00253e-06
1.36548e-06
1.24685e-06
1.22514e-06
1.22427e-06
2.44544e-06
2.30477e-06
2.74108e-06
2.76627e-06
1.95033e-06
1.17518e-06
1.67723e-06
1.14044e-06
1.14046e-06
1.11865e-06
3.60878e-06
4.99433e-06
1.1146e-06
3.86833e-06
1.41612e-06
2.20905e-06
9.77978e-07
9.85134e-07
9.80556e-07
1.19664e-06
2.70753e-06
1.71564e-06
1.30234e-06
1.12388e-06
8.64576e-07
2.07108e-06
1.0323e-06
2.59937e-06
2.72709e-06
1.50988e-06
2.73743e-06
4.62536e-06
2.06461e-06
7.30146e-07
9.87419e-07
7.06567e-07
6.85831e-07
6.42861e-07
1.41865e-06
3.35109e-06
2.04897e-06
5.05227e-07
1.26596e-06
8.04166e-07
1.24937e-06
1.21197e-06
3.2826e-07
1.58809e-06
3.12133e-06
3.45662e-06
2.07125e-06
1.26669e-06
2e-07
2e-07
4.96048e-07
2.14392e-06
2e-07
7.79284e-07
1.11754e-06
2.47639e-06
2e-07
2.32406e-06
2.46026e-06
2e-07
2.19242e-06
2e-07
2.80624e-06
1.0512e-06
5.9372e-07
3.02217e-06
2e-07
5.23186e-07
1.26367e-06
2.26612e-06
2e-07
2e-07
2e-07
1.31841e-06
9.05501e-07
2e-07
8.33967e-07
2e-07
2e-07
1.94751e-06
2e-07
2e-07
1.22529e-06
2e-07
2e-07
1.91195e-06
4.30867e-06
2e-07
1.96755e-06
2e-07
1.0681e-06
2e-07
2e-07
2.01039e-06
1.07061e-06
1.08337e-06
2.73495e-06
)


// ************************************************************************* //
