/*--------------------------------*- C++ -*----------------------------------*\
  =========                 |
  \\      /  F ield         | OpenFOAM: The Open Source CFD Toolbox
   \\    /   O peration     | Website:  https://openfoam.org
    \\  /    A nd           | Version:  7
     \\/     M anipulation  |
\*---------------------------------------------------------------------------*/
FoamFile
{
    version     2.0;
    format      ascii;
    class       labelField;
    location    "0.125/lagrangian/reactingCloud1";
    object      origId;
}
// * * * * * * * * * * * * * * * * * * * * * * * * * * * * * * * * * * * * * //


1058
(
737
789
782
790
794
792
795
788
796
793
791
797
785
781
804
802
786
805
803
801
799
808
811
810
798
787
591
816
817
818
812
819
821
778
823
824
813
825
814
807
820
837
836
840
833
831
832
829
842
827
841
834
830
847
839
846
848
939
991
992
993
994
995
996
997
998
999
1000
1001
1002
1003
1004
1005
1006
1007
1008
1009
1010
1011
1012
1013
1014
1015
1016
1017
1018
1019
1020
1021
1022
1023
1024
1025
1026
1027
1028
1029
1030
1031
1032
1033
1034
1035
1036
1037
1038
1039
1040
1041
1042
1043
1044
1045
1046
1047
1048
1049
1050
1051
1052
1053
1054
1055
1056
1057
806
928
933
934
936
937
938
941
943
942
944
945
946
940
948
950
949
951
952
954
955
953
880
956
959
958
961
960
963
962
964
965
957
967
966
969
968
970
971
972
973
974
975
947
976
977
979
978
980
981
982
983
984
985
986
987
988
989
990
677
783
676
630
888
887
890
844
876
886
891
894
889
895
897
828
896
901
885
899
893
898
908
906
909
910
903
907
911
900
892
914
902
916
912
879
913
921
904
920
922
919
915
905
923
918
929
926
917
932
927
925
930
935
931
924
850
851
843
845
852
856
853
762
800
838
861
809
858
859
835
862
863
866
865
822
857
870
864
854
869
855
871
826
873
860
875
868
751
874
872
867
882
884
883
815
878
877
849
881
397
460
447
427
246
497
472
454
396
478
522
503
528
345
483
545
544
549
534
553
551
533
554
550
504
519
459
543
556
546
552
512
523
539
507
540
564
555
561
566
515
558
426
531
573
570
416
577
575
578
568
557
560
542
579
571
572
559
538
567
563
587
496
569
583
548
590
580
598
593
592
596
586
597
599
606
589
565
594
574
612
595
607
585
610
615
600
613
603
609
576
605
584
608
620
604
621
619
622
624
562
627
625
616
588
602
633
582
614
547
623
618
629
636
637
638
631
617
635
628
644
634
650
651
632
648
626
643
647
645
601
656
646
655
611
659
639
642
657
660
658
652
662
640
664
661
669
653
649
663
654
672
668
671
666
670
675
673
674
680
641
679
683
684
682
665
686
687
581
691
695
689
698
685
681
700
688
701
704
696
707
690
709
702
667
711
694
708
697
705
710
718
713
678
721
693
692
720
714
727
715
717
726
734
706
728
725
723
731
716
699
739
736
735
741
742
730
722
743
740
712
747
738
748
749
752
745
746
733
750
719
757
754
703
758
760
755
756
744
759
761
765
766
769
732
764
773
772
774
771
775
753
724
770
729
763
776
780
779
777
784
767
768
234
187
321
86
174
61
201
146
247
256
252
259
249
245
215
264
9
263
267
271
270
253
213
236
269
194
278
190
279
266
173
250
268
275
262
289
153
214
282
284
265
283
290
228
293
241
285
286
297
287
211
240
258
292
280
301
296
109
273
294
307
224
310
306
212
303
255
261
207
281
295
223
288
316
312
243
317
302
324
315
318
328
304
314
329
193
308
334
313
232
325
309
336
337
305
254
272
251
327
323
333
344
260
330
347
239
338
242
298
351
352
356
199
179
335
332
340
322
355
63
371
354
339
359
319
370
276
358
362
346
274
342
373
277
372
383
382
343
369
379
368
384
311
374
394
376
48
299
395
380
390
386
349
360
291
387
230
406
392
375
404
378
391
331
341
413
363
409
414
399
410
361
417
419
348
353
430
367
385
411
401
398
434
428
300
408
412
366
443
365
439
357
435
442
422
446
444
364
425
326
377
350
450
432
420
393
400
436
451
457
431
461
424
462
423
458
437
415
452
183
456
389
445
465
469
448
470
403
466
468
475
481
402
464
474
388
482
485
473
455
476
453
487
440
490
471
467
489
479
491
495
463
500
488
405
494
486
429
493
506
501
477
498
484
438
492
508
510
505
499
449
320
381
441
502
407
518
516
514
433
521
418
480
421
526
509
517
530
513
535
536
520
529
524
525
511
537
527
532
541
0
4
3
12
1
17
7
11
16
8
22
20
31
26
35
33
24
32
56
38
42
10
40
37
23
46
39
47
15
30
62
45
49
44
29
43
34
52
6
60
36
72
68
74
69
41
2
66
64
5
80
25
76
55
57
21
82
81
79
67
73
97
91
83
96
54
70
88
87
89
77
51
117
14
123
65
28
50
120
84
101
18
75
27
110
114
71
90
93
58
122
102
107
105
13
59
98
145
134
104
136
95
155
118
133
126
115
131
152
144
85
119
78
19
116
147
143
140
158
166
100
106
130
108
148
129
159
142
149
172
127
137
176
135
177
154
139
128
121
151
103
99
156
157
188
164
195
162
163
160
161
138
169
196
185
178
181
192
132
92
125
191
171
209
170
186
206
180
203
165
217
111
184
221
167
205
141
168
202
112
182
218
233
198
124
197
237
216
175
200
222
189
244
150
225
226
231
248
235
219
204
238
220
257
229
208
227
210
94
53
113
)


// ************************************************************************* //
