/*--------------------------------*- C++ -*----------------------------------*\
  =========                 |
  \\      /  F ield         | OpenFOAM: The Open Source CFD Toolbox
   \\    /   O peration     | Website:  https://openfoam.org
    \\  /    A nd           | Version:  7
     \\/     M anipulation  |
\*---------------------------------------------------------------------------*/
FoamFile
{
    version     2.0;
    format      ascii;
    class       Cloud<passiveParticle>;
    location    "0.125/lagrangian/reactingCloud1";
    object      positions;
}
// * * * * * * * * * * * * * * * * * * * * * * * * * * * * * * * * * * * * * //

1058
(
(0.142539 0.337208 0.42811 0.0921426) 46155 91632 2
(0.313853 0.00570092 0.34257 0.337877) 46102 91611 2
(0.426228 0.289302 0.235891 0.048579) 46152 91711 1
(0.265691 0.37171 0.064486 0.298113) 46193 91705 1
(0.307033 0.347122 0.0522096 0.293635) 46189 91700 1
(0.844256 0.0783369 0.0718367 0.00557002) 46192 91791 1
(0.261889 0.38481 0.146436 0.206865) 46234 91787 1
(0.0737292 0.475949 0.27473 0.175592) 46193 91793 1
(0.673858 0.0104976 0.152596 0.163048) 46233 91786 2
(0.739237 0.130589 0.101009 0.0291649) 46238 91796 1
(0.540846 0.0709508 0.22956 0.158644) 46283 91888 2
(0.77402 0.0487106 0.109498 0.0677717) 46280 91967 2
(0.241709 0.379941 0.37044 0.00790914) 46329 91978 1
(0.431727 0.0319583 0.254269 0.282045) 46413 92145 2
(0.251083 0.374913 0.218535 0.15547) 46364 92048 1
(0.414075 0.154761 0.281846 0.149318) 46368 92143 2
(0.0259187 0.0354995 0.487129 0.451453) 46414 92150 2
(0.401851 0.295541 0.00425646 0.298351) 46457 92234 2
(0.196345 0.402111 0.354859 0.0466846) 46460 92242 1
(0.0967086 0.0154472 0.436222 0.451622) 46504 92328 2
(0.389594 0.274049 0.0433951 0.292962) 46504 92327 2
(0.103573 0.0564378 0.443199 0.396791) 46454 92315 2
(0.31537 0.302255 0.0669332 0.315442) 46542 92403 2
(0.828532 0.0867875 0.0125177 0.072163) 46544 92407 1
(0.0748048 0.468175 0.15451 0.302509) 46638 92595 1
(0.169621 0.43255 0.16935 0.228479) 46587 92493 1
(0.242565 0.0112807 0.377947 0.368208) 46640 92687 2
(0.433733 0.0779288 0.213884 0.274454) 46628 92575 2
(0.204995 0.397546 0.0228532 0.374606) 46629 92578 1
(0.234244 0.383239 0.178963 0.203555) 46674 92670 1
(0.794476 0.10279 0.0459799 0.056754) 46723 92768 1
(0.23391 0.348912 0.357803 0.0593754) 46720 92847 2
(0.494064 0.267327 0.0690111 0.169598) 46764 92935 1
(0.179743 0.0646003 0.406882 0.348775) 46767 92941 2
(0.356254 0.345713 0.219586 0.0784465) 46806 92931 1
(0.598919 0.0920782 0.200378 0.108625) 46804 92930 2
(0.206166 0.415334 0.378376 0.000123481) 46812 93031 2
(0.763965 0.0291725 0.115669 0.0911941) 46851 93109 2
(0.171545 0.426382 0.333398 0.0686744) 47034 93387 1
(0.528244 0.235991 0.123573 0.112192) 47035 93392 1
(0.834165 0.0483661 0.0345777 0.0828917) 47078 93476 2
(0.0198046 0.514675 0.287913 0.177607) 47204 93727 1
(0.452329 0.274237 0.241171 0.0322621) 47206 93732 1
(0.461384 0.0829502 0.186474 0.269191) 47247 93814 2
(0.544206 0.089679 0.223822 0.142292) 47252 93911 2
(0.536387 0.237277 0.0725826 0.153753) 47298 94003 1
(0.396753 0.309848 0.101622 0.191776) 47297 94001 1
(0.328854 0.072852 0.335441 0.262853) 47341 94004 2
(0.187499 0.41619 0.116147 0.280164) 47336 93991 1
(0.140772 0.039595 0.428406 0.391227) 47298 94003 2
(0.346137 0.344601 0.266388 0.0428747) 47382 94083 1
(0.40239 0.299148 0.256312 0.0421497) 47385 94090 1
(0.0832188 0.213077 0.256042 0.447663) 47427 94173 2
(0.402777 0.296785 0.0284772 0.271961) 47422 94163 2
(0.974948 0.0123189 0.00494808 0.00778509) 47427 94176 1
(0.381682 0.23932 0.0873615 0.291637) 47468 94255 2
(0.343762 0.340653 0.169579 0.146007) 47468 94343 1
(0.0164168 0.487592 0.337916 0.158075) 3441 6724 1
(0.189159 0.39504 0.0280747 0.387726) 3401 6646 1
(0.477419 0.076654 0.261698 0.184229) 3428 6663 2
(0.541595 0.229054 0.0286026 0.200749) 3406 6618 1
(0.59841 0.194359 0.0913788 0.115853) 3391 6627 1
(0.380548 0.269422 0.0323803 0.31765) 3382 6570 2
(0.0353465 0.481879 0.0343959 0.448379) 3362 6532 1
(0.0624049 0.0791705 0.390078 0.468347) 2980 96675 1
(0.778846 0.0346861 0.0757255 0.110742) 3321 6452 2
(0.113039 0.0809965 0.443866 0.362098) 3321 6454 2
(0.302289 0.190441 0.364725 0.142545) 3293 6436 2
(0.296117 0.271281 0.35992 0.072682) 3282 6414 2
(0.54404 0.217808 0.183106 0.0550468) 3271 6354 1
(0.55061 0.224153 0.130363 0.0948735) 3250 6314 1
(0.14399 0.157072 0.428663 0.270274) 3244 6304 2
(0.541129 0.228688 0.0433968 0.186786) 3223 6263 1
(0.303111 0.292876 0.056334 0.347679) 3140 96667 1
(0.507885 0.230298 0.252153 0.00966427) 3192 6200 1
(0.187751 0.404791 0.0254137 0.382045) 3177 6174 1
(0.449419 0.0109526 0.264034 0.275595) 3161 6139 2
(0.399979 0.296864 0.265399 0.037758) 3134 6126 1
(0.190606 0.396424 0.182014 0.230957) 3129 6077 1
(0.242974 0.127404 0.250734 0.378887) 3113 6047 2
(0.773307 0.00565354 0.107677 0.113362) 3096 6014 2
(0.525527 0.237047 0.0761325 0.161294) 3070 5963 1
(0.299658 0.0173795 0.354516 0.328447) 3057 5976 2
(0.0656678 0.450471 0.400674 0.0831864) 3048 5919 1
(0.352706 0.314285 0.0748995 0.25811) 3036 5896 1
(0.432059 0.253509 0.121846 0.192586) 3018 5861 1
(0.199863 0.2351 0.164595 0.400442) 2990 5807 2
(0.220832 0.389145 0.0628404 0.327182) 2965 5760 1
(0.207969 0.395908 0.29777 0.0983529) 2946 5723 1
(0.203581 0.23153 0.405445 0.159444) 2923 5714 2
(0.0330357 0.458607 0.0605971 0.447761) 2911 5691 1
(0.455795 0.270913 0.0214086 0.251883) 2911 5652 1
(0.798848 0.0128173 0.0868431 0.101492) 2892 5615 2
(0.864884 0.0675557 0.0336703 0.0338904) 2868 5569 1
(0.112747 0.443626 0.082396 0.361231) 2856 5546 1
(0.42921 0.281981 0.159072 0.129737) 2821 5515 1
(0.30958 0.343574 0.0589036 0.287943) 2822 5478 1
(0.563406 0.197453 0.0118687 0.227272) 2808 5451 2
(0.823611 0.0513183 0.0368763 0.0881945) 2790 5417 2
(0.352474 0.323763 0.0658736 0.257889) 2769 5376 1
(0.357552 0.3081 0.0718645 0.262484) 2750 5377 1
(0.303583 0.335118 0.235632 0.125667) 2751 5340 1
(0.286693 0.173575 0.183078 0.356654) 2727 5294 2
(0.175407 0.33758 0.412297 0.0747165) 2703 5249 2
(0.326747 0.336626 0.281422 0.0552045) 2689 5222 1
(0.297398 0.341421 0.0450368 0.316144) 2664 5209 1
(0.0948433 0.144124 0.308455 0.452578) 2670 5183 2
(0.544196 0.0631109 0.227902 0.164791) 2651 5148 2
(0.363148 0.291788 0.0786877 0.266376) 2635 5153 1
(0.0147291 0.21172 0.505868 0.267683) 2611 5106 2
(0.0782139 0.451081 0.215873 0.254833) 2609 5063 1
(0.482107 0.112403 0.146543 0.258947) 2593 5033 2
(0.766109 0.116946 0.0948453 0.0221003) 2565 4978 1
(0.162441 0.416569 0.350272 0.070717) 2544 4975 1
(0.243633 0.0237634 0.353506 0.379097) 2546 4940 2
(0.537774 0.126634 0.231113 0.104479) 2523 4898 2
(0.655834 0.0691599 0.102923 0.172083) 2534 4918 2
(0.572953 0.213524 0.156613 0.0569101) 2503 4859 1
(0.203035 0.382205 0.154312 0.260449) 2492 4874 1
(0.466905 0.118065 0.138644 0.276386) 2493 4837 2
(0.801019 0.0687666 0.0275982 0.102616) 2468 4788 2
(0.46125 0.0966577 0.272218 0.169875) 2442 4776 2
(0.120133 0.297563 0.0927766 0.489527) 2456 4765 2
(0.160745 0.278173 0.419628 0.141454) 2424 4705 2
(0.552321 0.223414 0.211511 0.0127537) 2405 4704 1
(0.0410895 0.194662 0.284343 0.479906) 3980 96625 1
(0.104828 0.0165728 0.448046 0.430553) 4061 7933 2
(0.244444 0.377726 0.00177519 0.376055) 4103 7976 1
(0.477735 0.261326 0.183255 0.0776844) 4062 7899 1
(0.244481 0.377762 0.000913771 0.376843) 4105 7981 1
(0.125674 0.437454 0.321236 0.115636) 4105 7983 1
(0.295504 0.353047 0.321901 0.0295473) 4064 7901 1
(0.221516 0.202066 0.38874 0.187679) 4087 7948 2
(0.302097 0.334303 0.263672 0.0999279) 4091 7953 1
(0.0575648 0.471534 0.129908 0.340993) 4004 7784 1
(0.37103 0.308851 0.196172 0.123947) 4049 7910 1
(0.119834 0.297093 0.57196 0.0111132) 4098 7967 1
(0.455543 0.250635 0.129561 0.164261) 4077 7926 1
(0.744132 0.124864 0.013855 0.117148) 3841 7504 1
(0.542893 0.162673 0.066275 0.228159) 4010 7796 2
(0.674241 0.16146 0.0340775 0.130222) 3968 7713 1
(0.114743 0.15162 0.44228 0.291357) 3862 7509 2
(0.0430867 0.247291 0.49612 0.213502) 3972 7760 2
(0.378945 0.250915 0.0602135 0.309927) 3973 7724 2
(0.415031 0.292901 0.115135 0.176934) 3885 7554 1
(0.151309 0.411209 0.0433733 0.394109) 3865 7551 1
(0.336913 0.328191 0.209562 0.125335) 3782 7389 1
(0.566976 0.210809 0.0127588 0.209456) 3741 7309 1
(0.0824538 0.459652 0.375442 0.0824529) 3866 7515 1
(0.359103 0.320749 0.129376 0.190771) 3849 7482 1
(0.0957085 0.452627 0.207617 0.244048) 3825 7435 1
(0.752312 0.112273 0.0428435 0.0925722) 3856 7534 1
(0.615465 0.192493 0.0687862 0.123256) 3783 7355 1
(0.570179 0.21504 0.0599987 0.154782) 3812 7410 1
(0.113425 0.443754 0.188083 0.254738) 3785 7359 1
(0.376575 0.297346 0.201135 0.124944) 3813 7411 1
(0.42442 0.288273 0.263698 0.0236088) 3794 7375 1
(0.176982 0.399749 0.405082 0.0181874) 3683 7157 1
(0.0432322 0.176881 0.478129 0.301758) 3774 7338 2
(0.286056 0.0541506 0.30255 0.357244) 3703 7197 2
(0.174407 0.257105 0.412631 0.155856) 3729 7250 2
(0.646386 0.0138362 0.162439 0.177339) 3726 7241 2
(0.554976 0.216166 0.00623214 0.222626) 3663 7119 2
(0.444827 0.277569 0.153414 0.124191) 3687 7168 1
(0.0776932 0.163211 0.461177 0.297919) 3687 7168 2
(0.239009 0.248693 0.39826 0.114039) 3672 7175 2
(0.738442 0.130754 0.0833599 0.047444) 3676 7147 1
(0.549742 0.224943 0.0209027 0.204412) 3645 7086 1
(0.237695 0.372422 0.0347885 0.355095) 3540 6918 1
(0.315762 0.341554 0.00735941 0.335325) 3602 7002 1
(0.25711 0.0455505 0.372657 0.324682) 3582 6999 2
(0.751776 0.0320281 0.124166 0.0920295) 3610 7018 2
(0.255032 0.359175 0.0397671 0.346026) 3607 7048 1
(0.298702 0.344224 0.228586 0.128487) 3590 7015 1
(0.265825 0.053416 0.309856 0.370903) 3592 6980 2
(0.735883 0.108562 0.132328 0.0232262) 3576 6952 2
(0.230768 0.384041 0.188732 0.196459) 3550 6901 1
(0.306951 0.346213 0.154312 0.192524) 3543 6885 1
(0.0637407 0.305832 0.161269 0.469158) 3528 6856 2
(0.0261613 0.480579 0.257653 0.235607) 3482 6804 1
(0.546419 0.225983 0.193126 0.0344716) 3483 6768 1
(0.317496 0.089463 0.341629 0.251412) 3484 6772 2
(0.0845761 0.271545 0.458977 0.184902) 3477 6759 2
(0.446047 0.276502 0.182891 0.0945605) 3452 6710 1
(0.0132988 0.0403367 0.452941 0.493423) 5102 9937 2
(0.0589436 0.470372 0.435488 0.0351959) 5000 9735 1
(0.698668 0.0526948 0.150718 0.0979191) 4960 9655 2
(2.82212e-06 0.086826 0.412852 0.500319) 4740 96587 1
(0.264693 0.354342 0.367456 0.013509) 5090 9915 2
(0.417461 0.291112 0.0414944 0.249932) 5068 9871 1
(0.267551 0.366252 0.344295 0.021902) 5051 9837 1
(0.435745 0.277663 0.144709 0.141883) 4885 9502 1
(0.12482 0.162893 0.269895 0.442391) 4963 9658 2
(0.325107 0.337298 0.151544 0.186051) 4965 9663 1
(0.573561 0.213266 0.125425 0.0877475) 5010 9755 1
(0.317727 0.327784 0.340087 0.0144019) 4994 9723 2
(0.0801355 0.392284 0.0546556 0.472924) 4904 9540 2
(0.224945 0.123568 0.264192 0.387295) 4953 9639 2
(0.117681 0.248319 0.161451 0.472549) 4955 9642 2
(0.0983125 0.449081 0.358165 0.0944419) 4440 96602 2
(0.184273 0.410549 0.0134166 0.391762) 4806 9350 1
(0.0795068 0.136211 0.324975 0.459307) 4833 9401 2
(0.0672573 0.468304 0.324861 0.139578) 4662 9067 1
(0.489372 0.256634 0.0495633 0.20443) 4746 9233 1
(0.41663 0.253984 0.290413 0.038973) 4662 9069 2
(0.276641 0.354215 0.115341 0.253803) 4623 9029 1
(0.535632 0.0193011 0.222533 0.222533) 4699 9178 1
(0.124667 0.275871 0.436059 0.163404) 4648 9042 2
(0.732215 0.133954 0.0105759 0.123255) 4632 9009 1
(0.597459 0.201975 0.0769963 0.12357) 4612 8972 1
(0.740036 0.130402 0.0523154 0.0772472) 4543 8837 1
(0.110002 0.283397 0.152156 0.454445) 4524 8797 2
(0.269024 0.293829 0.363933 0.0732138) 4527 8806 2
(0.28981 0.354251 0.32639 0.0295484) 4421 8635 1
(0.107207 0.292484 0.155357 0.444952) 4401 8558 2
(0.138191 0.138934 0.43018 0.292694) 4509 8771 2
(0.277542 0.361293 0.347204 0.0139604) 4421 8599 1
(0.332727 0.0793024 0.338042 0.249928) 4490 8770 2
(0.382665 0.0827872 0.222924 0.311624) 4465 8682 2
(0.191305 0.397025 0.148603 0.263068) 4464 8719 1
(0.623069 0.123136 0.19257 0.0612246) 4404 8602 2
(0.0783567 0.19695 0.459853 0.264841) 4430 8617 2
(0.173033 0.414089 0.296767 0.116111) 4321 8404 1
(0.191923 0.147459 0.250908 0.40971) 4386 8528 2
(0.0553954 0.473417 0.231516 0.239672) 4325 8412 1
(0.101954 0.446448 0.0824011 0.369197) 4324 8407 1
(0.280257 0.360091 0.0174871 0.342165) 4303 8367 1
(0.0374206 0.0958679 0.483954 0.382757) 4260 8322 2
(0.656252 0.111364 0.175851 0.056533) 4305 8409 2
(0.169959 0.416369 0.29732 0.116352) 4283 8328 1
(0.786884 0.105279 0.0899341 0.0179025) 4313 8425 1
(0.288765 0.042385 0.311467 0.357384) 4307 8374 2
(0.281788 0.35824 0.0338717 0.3261) 4262 8286 1
(0.276257 0.362826 0.145386 0.215531) 4251 8268 1
(0.270276 0.355893 0.286993 0.0868372) 4224 8212 1
(0.493289 0.250405 0.156 0.100306) 4203 8210 1
(0.163852 0.337165 0.0679407 0.431042) 4226 8216 2
(0.142407 0.343133 0.0870851 0.427374) 4190 8147 2
(0.344122 0.327997 0.308014 0.0198673) 4164 8098 1
(0.629186 0.18386 0.133207 0.0537466) 4122 8052 1
(0.61402 0.107234 0.0936177 0.185128) 47556 94431 2
(0.4986 0.250804 0.0935389 0.157057) 47601 94522 1
(0.336946 0.340383 0.116212 0.206459) 47693 94793 1
(0.435284 0.195952 0.0940883 0.274676) 47737 94793 2
(0.0913493 0.0646865 0.451054 0.39291) 47779 94965 2
(0.313646 0.34973 0.238625 0.0979992) 47778 94963 1
(0.304851 0.362448 0.0395 0.293201) 47780 94967 1
(0.994146 0.00307806 0.00184294 0.000932626) 47960 95240 1
(0.351094 0.333327 0.201163 0.114416) 47825 94969 1
(0.345332 0.335958 0.238247 0.0804622) 47870 95059 1
(0.190233 0.405119 0.217607 0.187041) 47863 95046 1
(0.516127 0.212022 0.0302459 0.241604) 47866 95052 2
(0.0820539 0.271285 0.203888 0.442773) 47910 95139 2
(0.4326 0.0171911 0.266525 0.283684) 47910 95140 2
(0.483373 0.221225 0.0375976 0.257805) 47914 95148 2
(0.387854 0.306208 0.164245 0.141693) 47952 95226 1
(0.391101 0.31224 0.180633 0.116026) 48042 95491 1
(0.56302 0.00856676 0.218482 0.209931) 48128 95578 2
(0.332359 0.334011 0.227684 0.105946) 48130 95580 1
(0.372255 0.315239 0.279566 0.0329398) 48177 95761 1
(0.18529 0.361976 0.407185 0.0455486) 48221 95764 2
(0.392485 0.371934 0.210693 0.0248871) 48165 95737 2
(0.240083 0.161446 0.218316 0.380155) 48264 95848 2
(0.467131 0.264296 0.0111872 0.257385) 48310 95939 2
(0.149829 0.288398 0.155867 0.405905) 48305 95929 2
(0.479731 0.128413 0.260369 0.131487) 48308 95938 2
(0.260621 0.369837 0.200509 0.169032) 48394 96108 1
(0.217382 0.399884 0.235015 0.14772) 48442 96203 1
(0.531183 0.234563 0.000808669 0.233445) 48526 96386 1
(0.268997 0.365161 0.120425 0.245416) 5405 10543 1
(0.169432 0.140506 0.265396 0.424666) 5409 10550 2
(0.299176 0.232055 0.117809 0.350961) 5386 10505 2
(0.286476 0.275414 0.363049 0.0750607) 5342 10456 2
(0.554996 0.221975 0.175788 0.0472403) 5347 10427 1
(0.0119538 0.0424938 0.495938 0.449615) 5326 10424 2
(0.412243 0.0903079 0.296722 0.200727) 5304 10380 2
(0.192219 0.323106 0.161548 0.323127) 5318 10408 1
(0.560942 0.0497408 0.161497 0.227821) 5276 10284 2
(0.385262 0.255245 0.3271 0.0323924) 5231 10234 2
(0.0753082 0.452267 0.417809 0.0546154) 5222 10176 1
(0.457446 0.110911 0.155769 0.275874) 5226 10184 2
(0.300264 0.0212274 0.350093 0.328415) 5205 10145 2
(0.0954553 0.221886 0.457888 0.22477) 5162 10096 2
(0.233405 0.102957 0.280297 0.383341) 5167 10067 2
(0.468511 0.0811752 0.264367 0.185947) 43386 86179 2
(0.474212 0.263073 0.213095 0.0496187) 43429 86180 1
(0.620226 0.0726724 0.118987 0.188115) 43483 86285 2
(0.883586 0.0309337 0.0574664 0.0280137) 43340 86087 2
(0.782185 0.00144465 0.107422 0.108948) 43611 86541 2
(0.35618 0.120277 0.318269 0.205274) 43515 86437 2
(0.0722302 0.398068 0.0667425 0.462959) 43699 86718 2
(0.145824 0.419143 0.0093749 0.425658) 43693 86706 2
(0.220675 0.344534 0.38311 0.0516798) 43743 86893 2
(0.315115 0.270667 0.076147 0.33807) 43782 86883 2
(0.690513 0.0562581 0.154565 0.0986636) 43597 86516 2
(0.20828 0.17591 0.395385 0.220424) 43642 86606 2
(0.0621099 0.344257 0.125945 0.467688) 43596 86512 2
(0.114481 0.215042 0.241895 0.428582) 43640 86599 2
(0.649705 0.176681 0.113826 0.0597877) 43780 86967 1
(0.0110762 0.495632 0.219616 0.273676) 43595 86510 1
(0.178534 0.111939 0.305125 0.404402) 43641 86601 2
(0.573989 0.172518 0.212368 0.0411253) 43592 86506 2
(0.312435 0.35427 0.156764 0.176531) 43685 86689 1
(0.0312216 0.368566 0.117037 0.483175) 43637 86594 2
(0.0592497 0.470759 0.305353 0.164638) 43637 86596 1
(0.804152 0.0673102 0.0934064 0.0351309) 43684 86775 2
(0.864358 0.0123286 0.080144 0.0431691) 43632 189598 2
(0.210414 0.258131 0.171881 0.359574) 43635 86589 2
(0.0698359 0.329359 0.452173 0.148632) 43820 87047 2
(4.29807e-08 1.94778e-09 0.966818 0.033182) 43632 189598 2
(0.582012 0.173604 0.0456281 0.198755) 43729 86777 2
(0.0728434 0.110119 0.456825 0.360213) 43685 86777 2
(0.111218 0.105898 0.348712 0.434172) 43681 86681 2
(0.269834 0.383009 0.114741 0.232417) 43684 86775 1
(0.224819 0.146432 0.241747 0.387002) 43682 86684 2
(0.315054 0.343096 0.139969 0.201881) 43729 86780 1
(0.0737866 0.463562 0.0412994 0.421352) 43731 86782 1
(0.118191 0.376761 0.425455 0.0795924) 43776 86959 2
(0.350101 0.327014 0.130015 0.19287) 44003 87325 1
(1.84504e-09 1.05912e-09 0.589499 0.410501) 43676 189642 2
(0.204691 0.0575098 0.387392 0.350407) 43678 86763 2
(0.093513 0.238061 0.215378 0.453047) 43722 86764 2
(0.12069 0.497818 0.353107 0.0283846) 43678 86763 2
(0.540552 0.208176 0.0752648 0.176007) 43721 86761 2
(0.129031 0.443502 0.296657 0.13081) 43774 86955 1
(0.647139 0.175906 0.00627658 0.170678) 43722 86764 1
(0.0869016 0.291826 0.455808 0.165465) 43768 86858 2
(0.319542 0.357548 0.292342 0.030568) 43862 87043 1
(0.23992 0.255747 0.148638 0.355695) 43813 86945 2
(0.552344 0.0270044 0.207955 0.212697) 43764 86936 1
(0.339779 0.331117 0.325922 0.00318295) 43953 87226 1
(0.163429 0.354716 0.417712 0.0641435) 43811 86944 2
(0.304958 0.343051 0.0385516 0.31344) 43809 86938 1
(0.582844 0.209153 0.137291 0.0707125) 43810 86942 1
(0.31916 0.173231 0.339874 0.167735) 44099 87520 2
(0.0333349 0.483464 0.126413 0.356787) 43814 86948 1
(0.147574 0.426945 0.224555 0.200925) 43861 87042 1
(0.463758 0.27089 0.198642 0.0667102) 43908 87223 1
(1.61178e-09 0.314706 0.685294 3.61728e-09) 43852 141258 1
(0.292659 0.354456 0.158096 0.194789) 43905 87132 1
(0.277951 0.0474073 0.360773 0.313869) 43951 87224 2
(0.623552 0.133241 0.0552444 0.187962) 44048 87416 2
(0.233481 0.38399 0.129989 0.25254) 43906 87132 1
(0.00389917 0.498663 0.18936 0.308078) 43952 87224 1
(0.338168 0.344703 0.00893722 0.308193) 43996 87399 1
(0.301236 0.349683 0.264378 0.0847033) 43902 87126 1
(0.621472 0.146433 0.184115 0.0479809) 44041 87489 2
(0.0868399 0.45687 0.194636 0.261654) 43948 87218 1
(0.0203286 0.920855 0.0314891 0.0273273) 43940 87200 1
(0.0366267 0.485296 0.216605 0.261472) 44224 87767 1
(0.128585 0.00604199 0.434866 0.430507) 43984 87290 2
(0.489682 0.0759154 0.253499 0.180904) 44088 87583 2
(0.393355 0.0797334 0.234356 0.292556) 43987 87293 2
(0.772952 0.0702448 0.0432868 0.113517) 43986 87292 2
(0.316041 0.0494176 0.338146 0.296395) 44036 87479 2
(0.129571 0.45828 0.192258 0.21989) 44033 87385 1
(0.264384 0.0195705 0.349261 0.366785) 44083 87485 2
(0.123129 0.415385 0.0511306 0.410355) 44080 87479 2
(0.432774 0.283838 0.210367 0.0730213) 44034 87390 1
(0.00572413 0.498148 0.24443 0.251699) 44033 87388 1
(0.391886 0.304119 0.0490738 0.254921) 44082 87484 1
(0.0913798 0.0828507 0.452681 0.373089) 44177 87761 2
(0.0555958 0.0224476 0.449767 0.47219) 44124 87568 2
(0.586665 0.207562 0.0061936 0.199579) 44126 87574 1
(0.369218 0.0791656 0.301995 0.249621) 44074 87555 2
(0.01164 0.460817 0.442318 0.0852249) 44076 87559 2
(0.076909 0.270019 0.438115 0.214957) 44078 87563 2
(0.360585 0.00798382 0.311756 0.319675) 44221 87762 2
(0.330482 0.0129831 0.32353 0.333004) 44118 87555 2
(0.315295 0.320845 0.0225035 0.341356) 44120 87560 2
(0.204123 0.168863 0.239256 0.387759) 44169 87657 2
(0.602024 0.198697 0.181876 0.0174028) 44122 87651 2
(0.275321 0.362777 0.346814 0.0150883) 44120 87562 1
(0.403584 0.259697 0.276563 0.0601558) 44122 87651 2
(0.248951 0.338192 0.374722 0.0381361) 44169 87660 2
(0.498928 0.263323 0.159864 0.0778856) 44168 87655 1
(0.887303 0.0552297 0.052749 0.00471841) 44170 87660 1
(0.247632 0.286117 0.374872 0.0913792) 44165 87652 2
(0.0146441 0.825376 0.0836142 0.0763652) 44116 87640 1
(0.352949 0.323841 0.277916 0.0452945) 44167 87656 1
(0.213415 0.394157 0.101768 0.29066) 44163 87648 1
(0.020181 0.281738 0.229648 0.468433) 44211 87741 2
(0.215303 0.425654 0.27405 0.0849931) 44209 87737 1
(0.21815 0.111353 0.280015 0.390482) 44210 87740 2
(0.811637 0.0898346 0.0938726 0.00465561) 44307 87936 2
(0.71332 0.246719 0.0399609 3.22702e-10) 44204 141610 1
(0.538153 0.248538 0.196221 0.0170885) 44255 87829 1
(0.742298 0.130428 0.121836 0.00543846) 44258 87923 2
(0.330848 0.166286 0.168782 0.334084) 44448 88216 2
(1.34142e-09 6.81545e-09 0.429701 0.570299) 44248 190214 2
(0.503136 0.248917 0.158322 0.0896249) 44249 87818 1
(0.252861 0.274384 0.372804 0.0999506) 44303 87928 2
(0.207897 0.307719 0.368512 0.115872) 44254 87915 2
(0.146707 0.336773 0.420067 0.0964536) 44447 88301 2
(0.163218 0.122337 0.296404 0.418041) 44300 87920 2
(0.369572 0.319932 0.183095 0.127401) 44349 88105 1
(0.681479 0.098809 0.0713211 0.14839) 44296 87911 2
(0.56573 0.217427 0.0909215 0.125922) 44297 87916 1
(0.500083 0.256946 0.224944 0.0180273) 44297 88001 2
(0.112626 0.258678 0.220129 0.408567) 44339 87997 2
(0.305588 0.383349 0.248457 0.0626058) 44340 87999 1
(0.420973 0.176071 0.142711 0.260245) 44338 87995 2
(2.82591e-09 0.532971 0.467029 4.35402e-10) 44336 141742 1
(0.141442 0.438071 0.21632 0.204167) 44437 88193 1
(0.334918 0.0280222 0.30782 0.32924) 44385 88089 2
(0.153769 0.423562 0.333076 0.089592) 44390 88100 1
(0.596037 0.2102 0.0569973 0.136766) 44428 88175 1
(0.724426 0.156865 0.072178 0.0465317) 44426 88171 1
(0.00543989 0.498076 0.223952 0.272533) 44432 88186 1
(0.486538 0.0563065 0.252418 0.204737) 44431 88269 2
(0.0761537 0.470539 0.23409 0.219217) 44481 88369 1
(0.220688 0.391286 0.0219629 0.366064) 44477 88273 1
(0.288854 0.3768 0.174009 0.160337) 44473 88265 1
(0.456687 0.10971 0.18279 0.250813) 44470 88259 2
(0.314105 0.343659 0.0050818 0.337154) 44478 88276 1
(0.0799416 0.468543 0.382309 0.0692059) 44473 88353 1
(0.212693 0.0463129 0.347484 0.39351) 44612 88544 2
(0.082269 0.475874 0.188447 0.253409) 44519 88357 1
(0.440003 0.285546 0.00147271 0.272979) 44749 88905 1
(0.409496 0.110779 0.184846 0.294879) 44517 88354 2
(0.192209 0.40389 0.38711 0.0167909) 44701 88724 1
(0.116071 0.442577 0.425675 0.0156774) 44746 88814 1
(0.612679 0.207531 0.129431 0.0503589) 44606 88531 1
(0.184471 0.00266534 0.405101 0.407763) 44563 88446 2
(0.632032 0.190109 0.0776855 0.100173) 44564 88447 1
(0.277413 0.175374 0.36934 0.177873) 44556 88434 2
(0.121882 0.43961 0.35815 0.0803585) 44564 88450 1
(0.260298 0.369979 0.296683 0.0730394) 44609 88540 1
(0.254589 0.372867 0.0230932 0.349451) 44564 88448 1
(0.605848 0.0201348 0.177022 0.196995) 44699 88718 2
(0.255238 0.373276 0.076809 0.294677) 44605 88532 1
(0.131676 0.434112 0.33624 0.0979716) 44745 88812 1
(0.690462 0.0453703 0.110104 0.154064) 44791 88901 2
(0.0822519 0.460035 0.228985 0.228728) 44606 88534 1
(0.457953 0.259027 0.0125083 0.270512) 44698 88716 2
(0.164293 0.42698 0.391132 0.0175949) 44601 88609 1
(0.107331 0.44605 0.362047 0.0845721) 44652 88626 1
(0.362045 0.34452 0.245094 0.0483409) 44650 88619 1
(0.461865 0.172339 0.262051 0.103745) 44700 88807 2
(0.3175 0.341439 0.298934 0.0421271) 44649 88620 1
(0.324568 0.0100686 0.336591 0.328772) 44648 88703 2
(0.0492264 0.498678 0.426965 0.0251305) 44649 88705 2
(0.467358 0.266457 0.185468 0.0807176) 44697 88716 1
(0.459171 0.322043 0.188473 0.0303133) 44689 88785 2
(0.050722 0.26318 0.473972 0.212126) 44830 88982 2
(0.0768388 0.380584 0.460576 0.082001) 44738 88798 2
(0.187861 0.406774 0.193165 0.212201) 44736 88794 1
(0.194773 0.410076 0.032289 0.362863) 44781 88881 2
(0.0476404 0.482535 0.435306 0.0345182) 44738 88883 2
(0.431445 0.0856607 0.198933 0.283962) 44966 89252 2
(0.478148 0.261694 0.218984 0.0411743) 44828 88976 1
(0.144316 0.446015 0.38973 0.0199388) 44920 89159 1
(0.619997 0.189922 0.100988 0.0890925) 45010 89342 1
(0.181383 0.211019 0.216606 0.390992) 44870 89059 2
(0.300119 0.365521 0.161626 0.172734) 44871 89149 1
(0.0863503 0.026576 0.456556 0.430518) 44910 89142 2
(0.75389 0.12902 0.086822 0.0302679) 44917 89153 1
(0.0124988 0.353039 0.492703 0.14176) 45004 89330 2
(0.266192 0.367099 0.116227 0.250482) 45106 89534 1
(0.240399 0.313626 0.364385 0.0815901) 44963 89333 2
(0.321807 0.0469466 0.336762 0.294484) 45007 89421 2
(0.478059 0.120557 0.250803 0.150581) 44958 89323 2
(0.451655 0.182189 0.25835 0.107806) 44958 89323 2
(0.0162073 0.49174 0.100905 0.391147) 45051 89422 1
(0.166115 0.417809 0.0487563 0.36732) 45002 89326 1
(0.0347378 0.483398 0.407597 0.0742667) 45096 89512 1
(0.156558 0.0722842 0.414647 0.356511) 45001 89409 2
(0.864307 0.0673163 0.0445171 0.0238596) 45047 89416 1
(0.077415 0.01586 0.445676 0.461049) 45238 89795 2
(0.104431 0.180914 0.267417 0.447238) 45044 89408 2
(0.784413 0.113078 0.0224395 0.0800693) 45093 89593 1
(0.753715 0.123545 0.0124701 0.110269) 45048 89418 1
(0.19881 0.428856 0.0704756 0.301858) 45047 89501 1
(0.37584 0.267153 0.078389 0.278618) 45131 89581 2
(0.0444358 0.10651 0.477236 0.371819) 45134 89590 2
(0.013583 0.556406 0.0702525 0.359759) 45087 89581 1
(0.078542 0.473887 0.253368 0.194202) 45137 89681 1
(0.109268 0.44578 0.0891103 0.355842) 45182 89684 1
(0.0550372 0.502919 0.192294 0.24975) 45133 89673 1
(0.349568 0.131726 0.326236 0.192469) 45224 89770 2
(0.51868 0.240411 0.203257 0.0376517) 45180 89682 1
(0.550001 0.225225 0.133094 0.09168) 45180 89682 1
(0.0452719 0.495215 0.377552 0.0819605) 45272 89863 1
(0.392255 0.28578 0.278954 0.043011) 45222 89851 2
(0.230256 0.386818 0.0208463 0.36208) 45263 89848 1
(0.162441 0.422811 0.12141 0.293339) 45362 90043 1
(0.285944 0.0648619 0.352979 0.296215) 45269 89945 2
(0.66922 0.216114 0.00406268 0.110604) 45305 89929 2
(0.389051 0.305836 0.110285 0.194827) 45454 90230 1
(0.52189 0.249606 0.0367097 0.191794) 45359 90125 1
(0.414934 0.292788 0.112239 0.180038) 45404 90128 1
(0.429769 0.00422428 0.28464 0.281367) 45405 90217 2
(0.00826332 0.40796 0.0892799 0.494496) 45401 90122 2
(0.226728 0.299997 0.0966713 0.376604) 45494 90307 2
(0.0599248 0.471624 0.08395 0.384501) 45542 90403 1
(0.188248 0.406731 0.0670731 0.337948) 45399 90120 1
(0.392494 0.307412 0.0614213 0.238672) 45446 90211 1
(0.30465 0.0336756 0.347756 0.313919) 45445 90212 2
(0.573618 0.217531 0.0572936 0.151557) 45445 90209 1
(0.43675 0.147703 0.271228 0.144318) 45444 90295 2
(0.427924 0.109644 0.176486 0.285945) 45491 90302 2
(0.821773 0.0460018 0.087512 0.0447133) 45538 90483 2
(0.62153 0.168899 0.0206921 0.188879) 45488 90296 2
(0.0494432 0.475769 0.148531 0.326256) 45539 90398 1
(0.535665 0.236746 0.0739606 0.153629) 45583 90573 1
(0.0656064 0.468641 0.0149074 0.450845) 45532 90383 1
(0.0285821 0.016665 0.484849 0.469904) 45535 90477 2
(0.486039 0.0390286 0.255258 0.219674) 45535 90477 2
(0.517833 0.241452 0.0567604 0.183955) 45531 90384 1
(0.159998 0.420105 0.0385257 0.381371) 45529 90378 1
(0.358694 0.069806 0.257704 0.313796) 45572 90463 2
(0.457368 0.281561 0.166997 0.0940749) 45578 90475 1
(0.414384 0.293637 0.199454 0.0925254) 45573 90466 1
(0.181648 0.409534 0.139913 0.268905) 45576 90472 1
(0.436763 0.281631 0.0766094 0.204997) 45670 90660 1
(0.421316 0.290007 0.251541 0.0371363) 45617 90554 1
(0.151541 0.409407 0.398412 0.0406399) 45621 90649 2
(0.670469 0.161409 0.159495 0.00862709) 45714 90835 2
(0.189799 0.405983 0.372848 0.0313694) 45664 90648 1
(0.329202 0.335543 0.277519 0.0577365) 45662 90646 1
(0.306344 0.217156 0.33372 0.14278) 45665 90737 2
(0.130525 0.197921 0.434539 0.237015) 45707 90736 2
(0.691221 0.154742 0.136553 0.0174833) 45759 90838 1
(0.526295 0.00982407 0.236725 0.227155) 45709 90740 2
(0.12722 0.450015 0.229815 0.19295) 45709 90825 1
(0.0806287 0.416819 0.458679 0.0438726) 45750 90822 2
(0.245816 0.395187 0.165845 0.193153) 45751 90909 1
(0.569195 0.215642 0.118131 0.097032) 45793 90908 1
(0.105286 0.447794 0.196188 0.250733) 45847 91014 1
(0.273307 0.416535 0.00800298 0.302155) 45835 91077 1
(0.2846 0.288137 0.0949416 0.332322) 45882 91083 2
(0.0863335 0.180004 0.456431 0.277231) 45883 91088 2
(0.64121 0.179706 0.045697 0.133387) 45882 91086 1
(0.699405 0.0154907 0.149248 0.135856) 45885 91177 2
(0.388522 0.30579 0.0212078 0.28448) 45882 91084 1
(0.719907 0.0215094 0.119033 0.139551) 45934 91188 2
(0.0336816 0.377769 0.106635 0.481914) 45928 91176 2
(0.589586 0.135316 0.198475 0.0766235) 45931 91269 2
(0.190745 0.414775 0.237021 0.157458) 45977 91273 1
(0.37772 0.311766 0.0121386 0.298375) 45976 91274 1
(0.752473 0.0498634 0.123675 0.0739883) 45973 91268 2
(0.366065 0.317957 0.0119233 0.304055) 46016 91351 1
(0.564694 0.0653676 0.217916 0.152022) 46017 91356 2
(0.753538 0.123622 0.11724 0.00560027) 46063 91533 1
(0.00284506 0.499388 0.115175 0.382592) 46059 91440 1
(0.664776 0.0179693 0.166925 0.15033) 46065 91537 2
(0.0825333 0.464874 0.324672 0.127921) 46064 91535 1
(0.745261 0.127794 0.0381759 0.0887697) 35262 69852 1
(0.00336348 0.509561 0.470917 0.0161584) 42518 84355 1
(0.448647 0.145291 0.130786 0.275275) 42609 84538 2
(0.378386 0.236052 0.0782863 0.307277) 41761 82841 2
(0.138569 0.0551815 0.430833 0.375417) 41793 82908 2
(0.266358 0.326015 0.365984 0.0416442) 41942 83206 2
(0.491465 0.254367 0.233897 0.0202721) 41841 83004 1
(0.819288 0.0015603 0.0888607 0.0902911) 41931 83182 2
(0.346391 0.30229 0.287359 0.0639596) 41787 82981 2
(0.10851 0.0847787 0.44443 0.362281) 41785 82892 2
(0.804596 0.101507 0.0744283 0.0194693) 41927 83173 1
(0.220381 0.0100895 0.382337 0.387192) 41785 82889 2
(0.000979891 0.534957 0.245978 0.218085) 41788 82895 1
(3.03203e-08 0.679496 0.320504 3.32751e-08) 41784 139190 1
(0.481606 0.26166 0.0317196 0.225014) 41880 83079 1
(3.2841e-08 6.22325e-08 0.887821 0.112179) 41784 187750 2
(0.772062 0.114177 0.0213202 0.09244) 41974 83270 1