/*--------------------------------*- C++ -*----------------------------------*\
  =========                 |
  \\      /  F ield         | OpenFOAM: The Open Source CFD Toolbox
   \\    /   O peration     | Website:  https://openfoam.org
    \\  /    A nd           | Version:  7
     \\/     M anipulation  |
\*---------------------------------------------------------------------------*/
FoamFile
{
    version     2.0;
    format      ascii;
    class       scalarField;
    location    "0.125/lagrangian/reactingCloud1";
    object      tTurb;
}
// * * * * * * * * * * * * * * * * * * * * * * * * * * * * * * * * * * * * * //


1058
(
0.00051485
0.00628062
0.000244502
0.00041035
0.006161
0.006209
0.006137
0.002357
0.006113
0.001065
0.002324
0.006089
0.00121782
0.00234458
0.005921
0.005969
0.0031415
5.035e-05
0.00188935
0.00211774
0.002144
0.005825
0.005753
0.005777
0.000604174
0.0050197
0.0013087
0.005633
0.005609
0.005585
0.0017756
0.005561
0.005513
0.00176233
0.005465
0.005441
0.00197355
0.005417
0.0001817
0.00061905
0.000292
0.005129
3.3e-05
0.005057
0.00134105
5.385e-05
0.00151376
0.00126822
0.005009
0.00021955
0.005033
0.00144584
0.001228
0.00491262
0.00116911
0.004913
0.004889
0.00038735
0.0004607
0.001553
0.001529
0.001505
0.001481
0.00088105
4.87e-05
0.001409
0.001385
0.001361
0.001337
0.001313
0.001289
0.001265
0.001241
0.000496683
0.001193
0.001169
0.001145
0.001121
0.001097
0.001073
0.001049
0.001025
0.001001
0.000977
0.000953
0.000929
0.000905
0.000881
0.000857
0.000833
0.000809
0.000785
0.000761
0.000737
0.000713
0.000689
0.000665
0.000641
0.000617
0.000593
0.000569
0.000545
0.000521
0.000497
0.000473
0.000449
0.000425
0.000401
0.000377
0.000353
0.000329
0.000305
0.000281
0.000257
0.000233
0.000209
0.000208625
0.000185
0.000161
0.000137
0.000113
8.9e-05
6.5e-05
4.1e-05
1.7e-05
0.00042885
0.00164601
0.002945
0.000502593
0.002873
0.002849
0.002825
0.002753
0.002705
0.002729
0.002681
0.002657
0.002633
0.00034205
0.002585
0.002537
0.0005612
0.002513
0.002489
0.002441
0.002417
0.0010385
0.00020235
0.002393
0.002321
0.002345
0.002273
0.002297
0.002225
0.002249
0.002201
0.002177
0.00178905
0.002129
0.0001532
0.002081
0.002105
0.002057
0.002033
0.002009
0.001985
0.001961
0.00196062
0.00083105
0.001937
0.000501336
0.001865
0.001889
0.001841
0.001817
0.001793
0.001769
0.000331779
0.001721
0.000279
0.001673
0.001649
0.001625
0.001601
0.00023374
0.000181241
9.9e-05
0.00035985
0.003953
0.003977
0.003905
0.00379435
7.50717e-05
0.00011705
0.003881
0.003809
4.505e-05
0.003785
0.00376062
0.00048485
0.003761
0.003665
0.0020252
0.003713
0.000481261
0.003737
0.003497
0.003545
0.003473
0.003449
0.003617
0.003521
0.003425
0.00167183
0.000648
0.003353
0.0016412
0.00332862
0.003401
0.00233885
0.003377
0.003233
0.0003912
0.00325662
0.003209
0.003257
0.000635845
0.0003572
0.003185
0.003281
0.003041
0.003113
0.0013052
0.002969
0.003089
0.003137
0.003017
0.002897
0.002993
0.0017455
0.004841
0.004817
0.00122622
0.00120555
0.00089
0.004721
0.000882164
0.00012335
0.000909
0.000871816
0.004601
0.0034727
0.00040755
0.004649
0.00114605
0.004577
0.004553
0.004481
0.004505
0.000686038
0.000711233
0.004385
0.000616
0.000175
0.004409
0.00237511
0.004361
0.000548813
0.004313
0.000548187
0.004265
0.000694628
0.0006177
0.000384624
0.00045305
0.00109765
0.004097
0.004049
0.004073
0.000510241
0.000320129
0.000324312
0.000455
0.000215298
0.00148785
0.00357024
0.0017327
0.00027705
0.0026817
0.00339355
0.002628
0.00304685
0.00351085
0.00306609
0.00043135
0.003357
0.0033802
0.00229055
0.0034917
0.0014242
0.0025102
0.00291681
0.00017985
0.00406009
0.00181235
0.00334605
0.0021832
0.0052452
0.0014772
0.000325204
0.0015562
0.0020957
0.0020575
0.0008992
0.0026715
0.00231905
0.00402485
0.00370955
0.00230955
0.000235712
0.0019607
0.00755955
0.006569
0.00136605
0.0006612
0.0076736
0.000228184
0.00030135
0.00488735
0.00128421
0.00340105
0.00479135
0.00483935
0.00282
0.00362835
0.00343055
0.0021817
0.0028785
0.00279818
0.00105905
0.00062205
0.0038697
0.0009882
0.00302085
0.00367535
0.00455135
0.002587
0.0036452
0.00149071
0.00151816
0.006932
0.0030227
0.00174
0.00703
0.00292655
0.00029735
0.00018085
0.0021157
0.00229135
0.00215031
0.0022157
0.00050705
0.00056185
0.00061585
0.0008087
0.0071325
0.00209835
0.00205535
0.00623955
0.00193674
0.00094535
0.0001615
0.005363
0.00385472
0.00144085
0.0002282
0.0016317
0.0036787
0.0001175
0.00050105
0.00119001
0.00018035
0.002403
0.001718
0.00447835
0.010121
0.00051535
0.00055785
0.0006985
0.00139971
0.009977
0.0001567
0.00450285
0.00107805
0.0035015
0.00151035
0.004961
0.00208705
0.002074
0.002689
0.006143
0.00297435
0.000763085
0.00110535
0.0019025
0.00179635
0.00051668
0.009545
0.00213118
0.00377035
0.00311905
0.00304574
0.00559368
0.0059435
0.0006427
0.0022585
0.0017105
0.00360235
0.0039752
0.00090325
0.00288735
0.00274205
0.00355435
0.00282335
0.00149105
0.00341151
0.00277535
0.00181405
0.0002082
0.00113085
0.00130353
0.00225885
0.00256435
0.00143057
0.0016195
0.009041
0.00329035
0.001897
0.00280774
0.003977
0.008969
0.00317035
0.00050635
0.008849
0.0002342
0.00302635
0.00033
0.000941771
0.00453555
0.00111185
0.0002375
0.00198827
0.00039685
0.00434355
0.00200735
0.0047727
0.00193535
0.00187854
0.00195005
0.00254635
0.00074435
0.00252235
0.00113179
0.0011207
0.000407185
0.00122155
0.008177
0.00164285
0.00321432
0.008129
0.002071
0.003089
0.00426008
0.004538
0.00424158
0.007961
0.00024385
0.00171435
0.007889
0.0018377
0.00415501
0.00206635
0.00186
0.007745
0.00392835
0.00021355
0.003502
0.007577
0.00322905
0.001028
0.00053035
0.0016747
0.000944771
0.0018057
0.0010467
0.00161035
0.00026985
0.0002975
0.00156235
0.00153835
0.000784824
0.00124985
0.00151435
0.00126826
0.00105885
0.00075935
0.00134109
0.000399
0.00071135
0.007145
0.00325735
5.93231e-05
0.00617557
0.00314417
0.00128405
0.007025
0.001985
0.00114285
0.00049535
0.006953
0.00312829
0.00313501
0.00164355
0.0030715
0.001809
0.006833
0.006809
0.006737
0.0002065
0.0048572
0.006641
0.00015935
0.006617
0.001569
0.006593
0.00161761
0.00177455
0.0027558
0.00017485
0.0003867
0.00230355
0.006473
0.0025565
0.00266105
0.006377
0.00048335
0.00171385
0.0107317
0.002232
0.0059925
0.00395064
0.0032517
0.00014605
0.00632285
0.00466305
0.0015867
0.002978
0.00375185
0.00554335
0.00020635
0.000822695
0.002066
0.0036805
0.0072337
0.0036912
0.00033485
0.003954
0.0004157
0.000944989
0.00283109
0.0010712
0.00222105
0.0002962
0.0012755
0.0054517
0.00291185
0.00601631
0.0047572
0.00469555
0.00556655
0.0036832
0.005312
0.0015442
0.00442635
0.00427635
0.00192189
0.00116055
0.00249185
0.00498365
0.00534555
0.00299385
0.0034782
0.0015462
0.00376785
0.0042905
0.00520905
0.0049207
0.00401562
0.0051687
0.0003127
0.00300405
0.00158055
0.00172105
0.00163355
0.0026487
0.00543835
0.00595535
0.0054492
0.00461005
0.00396085
0.002801
0.0021647
0.00230135
0.00072005
0.00603755
0.000593
0.00191755
0.00338885
0.00435955
6.955e-05
0.00227635
0.00340371
0.00363785
0.00215055
0.00218285
0.00415605
0.00072355
0.00420635
0.0022682
0.00429085
0.0011785
0.00333721
0.0027125
0.0003485
0.00483359
0.00573685
0.00281305
0.00387922
0.0043662
0.00232822
0.003843
0.0013275
0.00102685
0.00296185
0.0032815
0.004498
0.00242535
0.00525135
0.00234009
0.00462455
0.00522035
0.0020275
0.0032805
0.00109155
0.002778
0.0025045
0.00450255
0.0025477
0.00551169
0.0033427
0.00494305
0.001566
0.003853
0.00205056
0.0011667
0.0019582
0.00473855
0.0004887
0.00061885
0.0056912
0.002824
0.00384221
0.0045092
0.00369935
0.000108
0.0052087
0.00481385
0.0024447
0.000180122
0.0024192
0.0051695
0.00143785
0.0052345
0.00319105
8.505e-05
0.00454075
0.00468605
0.00171
0.00311515
0.00054155
0.00021935
0.0029457
0.003926
0.00488705
0.0008937
0.00191405
0.0011777
0.0025767
0.00351559
0.0026547
0.00122135
0.00342405
0.00472685
0.00383185
0.00518205
0.0048062
0.00126955
0.00015885
0.0015897
0.00162969
0.00277805
0.00103105
0.0020637
0.00539235
0.0046642
0.0045442
0.00054605
0.00496721
0.002434
0.002669
0.00201535
0.00097105
0.00561285
0.0041387
0.00323385
0.00176705
0.00512105
0.00123085
0.0020385
0.0050567
0.00413401
0.00372555
0.00335555
0.00044055
0.00132135
0.00544085
0.00591571
0.0034307
0.00396285
0.00282613
0.0027702
0.00370105
0.000719
0.00315005
0.0033522
6.27e-05
0.006721
0.0021892
0.0048287
0.001177
0.004428
0.0048892
0.00217471
0.00150155
0.000256
0.00248514
0.00104455
0.0013315
8.09971e-05
0.0003905
0.00383805
0.00235535
0.00097635
0.0032645
1.855e-05
0.0046942
0.0027797
0.00110405
0.0010972
0.0001932
0.00038685
0.000819
0.000823496
0.0041927
0.00105305
0.00176635
0.00171835
0.00103669
0.00452677
0.0037352
0.00299005
0.0031042
0.0024857
0.0008212
0.00503126
0.0019237
0.00015655
7.42e-05
0.00609705
0.0017252
0.00144105
0.0016532
0.00342435
0.00174305
0.00327635
0.00339771
0.0021827
0.0015615
0.00043755
0.0034727
0.0024477
0.0016982
0.0021107
0.00830455
0.0010237
0.0042
0.00278205
0.00100885
0.00022755
0.00227078
0.00315255
0.00010885
0.0018145
0.00198585
0.00221305
0.0002602
0.00103335
0.00525405
0.00055185
0.0063132
0.00325772
0.00207749
0.00429155
0.000942615
0.00431677
0.00270035
8.47e-05
0.00358981
0.0050972
0.00328405
0.0029187
0.0040753
0.0004715
0.004254
0.001756
0.00436112
0.00846051
0.00447262
0.00362555
0.00290751
0.00428472
0.00202931
0.0030832
0.0044415
0.0067517
0.00332332
0.00403902
0.00176249
0.0102317
0.00821199
0.000371355
0.0041762
0.00955064
0.0035682
0.0053007
0.0063962
0.00708535
0.00724986
0.00695053
0.00308726
0.0015675
0.0086712
0.00334253
0.0073397
0.00936171
0.00857836
0.0049887
0.0082472
0.008387
0.00261685
0.0073202
0.0060442
0.0004035
0.00913635
0.00152599
0.0030875
0.00919085
0.00892813
0.0025015
0.0046157
0.00963135
0.00030605
0.00868131
0.00817935
0.0034245
0.00311433
0.0059587
0.00294455
0.0094335
0.0089192
0.00544188
0.00337305
0.0070702
0.00795805
0.007654
0.00464655
0.0069187
0.00648855
0.00540585
0.00245343
0.00059367
0.008528
0.00647435
0.000212365
0.00810034
0.00757113
0.0043297
0.0053442
0.00191348
0.0070712
0.00680042
0.0045827
0.00581993
0.00894455
0.0013722
0.0061609
0.00421689
0.00473471
0.00144729
0.00514335
0.00240655
0.008502
0.00635155
0.00050785
0.00453127
0.00545128
0.0069017
0.00757
0.00732185
0.000155178
0.00740735
0.00225985
0.00309035
0.00528485
0.00650485
0.00285708
0.00837205
0.007599
0.000850705
0.00740757
0.00779185
0.006543
0.0064692
0.00560885
0.006615
0.0023027
0.00155859
0.001319
0.00663805
0.00837303
0.0039827
0.00431985
0.0078417
0.00307285
0.0031402
0.0020135
0.0031027
0.0072265
0.00634385
0.0056977
0.0019947
0.0004092
0.0068662
0.0069502
0.0016397
0.00609197
0.00216319
0.0032592
0.0006097
0.00303885
0.0026097
0.0073962
0.00397885
0.0052532
0.00713471
0.00597135
0.00752118
0.00667935
0.00422105
0.002466
0.0045967
0.00391205
0.00283235
0.0052665
0.0034242
0.00762455
7.635e-05
0.00335935
0.0002052
0.00037385
0.00535233
0.00507765
0.002399
0.004166
0.00104443
0.00102105
0.0075155
0.00257805
0.00477255
0.00141805
0.006914
0.00239935
0.00364271
0.00464712
0.00155
0.0027915
0.00114855
0.00527905
0.0020742
0.00028685
0.0039165
0.00320601
0.00740505
0.004902
0.00443
0.0056687
0.0006002
0.000993
0.0078442
0.00409985
0.0049307
0.00144905
0.00381701
0.0066402
8.27e-05
0.00692021
0.0054065
0.00108869
0.0015447
0.00401585
0.00250885
0.00477257
0.00162668
0.00530355
0.00142185
0.003565
0.005479
0.00207655
0.0056577
0.00262299
0.00677785
0.00146635
0.00514255
0.00576985
0.00352872
0.0029247
0.00194535
0.00315221
0.00283685
6.635e-05
0.00287205
0.0017685
0.0020382
0.000352703
0.0068957
0.00508605
0.00642855
0.0082417
)


// ************************************************************************* //
