/*--------------------------------*- C++ -*----------------------------------*\
  =========                 |
  \\      /  F ield         | OpenFOAM: The Open Source CFD Toolbox
   \\    /   O peration     | Website:  https://openfoam.org
    \\  /    A nd           | Version:  7
     \\/     M anipulation  |
\*---------------------------------------------------------------------------*/
FoamFile
{
    version     2.0;
    format      ascii;
    class       vectorField;
    location    "0.125/lagrangian/reactingCloud1";
    object      U;
}
// * * * * * * * * * * * * * * * * * * * * * * * * * * * * * * * * * * * * * //


1058
(
(371.123 -2.42983 -3.19512)
(440.907 -0.0303665 -2.38748e-07)
(436.171 -11.183 -1.40917)
(442.602 -1.66328 3.17807)
(440.86 -0.0266133 4.92718e-06)
(440.46 -0.0551441 -1.24233e-06)
(440.773 -0.030525 -2.24412e-06)
(445.218 -7.82852 1.70097)
(440.826 -0.0246157 -1.33814e-07)
(440.154 4.85463 -0.443366)
(433.076 0.736848 2.54075)
(440.268 -0.0604647 -5.62802e-06)
(423.802 -2.98922 -5.7796)
(419.355 -12.0828 -0.67245)
(440.585 -0.0186904 -1.34609e-06)
(440.071 -0.0569307 -1.47276e-05)
(444.285 -8.81616 3.30416)
(438.543 1.85625 -3.50419)
(428.57 6.99691 -5.83283)
(433.958 -0.255845 0.00415508)
(430.285 -0.631828 -0.228501)
(440.213 -0.0242481 2.335e-07)
(440.139 -0.0141683 2.11463e-06)
(439.863 -0.017289 -9.60438e-07)
(403.612 -0.333149 -0.4205)
(441.434 -14.6041 -14.8369)
(378.494 4.85461 -17.3815)
(440.062 0.00350989 1.7966e-07)
(439.983 0.0113077 -1.96892e-06)
(439.787 0.034439 -3.37032e-05)
(425.926 0.146384 1.27037)
(439.425 0.0796415 -5.28196e-06)
(439.372 0.106667 -3.20288e-06)
(436.536 -6.16633 1.54506)
(439.576 0.0838153 3.29812e-06)
(439.65 0.0590987 -1.6725e-05)
(427.209 -1.67403 4.0144)
(439.304 0.156895 -1.49409e-07)
(411.426 -1.68843 -1.39054)
(395.559 3.51847 0.388129)
(415.464 0.237156 0.834068)
(437.968 0.62255 -1.60637e-05)
(440.634 8.16235 -1.85869)
(437.78 0.60431 -4.65842e-05)
(433.471 0.9431 -0.0824483)
(412.014 0.0169055 4.08446)
(429.254 1.27192 0.00568121)
(422.717 0.242876 -1.64425)
(437.083 0.844786 -7.40988e-06)
(414.59 0.130182 4.23075)
(436.032 1.23977 -5.94466e-05)
(431.842 -0.411796 -2.02985)
(426.493 -13.5925 7.64355)
(436.411 0.73367 -1.83524e-06)
(426.869 -2.10063 5.06886)
(435.677 1.11641 -1.00982e-05)
(435.368 1.11051 -5.84936e-06)
(86.7118 25.9912 2.04648)
(120.84 26.1608 8.9717)
(127.434 12.9025 0.000321816)
(125.2 17.5625 0.000181555)
(132.3 9.44248 -0.000229524)
(118.905 27.0477 -0.00319565)
(122.814 23.7872 13.0058)
(79.5144 19.6752 14.8144)
(123.248 32.6002 0.000169439)
(127.657 30.4932 0.000341102)
(140.368 6.81698 -0.000246644)
(134.191 27.8754 -0.00428219)
(142.626 9.51997 -0.000374401)
(143.747 11.0835 -0.000126505)
(144.584 20.9657 -0.000298379)
(146.088 24.4157 -0.00058274)
(88.2984 27.8428 -9.64421)
(148.638 7.41183 -0.000319422)
(148.918 1.92903 -0.000163134)
(154.269 27.548 -3.33798e-05)
(151.445 5.041 -1.69686e-05)
(154.409 10.0178 -0.000374766)
(153.593 5.67218 -0.000287493)
(153.738 2.76642 -5.08806e-06)
(156.737 7.6807 -0.000333279)
(155.113 1.53596 4.02048e-06)
(159.783 8.38211 -0.000533335)
(156.837 2.37771 -1.65816e-06)
(157.405 1.01846 5.23072e-05)
(160.679 5.62952 -0.000977176)
(164.799 7.55828 -0.00239714)
(164.108 6.38037 -0.000589256)
(167.795 7.13357 0.00054865)
(161.961 3.58936 9.6062e-05)
(162.405 3.41609 6.72837e-06)
(162.265 2.71377 4.10579e-06)
(164.391 3.59125 -0.000134179)
(162.113 1.29167 -8.60777e-05)
(167.242 1.68635 0.00102516)
(167.937 1.97825 0.000335701)
(164.947 2.45161 0.000204824)
(164.441 2.01411 -9.93146e-05)
(164.916 1.99731 -0.000135322)
(164.697 1.67614 0.000146693)
(164.585 1.45637 0.000101123)
(165.636 1.55919 -0.000302198)
(166.403 0.985118 -0.000529371)
(165.141 1.23931 -6.40895e-05)
(166.145 0.846509 0.000640621)
(165.221 1.04075 -0.00013709)
(165.09 0.87128 -4.26634e-05)
(164.858 0.51945 2.45452e-05)
(165.193 0.769553 7.89272e-05)
(165.451 0.790499 0.000112035)
(165.223 0.597866 -4.10916e-05)
(165.746 0.507974 -4.10669e-05)
(165.788 0.327625 8.59735e-05)
(165.632 0.576865 2.76382e-05)
(165.735 0.23818 -2.40608e-05)
(165.386 0.447628 -1.0671e-05)
(165.707 0.22438 -8.19937e-06)
(165.489 0.529094 5.59009e-05)
(165.493 0.460851 2.17843e-05)
(165.576 0.56653 4.61699e-05)
(165.637 0.0536806 9.56133e-05)
(165.539 0.257705 1.1681e-05)
(165.607 0.312298 -4.73248e-06)
(165.601 0.351334 1.08287e-05)
(29.7914 -3.61203 1.09687)
(100.911 -16.9136 -0.0143901)
(110.126 -17.6691 -2.27193e-05)
(107.051 -16.322 -0.00749224)
(116.928 -17.1314 2.40749e-05)
(118.495 -16.3699 0.000934793)
(111.896 -15.8184 0.00254787)
(119.898 -13.2682 0.00135126)
(124.214 -9.46408 -5.63541e-05)
(108.752 -13.8294 0.000944117)
(120.157 -10.8488 -5.08524e-05)
(128.491 -1.6009 -0.000476153)
(127.28 -2.79522 -3.82401e-05)
(77.7679 -10.9524 -0.722456)
(118.929 -8.50831 0.000898309)
(114.505 -8.69446 6.26284e-06)
(90.45 -16.9316 0.234503)
(120.332 -5.71742 1.60452e-06)
(120.356 -5.12708 0.00100931)
(107.147 -7.75182 0.00135419)
(105.907 -7.35683 0.000444412)
(85.8618 -9.26443 -6.59529)
(89.7271 -6.03005 10.4027)
(106.955 -6.67458 0.00296077)
(112.32 -4.17113 0.000916454)
(103.468 -5.61175 0.00187356)
(120.143 -1.23375 3.03459e-06)
(97.615 -4.34433 0.00132001)
(116.454 -1.66672 0.000330163)
(105.055 -2.99205 0.00246498)
(117.678 -1.1664 3.13719e-05)
(118.51 -0.719902 0.00105571)
(79.7776 -6.98551 -7.54192)
(119.295 -0.116501 0.000575053)
(91.1351 -12.8479 13.9247)
(113.589 1.07125 0.00177855)
(106.962 1.05243 3.53467e-05)
(95.0477 4.0608 0.00301112)
(110.06 2.81412 0.00112508)
(110.652 3.25692 0.001441)
(118.362 2.24953 -2.51397e-05)
(121.797 1.08317 9.2561e-05)
(105.909 5.63619 0.00233641)
(45.3815 14.7109 -8.28856)
(93.5299 9.26193 0.00524336)
(94.2346 5.23807 -6.16705)
(118.07 5.42107 0.000181184)
(111.735 6.99131 -6.88864e-05)
(118.03 6.06197 -9.55125e-05)
(121.858 4.6441 -4.6806e-05)
(125.096 2.21164 0.000171185)
(121.09 7.00718 0.00107307)
(121.89 0.343486 -6.71471)
(118.255 10.9519 0.00245565)
(104.551 18.2296 -10.1727)
(106.591 19.5857 0.00313042)
(113.967 17.5028 0.000980976)
(130.394 1.85026 0.000217183)
(128.975 7.10732 0.000254479)
(325.623 -28.8324 0.92213)
(278.854 -19.4118 4.41499)
(264.72 -13.1592 0.455173)
(83.8381 -24.3315 5.10453)
(334.655 -7.85361 -0.00334578)
(332.185 -11.5104 -0.0032598)
(325.33 -8.48808 -0.000256659)
(265.393 -48.4654 -9.55045)
(318.631 -31.3584 -5.01489)
(317.651 -30.238 -2.22552)
(314.1 -13.1591 -0.00111977)
(303.627 -7.36815 -0.00196995)
(282.837 -39.0489 -1.49934)
(290.72 -12.6342 -0.00103677)
(287.992 -7.66214 0.000117927)
(56.1838 -12.9596 1.13601)
(246.525 -36.7751 -7.27142e-05)
(250.859 -17.5246 -0.000276621)
(186.345 -49.3986 0.62942)
(225.951 -37.4707 0.00115829)
(190.508 -46.2101 8.1418)
(186.768 -44.6604 -0.00104542)
(214.879 -2.1936 -1.02695e-07)
(198.883 -29.2732 0.00176925)
(198.313 -19.6316 6.18408e-05)
(193.835 -18.5341 0.000503672)
(168.425 -40.1939 0.000976566)
(165.127 -35.8438 0.000256285)
(172.095 -28.864 0.00235984)
(131.877 -30.9976 2.89367)
(119.611 -29.8488 -1.10667)
(170.222 -23.2115 0.000904745)
(138.992 -35.0756 0.200498)
(169.758 -21.1248 1.64138e-05)
(157.236 -31.3887 -0.000231465)
(165.658 -47.5855 -32.4682)
(147.045 -31.1872 8.0196e-05)
(158.395 -18.9231 0.00114403)
(117.592 -32.7279 -2.86156)
(146.655 -25.9741 4.19327e-05)
(139.052 -25.6599 0.00222734)
(133.244 -28.2161 6.88313e-05)
(131.151 -33.4386 -5.78615)
(104.819 -21.7834 6.70104)
(135.641 -25.5282 -0.000200559)
(126.205 -28.2032 0.00335243)
(145.803 -11.7697 -2.08279e-06)
(138.375 -21.2493 -3.63772e-05)
(118.814 -26.7898 -3.40181)
(138.115 -13.1338 0.00109374)
(123.088 -22.9056 -0.00029213)
(118.69 -23.8557 -0.000501674)
(127.795 -20.0221 -0.000259278)
(130.183 -14.0952 0.00206827)
(120.225 -20.1013 0.000208008)
(105.467 -21.0565 2.55664)
(434.41 1.23258 -2.60417e-06)
(433.296 1.41164 -2.55215e-05)
(422.885 0.35292 1.54042)
(423.633 2.90665 2.99141)
(424.702 0.368856 2.43963)
(428.925 1.57729 5.85012e-08)
(428.712 3.89156 -2.13878)
(371.159 8.66674 -4.7106)
(427.639 -1.68695 -4.47192)
(418.225 1.22251 4.10835)
(426.879 0.871413 0.000111297)
(431.295 -14.9633 -2.41841)
(428.105 -1.81014 -3.71783)
(425.799 1.37372 1.88989e-05)
(423.725 0.0454283 -9.24085)
(423.78 0.964897 0.000145564)
(419.901 0.864999 3.19708e-05)
(417.165 0.383246 1.93804e-05)
(416.436 0.483278 0.000412242)
(412.421 2.8373 1.65414)
(406.677 3.9835 2.10561)
(413.913 -0.00990076 -9.93767e-07)
(408.357 -2.28716 7.13569)
(396.907 -10.2342 1.8396)
(408.804 -0.321598 9.81441e-05)
(402.785 -6.89668 8.06293)
(402.353 -0.88654 0.000321002)
(404.868 8.83036 3.8186)
(394.819 -1.58929 0.000428241)
(381.185 -6.28684 2.90314)
(390.98 -1.61411 0.00035046)
(386.405 -4.70456 2.60974)
(329.815 -4.24903 0.171887)
(389.706 1.68472 5.82577)
(375.927 -8.35536 2.36502)
(366.643 -3.67981 -0.644706)
(378.621 -0.0174483 2.79662e-05)
(369.766 -0.235342 1.68921e-05)
(364.954 -2.34609 0.000597733)
(323.348 -15.2975 5.78506)
(373.433 -7.54134 -0.335666)
(363.509 -7.33465 4.95678)
(328.339 -11.0892 -0.903655)
(359.666 -7.74841 -2.45504)
(326.962 7.25692 -2.77254)
(334.449 -4.62666 -1.99691)
(296.1 23.4451 -11.3484)
(352.734 -17.1924 -2.24733)
(314.575 6.90199 4.07424)
(325.14 15.9684 -21.6099)
(318.99 6.21376 6.81735)
(343.708 -2.66754 -12.6174)
(319.277 1.79672 -0.503046)
(341.494 1.35323 3.58966)
(392.506 -1.02807 0.10972)
(384.802 0.0454572 2.33936)
(416.582 -2.23154 -1.54069)
(405.763 -0.0358857 2.65402)
(346.452 9.17082 -4.81591)
(423.138 2.17407 -6.96495)
(407.365 8.81287 7.48078)
(437.019 1.54886 -0.0676638)
(401.383 1.22262 0.304859)
(435.134 -0.418535 1.6078)
(427.789 -4.23751 3.17306)
(405.902 1.43684 -0.803815)
(440.237 -16.817 13.4077)
(456.124 -8.79209 -7.9351)
(365.782 -14.2365 18.9606)
(444.573 0.00176187 0.0535202)
(400.582 -1.04596 0.863368)
(400.798 5.22664 -6.51543)
(430.676 -0.293178 0.203029)
(408.465 2.78933 -1.315)
(427.891 -0.802687 -0.907979)
(398.119 -2.06219 0.775352)
(388.915 2.6118 -9.86609)
(368.242 5.17605 -3.80922)
(331.801 2.33071 -9.81963)
(441.521 0.000359285 0.0134583)
(443.367 -0.800344 -1.58678)
(433.567 -6.01492 2.66892)
(444.938 -6.41343 1.71278)
(441.752 -5.2306 -1.72796)
(384.796 25.6146 -8.88078)
(451.783 -9.09099 2.38532)
(431.722 -1.42577 3.75046)
(394.749 0.0435718 -2.84779)
(434.779 -1.49767 5.76551)
(449.918 3.70271 -5.0253)
(372.328 -1.31717 -2.19031)
(443.744 -4.05089 6.41419)
(436.114 -7.68808 9.67466)
(441.523 -5.2261 -2.16282)
(322.021 31.5655 -7.5859)
(439.031 -7.01893 4.65006)
(408.409 1.03752 0.196627)
(382.386 4.53191 6.71106)
(440.165 0.000333432 -0.0358966)
(395.471 13.5401 -4.3853)
(379.056 12.9542 -3.61693)
(338.828 16.9127 4.2848)
(408.956 5.64337 -8.36974)
(377.05 8.44308 -1.58822)
(383.939 0.500744 0.30821)
(430.767 0.271342 -0.081298)
(373.369 -1.28354 4.00896)
(413.302 -3.50592 13.0818)
(444.714 0.281303 -4.32646)
(346.047 -0.908268 -1.45887)
(439.278 -8.30936 -1.69943)
(362.342 15.2865 3.59919)
(441.62 -2.49803 -1.83498)
(444.136 -8.00368 0.948097)
(398.233 1.91679 -11.5207)
(438.835 -0.415212 0.627506)
(392.738 12.7137 -3.37736)
(419.293 -5.99733 -2.39157)
(434.175 -2.06056 0.451212)
(439.218 4.05638 -1.67213)
(403.823 -1.20425 2.33563)
(346.518 0.0341965 -0.390626)
(419.618 -5.2309 1.21204)
(403.69 -4.31322 -8.47821)
(439.019 -2.2995 2.1814)
(431.8 -6.92849 -3.66894)
(438.727 -6.96028 -6.09659)
(369.716 8.83636 -0.518634)
(444.157 -6.99256 3.1667)
(442.1 -1.89471 1.1346)
(406.989 0.0169414 -0.863645)
(435.884 1.15556 -2.07744)
(436.859 -9.58422 -4.24003)
(439.935 -6.1479 9.17956)
(408.396 -5.71029 5.9825)
(420.521 2.77547 -5.9392)
(413.115 -3.34498 32.6026)
(427.521 -8.31203 -4.40741)
(436.976 7.79642 7.30282)
(427.713 -2.19522 -3.20381)
(441.236 -1.73819 1.35835)
(429.034 1.89823 -1.49359)
(437.723 -1.08563 -3.06375)
(441.442 4.03177 -0.81945)
(360.756 1.7785 -3.16355)
(443.029 -0.0201985 -3.21116e-07)
(433.71 0.236431 -0.287192)
(406.191 8.56969 -0.808476)
(339.454 6.53044 -5.60014)
(441.187 0.000685957 0.0488674)
(443.003 -0.0449317 -1.0901e-05)
(398.321 -1.69927 0.258637)
(441.884 -7.99266 -18.9488)
(340.31 -8.59008 -5.18149)
(429.632 -3.87852 0.843884)
(378.595 7.60197 9.13552)
(436.726 -6.03494 1.90551)
(441.871 -1.06653 1.86578)
(440.564 0.266332 -0.436727)
(444.722 -8.36394 -8.82271)
(441.348 -7.54328 -3.10451)
(462.504 -23.7051 7.41647)
(441.502 0.000350684 -0.0118964)
(392.671 2.13016 -10.126)
(441.973 0.186294 -7.61656)
(418.182 3.19239 13.5192)
(442.69 -0.067272 -0.113349)
(442.923 -0.0432151 4.28047e-06)
(423.751 -1.01669 0.895598)
(434.259 -0.676872 -0.13353)
(379.356 4.32003 0.547472)
(425.676 -1.59922 -2.39735)
(438.257 -5.38283 -2.02396)
(445.636 -10.6798 -11.3403)
(413.776 -4.69406 -17.0023)
(439.45 -4.00816 -1.50459)
(395.772 -1.05019 -0.601167)
(437.212 -0.94011 0.394279)
(355.047 5.53085 3.62802)
(442.068 -0.0756071 -0.0201807)
(374.547 0.707706 1.65562)
(339.727 8.01327 -21.187)
(415.547 -3.22945 -5.03404)
(436.581 -0.0622259 0.113225)
(432.599 -0.922682 0.502237)
(440.148 -20.541 16.3259)
(424.623 4.16093 -6.54946)
(422.896 -3.76893 1.95785)
(433.914 -0.989894 -1.63565)
(404.4 -0.303117 -0.711221)
(442.124 0.157661 0.880067)
(382.827 4.5226 10.0997)
(369.349 8.91888 20.9737)
(452.033 -9.1875 -6.63208)
(426.143 -6.52823 5.14919)
(442.962 -0.0136238 7.11316e-07)
(419.389 2.41597 11.1784)
(441.012 -0.0482196 0.0292415)
(405.782 3.11222 8.40772)
(439.893 -5.81199 -0.662509)
(442.494 -0.0315022 -8.52269e-07)
(441.659 -5.68634 2.82787)
(427.718 2.33563 2.18137)
(442.925 -0.00571045 3.21387e-06)
(413.811 -0.152252 0.717042)
(439.719 -2.20804 2.62473)
(443.256 -3.42652 -0.154689)
(439.675 -2.95983 3.55058)
(446.574 -4.55134 12.7224)
(379.873 0.63851 -3.90673)
(448.096 -3.12919 -2.11352)
(399.13 6.57217 -1.96462)
(364.151 -15.0261 10.1116)
(444.429 -4.43487 -0.659363)
(440.913 -1.29302 3.20562)
(441.358 -12.2161 -1.07139)
(437.839 7.90124 2.86301)
(433.209 -19.4937 -1.68434)
(365.509 18.7148 15.2867)
(409.003 9.81091 -5.11909)
(407.335 -3.61893 -1.42832)
(438.691 -5.51148 4.33835)
(441.849 -0.258629 -0.142151)
(413.829 -8.30506 10.4703)
(437.625 7.86718 3.15056)
(404.227 -2.71803 6.04372)
(442.263 -0.011731 -1.00684e-05)
(434.443 -14.2805 10.2318)
(355.07 17.9349 2.51239)
(442.611 0.0103521 -5.85766e-06)
(414.507 -6.97192 7.76719)
(440.661 -1.27759 -2.056)
(454.827 -10.2409 -7.45631)
(436.55 -13.0101 9.39646)
(438.986 -6.52662 -3.49881)
(442.606 0.0164013 -2.34444e-05)
(436.063 -2.61731 12.4751)
(429.52 -13.2102 -4.2148)
(442.373 0.00560384 -4.09782e-05)
(425.04 -19.4258 26.6462)
(436.252 -5.29705 6.81501)
(437.035 0.465748 0.309648)
(400.151 4.48309 -1.9607)
(442.02 -0.00966356 -6.57085e-05)
(435.631 -13.8798 -6.5218)
(394.156 14.3318 6.10551)
(434.731 -0.186407 0.0316257)
(442.491 0.00838574 -2.47437e-06)
(356.747 8.7422 0.537151)
(411.654 4.62354 -1.77281)
(403.64 0.347318 -0.167806)
(403.441 6.95479 -10.2171)
(432.09 -14.9633 -6.96122)
(382.49 2.80652 -8.46591)
(355.252 12.315 -4.54673)
(444.888 -1.84361 0.296108)
(435.667 -7.98538 4.31581)
(443.209 -9.33772 3.4881)
(443.347 3.17068 -4.44014)
(439.134 0.223807 -0.445224)
(427.439 2.52262 3.72259)
(376.472 11.8326 -3.31034)
(434.607 -3.25409 1.11456)
(366.919 19.5323 -6.78098)
(374.079 0.148619 -0.342737)
(439.331 -0.0229961 -3.64766)
(415.743 1.91371 -0.93625)
(423.599 2.92719 5.68008)
(442.307 -1.69065 1.46204)
(442.037 0.00776521 -1.56959e-07)
(434.173 -12.0528 8.38525)
(434.196 -1.14879 6.28675)
(437.24 -12.0109 -2.64655)
(442.238 -4.90065 -0.220952)
(380.441 -4.85883 4.2767)
(441.926 0.00876539 -3.17755e-06)
(438.581 -0.356375 0.467936)
(379.54 -5.20504 1.16607)
(441.872 -0.678607 0.191679)
(441.623 0.00172242 -2.46045e-06)
(438.934 -2.62098 13.0566)
(443.056 -7.63529 4.26772)
(368.823 10.5398 -3.42801)
(450.204 -3.19961 -2.24309)
(441.139 0.0422118 6.51259)
(441.5 0.00614858 -2.40209e-06)
(441.38 0.00387161 -1.72839e-05)
(441.604 0.00451222 4.73106e-06)
(373.421 10.4009 -2.90903)
(447.057 -17.1212 -4.65512)
(441.385 -0.00878852 -3.82303e-06)
(441.043 0.0153616 -0.00369906)
(441.347 -0.0132045 1.3263e-05)
(439.256 -0.181779 -1.33456)
(441.39 -0.0120486 1.03804e-06)
(394.687 3.07118 -14.1604)
(448.466 -23.6834 -6.428)
(428.356 1.15604 1.38675)
(411.5 4.07803 -8.94954)
(416.154 0.172487 -2.58496)
(442.687 -1.54799 0.232404)
(440.806 -0.0523155 -1.0507e-06)
(449.041 -3.13858 8.0894)
(435.599 -1.77782 -1.7821)
(440.772 -0.0438372 -1.97786e-06)
(401.059 -0.910112 0.105582)
(428.542 -7.86952 1.50308)
(250.444 41.8306 0.88039)
(278.02 17.2757 11.1085)
(255.777 39.8247 0.834441)
(304.516 2.11179 6.60849)
(340.464 8.13224 9.988)
(287.876 -1.55406 -1.84854)
(338.609 11.9406 -2.23226)
(308.446 -5.02035 -3.2209)
(374.708 -10.9516 21.6263)
(390.962 5.42675 -6.25487)
(339.956 16.7114 -10.8384)
(388.181 0.080241 -0.0319635)
(382.25 -7.66136 1.7619)
(407.41 -0.0958583 -0.0589523)
(367.257 17.2632 -4.49046)
(390.749 0.178716 0.0274755)
(323.058 0.510234 2.1839)
(393 2.71234 -2.8608)
(397.973 1.41907 0.42466)
(403.34 -5.96147 -14.6006)
(387.398 1.38647 -0.462589)
(391.66 4.53596 2.52056)
(405.106 3.36372 8.0041)
(377.675 0.265338 -0.84384)
(378.574 -0.95325 0.136698)
(318.197 -3.95979 17.917)
(397.935 13.5769 18.9383)
(356.083 0.710422 1.14569)
(397.718 -2.09176 -3.69643)
(395.451 0.371601 0.193436)
(286.332 21.0286 -0.506575)
(375.566 1.88202 2.37331)
(389.541 -4.43707 -0.0782462)
(322.986 17.0249 -23.2731)
(372.971 -3.47075 -1.19843)
(379.44 -9.16612 -3.58781)
(338.121 -2.05999 1.63588)
(334.197 4.16592 4.29324)
(401.437 0.228085 1.88728)
(355.448 -22.7059 27.8771)
(361.818 8.38928 -11.5845)
(396.403 -0.772359 -0.748516)
(386.463 1.03518 1.92013)
(273.55 7.27943 27.651)
(399.354 0.000132114 -0.00652297)
(362.57 14.9626 -5.10352)
(358.576 12.8843 11.0735)
(385.82 -7.84938 16.1787)
(400.404 -2.96924 0.743112)
(398.157 -4.90814 0.141455)
(397.067 5.29923 -1.26626)
(410.717 -5.22573 -9.27126)
(379.486 1.23109 11.4658)
(328.404 15.6347 15.6186)
(381.4 -3.46329 0.126502)
(399.48 2.22905 -10.6297)
(382.007 -2.26606 5.79721)
(361.651 -26.3085 35.6849)
(386.567 -3.01196 -5.90415)
(360.614 6.25386 1.50877)
(396.328 3.93616 2.02561)
(368.778 -11.7877 -3.75667)
(400.167 -0.726648 1.23351)
(398.073 -12.0916 9.43446)
(388.433 -21.6943 -2.76342)
(394.73 0.390114 -0.482141)
(358.835 12.2677 -31.2909)
(299.46 15.6022 1.1186)
(401.458 -0.238816 4.11145)
(404.435 0.00109084 0.051747)
(404.182 0.88486 3.07458)
(353.39 -1.49805 -1.84569)
(398.659 21.4441 5.13845)
(384.867 -0.460402 -0.62506)
(404.263 1.73825 -2.84204)
(359.685 -14.1845 4.38795)
(405.722 -2.21765 -1.47901)
(397.395 0.170548 -2.96026)
(398.707 -0.577317 -0.221685)
(404.354 0.979351 0.354399)
(397.578 -1.22266 -6.31937)
(404.708 -2.24033 -3.31611)
(395.325 -1.78263 -1.42454)
(448.208 -28.7114 8.30246)
(408.375 0.00130824 0.0428739)
(354.315 -0.906337 1.12667)
(373.168 -15.2349 -7.94673)
(411.649 -4.33182 -0.262625)
(404.762 -8.3014 11.2887)
(290.676 26.101 -12.7509)
(411.174 -0.107367 0.0854798)
(412.846 0.658734 -2.13523)
(409.736 6.12594 -0.572333)
(391.465 3.11381 -1.69751)
(418.648 6.11399 -1.62295)
(345.609 0.267241 2.38918)
(309.934 29.1022 4.10336)
(349.677 6.88149 7.90276)
(380.057 -2.3375 -5.10645)
(389.754 -6.42012 5.80325)
(390.223 -1.62622 4.2134)
(407.577 -4.76697 1.14932)
(366.042 -0.760223 1.39673)
(388.82 -1.48839 1.67605)
(351.911 20.9844 20.1158)
(357.045 0.734774 1.90915)
(370.822 -0.954563 -1.33312)
(324.394 -11.9202 13.3998)
(378.563 -0.802045 -2.90132)
(396.547 0.0679741 1.56035)
(414.645 2.70779 -11.8246)
(385.406 6.24091 -1.31565)
(363.916 -0.47072 -0.992359)
(356.987 -2.00791 1.39453)
(412.245 -1.29872 0.128811)
(373.689 1.45381 -1.85476)
(416.054 1.09758 0.191053)
(394.17 -0.986692 -0.284701)
(366.842 11.1358 -6.31593)
(353.401 -1.68192 -1.58115)
(407.413 -1.23131 -1.03212)
(421.146 -17.3067 4.36007)
(413.022 2.15771 5.55695)
(380.57 -1.70383 0.650535)
(420.654 0.619164 1.90296)
(379.483 8.03703 25.0828)
(339.561 -4.43146 3.433)
(384 2.55519 -1.34672)
(401.488 -0.00307039 1.46794)
(366.138 4.05433 -4.48576)
(414.952 0.0014283 -0.0329244)
(428.869 0.0032114 0.0980656)
(306.601 32.5657 -10.947)
(390.529 -8.66836 -1.92231)
(375.74 12.3713 4.22245)
(423.215 -0.0526235 -3.48057)
(404.863 -1.25228 -0.221406)
(374.232 6.57195 0.0467719)
(418.67 -0.763567 -0.436925)
(389.073 1.11542 1.26769)
(423.638 0.706452 12.3185)
(423.651 9.38013e-05 0.00697507)
(367.233 4.14776 -14.0927)
(412.216 0.831563 -0.500435)
(417.365 -0.141707 0.23081)
(414.328 -0.0273706 -2.38697)
(347.203 1.51031 -4.79765)
(358.693 1.10422 0.617728)
(425.621 -9.131 -5.85394)
(401.767 -2.10211 -6.76267)
(416.573 7.27294 -2.34001)
(426.699 0.0445048 -0.158363)
(375.959 6.72269 -2.89082)
(400.235 -1.68788 14.5894)
(342.508 -15.0488 -6.6615)
(374.829 2.67704 3.22314)
(346.695 -12.1216 -1.69832)
(426.114 -0.830946 -1.98342)
(410.724 -6.29593 12.6876)
(430.567 -1.12863 -2.03965)
(405.776 -1.89293 -3.36292)
(379.845 12.1734 11.9194)
(431.099 0.903512 2.11432)
(343.702 1.21766 0.703582)
(310.83 -2.38855 -2.29868)
(411.617 1.80772 -1.63081)
(331.104 17.8419 -17.1547)
(400.025 1.5129 -2.43103)
(402.219 -0.681342 -0.223413)
(398.469 -0.308258 11.0845)
(395.019 2.90923 1.28223)
(358.933 3.52854 -1.5931)
(411.594 -0.0317241 -9.3747)
(432.088 0.669921 0.188744)
(322.542 -1.91472 2.33536)
(333.138 15.1257 -0.36958)
(413.334 -1.13989 1.3045)
(361.393 12.5924 10.1217)
(391.477 2.44029 -2.40986)
(421.106 -5.0902 -3.82721)
(403.207 -9.27198 -4.32826)
(434.047 0.953168 -1.45347)
(433.144 -2.94156 -9.49512)
(434.007 -5.03516 -11.0548)
(300.154 6.02526 -2.54269)
(396.179 -2.82847 0.0773013)
(412.053 14.9842 4.00607)
(331.872 -0.221701 4.9923)
(438.847 -3.61242 -3.6302)
(435.185 -0.00358972 -0.00338176)
(385.311 9.80778 -6.72223)
(362.772 1.05876 5.09787)
(430.586 -2.98346 -9.25561)
(428.94 -0.112841 0.774732)
(395.791 0.7801 4.26236)
(424.424 -1.58953 4.87763)
(404.912 -0.765402 0.378995)
(311.248 14.8626 -16.8943)
(431.779 6.36558 -1.13538)
(436.036 0.238769 -1.28087)
(370.858 -3.96197 6.98587)
(436.266 3.02841e-05 -0.0102782)
(427.321 -2.42119 9.40935)
(374.145 8.32489 -1.98038)
(419.433 -10.9787 2.76123)
(434.518 -0.555272 0.553877)
(385.164 -10.0883 -9.87717)
(414.374 -13.7767 1.58494)
(431.946 -0.9044 -0.130977)
(409.167 0.678333 -0.162716)
(448.71 0.00193361 -0.0941709)
(435.065 -0.15856 0.0610025)
(439.959 -13.709 2.09617)
(436.006 -0.556442 0.0832327)
(379.517 4.84384 -5.95289)
(423.906 0.397227 -3.56952)
(436.873 0.783769 -0.736764)
(429.595 -25.5941 7.84049)
(395.48 2.18826 -6.9319)
(352.762 5.74831 6.63013)
(440.28 -4.83 7.38957)
(373.474 -5.16665 -5.79137)
(395.803 10.2232 -5.67446)
(447.567 0.166208 -11.6869)
(435.768 0.251231 0.986152)
(438.545 0.000462056 0.0125723)
(428.521 0.943952 1.45257)
(381.721 2.22686 -1.46552)
(396.31 13.915 10.7607)
(420.748 -1.16073 0.131611)
(442.947 -5.52005 4.75729)
(444.852 -3.30331 2.80243)
(373.207 1.28505 -1.69401)
(406.991 -0.693541 -0.756344)
(400.943 1.95533 -4.03345)
(340.569 5.84952 -17.4192)
(433.646 -2.54758 -1.87791)
(429.83 -0.780779 5.77306)
(410.332 -4.67459 5.10038)
(395.094 0.213641 -3.51613)
(403.076 -2.53557 -3.91591)
(439.832 -10.5572 -6.71992)
(427.159 -9.25463 7.07993)
(407.279 -0.460749 12.0912)
(408.808 -7.85684 8.81157)
(423.433 -3.60204 2.46756)
(396.233 -1.64592 0.590996)
(415.798 -0.268969 -0.948566)
(442.228 1.55552 -1.59804)
(389.436 8.93057 9.43654)
(421.467 0.497902 0.431178)
(428.486 -8.68974 12.8449)
(431.087 4.736 4.23513)
(392.99 1.06593 0.695909)
(345.376 10.6932 6.28055)
(401.553 3.4764 16.2716)
(439.38 -9.37507 8.56877)
(374.522 -4.40051 0.640611)
(411.202 0.0952677 0.21353)
(443.537 -0.155425 9.75709)
(409.805 -0.876017 -2.35425)
(406.031 -14.0398 -2.7373)
(404.481 -3.82831 -5.88964)
(446.665 -5.43399 8.3186)
(348.38 0.627099 2.83436)
(444.184 1.69028 -2.58749)
(442 0.656314 -0.877742)
(441.514 -1.70191 1.78125)
(438.293 25.647 -6.41601)
(416.162 3.81791 -17.595)
(350.863 11.1384 -23.686)
(340.136 1.73038 2.45127)
(291.849 18.5056 16.8462)
(441.866 0.0469758 -0.157792)
(439.496 9.06646 1.29545)
(371.568 8.49508 22.6072)
(436.653 2.35878e-05 -0.0254574)
(426.71 0.378821 0.208178)
(431.668 -7.83767 -0.886598)
(360.688 5.22309 0.635432)
(439.125 -5.61283 -1.15838)
(331.017 11.0973 14.8503)
(414.64 -11.4281 3.5008)
(341.751 -6.83499 4.41733)
(447.837 -5.84248 1.53744)
(425.807 -2.7523 3.69293)
(425.109 -2.5649 -1.66972)
(447.668 1.64853 3.59244)
(412.646 1.53549 1.1929)
(457.33 -8.0571 -7.37724)
(436.746 -1.12293 -0.843703)
(437.705 -11.8823 1.40264)
(447.465 8.35658 -2.03933)
(442.178 0.000397932 -0.0122297)
(439.228 -5.70298 2.88851)
(425.292 -4.38119 0.286928)
(421.875 1.91661 -1.44241)
(430.935 -10.8607 3.62535)
(407.3 3.22252 0.0244725)
(444.29 0.662888 0.934351)
(345.21 -0.151787 -4.67856)
(340.633 0.016756 0.0442694)
(333.118 1.98795 -14.3944)
(314.178 0.00454846 -0.386436)
(309.787 7.77707 -36.1759)
(348.27 -0.00171888 -0.0211979)
(342.113 -0.0225448 -0.215402)
(322.743 21.9991 14.493)
(355.977 5.17572 0.616719)
(345.465 -1.12712 -2.94286)
(343.787 0.551792 2.17742)
(350.19 0.0428806 -0.735252)
(347.41 0.64678 -0.174799)
(349.201 -0.00148398 -0.000385106)
(349.222 0.113865 -0.00739639)
(347.241 0.00227787 -0.102935)
(338.847 13.5886 3.58128)
(350.647 0.000618387 -0.0166913)
(365.2 4.26863 -7.14296)
(347.974 -0.0015051 -0.0590652)
(331.14 12.3407 2.9438)
(352.569 0.760046 -7.93656)
(338.8 10.144 25.7048)
(351.904 1.77876 1.50329)
(343.737 0.00848201 -1.36397)
(384.553 7.56376 -12.3206)
(350.249 -2.83966 12.3205)
(351.815 0.000600611 -0.0346255)
(345.921 8.48171 20.5068)
(284.942 15.817 10.1018)
(352.212 0.000230285 0.0341897)
(340.242 -6.55911 -1.73817)
(347.105 2.41204 2.72112)
(342.751 5.05144 -5.83589)
(355.172 -0.0319221 6.896)
(354.318 -3.81182e-05 0.0507866)
(348.746 4.62946 7.60793)
(334.971 7.7513 -9.98112)
(333.916 -0.004417 -0.11827)
(342.355 10.4289 2.55085)
(355.23 -3.08392 -3.931)
(354.617 1.66109 -9.6978)
(351.344 1.18503 9.13995)
(349.173 4.52279 0.411087)
(357.937 7.60085 8.03393)
(318.032 12.8109 5.04347)
(386.826 -19.4767 -11.4198)
(337.05 10.9563 -6.07576)
(323.389 26.8665 -26.1117)
(331.011 0.00861214 0.0734156)
(355.477 -0.162794 -0.0598826)
(299.478 13.1358 -2.70811)
(358.619 0.595057 2.13898)
(360.965 0.00408604 -0.0879579)
(357.459 7.26877 5.31425)
(352.702 -4.86189 6.75975)
(379.703 -0.060544 0.0837848)
(356.307 10.1388 -5.54296)
(341.4 7.49781 3.18897)
(306.896 0.00132571 -0.0652312)
(359.552 8.83526 13.0577)
(327.5 13.0327 -22.5691)
(328.518 13.3932 -5.20569)
(353.039 6.45405 1.08097)
(364.473 0.268015 -10.7816)
(353.927 0.257966 7.67503)
(365.426 -2.85908 -5.09904)
(312.353 24.4245 15.6571)
(384.185 0.182717 1.02215)
(355.141 2.46442 1.79269)
(350.274 15.55 -3.0203)
(377.256 -0.144739 0.0874318)
(329.973 16.5181 1.21779)
(348.316 -38.2465 7.13554)
(365.47 0.0593437 2.59413)
(339.443 10.1336 -7.08925)
(344.695 -0.0331654 -0.0126449)
(367.301 -0.000193284 -0.0352789)
(360.06 0.471195 2.124)
(346.113 1.04089 -1.48758)
(361.141 9.76956e-05 0.0144663)
(354.546 -8.48757 -4.51804)
(367.207 18.4433 4.35242)
(302.637 2.52398 0.192117)
(354.304 3.58815 -6.52949)
(357.74 0.609249 0.885059)
(310.692 9.2213 -7.7042)
(333.828 3.78111 9.79889)
(368.093 0.0038456 -0.0371068)
(325.562 5.21239 -2.29981)
(319.487 17.7883 -7.96229)
(365.875 0.00165674 -0.0646383)
(360.783 2.51898 -5.88266)
(355.298 -2.03062 4.87972)
(350.112 -3.50461 0.517439)
(357.471 -6.84079 -9.89274)
(333.474 3.22556 11.1993)
(367.042 1.77847 -2.3573)
(373.568 3.54137 7.34468)
(374.422 0.000503436 0.166758)
(372.354 -0.025506 0.0862033)
(333.927 8.42953 -14.8003)
(373.572 -0.00137681 0.0300781)
(351.566 12.2681 31.4332)
(359.602 5.0342 -5.14722)
(361.055 1.10947 -4.07176)
(300.499 -8.66388 -13.8393)
(361.812 6.57285 -7.31593)
(371.698 7.25418 -8.18299)
(366.77 0.673805 3.55372)
(317.06 8.22932 6.34599)
(340.376 3.50473 4.4469)
(346.442 -0.623067 -6.17762)
(349.132 -5.86294 0.660442)
(330.12 -13.7301 -3.61126)
(368.121 0.00119793 0.0630454)
(362.861 -0.145743 -0.208183)
(372.655 4.08018 -23.1057)
(372.83 0.803047 -0.796397)
(363.524 -0.00903491 0.133292)
(343.241 9.06136 5.93973)
(354.302 2.54427 20.8434)
(370.052 0.00112913 0.093629)
(368.672 4.31155 -11.5051)
(366.13 -1.70091 -3.83528)
(337.864 4.82172 4.99705)
(368.665 2.95438 -0.473865)
(373.093 1.36517 -2.07458)
(372.497 2.34916 0.249616)
(377.501 0.361247 -7.15542)
(348.376 0.363322 0.54266)
(356.147 4.63667 -11.7716)
(365.059 0.593618 -1.18021)
(374.509 -1.28425 4.84485)
(371.061 -0.593251 0.225593)
(360.608 -7.78809 6.37656)
(337.295 -4.09081 24.059)
(370.865 -15.9907 -38.2072)
(326.884 6.60514 -0.099556)
(370.122 2.83892 1.63659)
(359.404 -5.20398 -23.0758)
(349.362 6.01531 -2.91561)
(386.764 16.7562 12.1241)
(373.715 -0.0683676 -0.0114944)
(370.365 5.71866 1.3426)
(380.215 0.0154242 -0.236058)
(375.817 2.57035 -3.01979)
(369.662 0.0027071 0.0697405)
(386.467 -3.48929 -6.18195)
(370.366 -8.51991 6.03086)
(346.324 13.251 -18.0916)
(376.42 -9.86004 14.1462)
(354.102 18.4922 -39.1049)
(378.893 -2.846 -0.306763)
(349.943 17.9001 -4.87256)
(363.787 14.635 -17.437)
(381.149 0.00264588 -0.0878764)
(362.045 -0.156523 -0.290477)
(326.418 15.0353 8.73212)
(367.728 -4.31362 17.4428)
(320.426 3.14278 1.07483)
(363.602 4.85527 -9.51303)
(380.641 1.09978 -12.5113)
(377.614 0.665296 -3.77164)
(380.427 6.08885 -18.7069)
(336.693 8.37201 -5.42794)
(378.52 0.614709 -1.10421)
(368.468 4.94048 1.89626)
(369.688 2.35361 -3.04676)
(338.881 -9.92622 -0.964785)
(372.279 7.10809 -4.13996)
(331.349 -0.584518 1.36038)
(356.707 -1.89206 -1.25482)
(373.297 0.525786 -7.3181)
(305.08 -0.693693 21.1439)
(379.221 0.00214003 0.0428825)
(346.275 -0.121456 -15.0568)
(355.072 14.9519 -19.6395)
(382.431 4.75271 -6.9359)
(337.057 1.64197 -7.4394)
(381.975 0.0989611 -0.0466543)
(371.457 2.99638 1.39394)
(375.332 9.72493 29.5127)
(371.435 -5.48937 0.839874)
(371.515 4.12671 10.1557)
(381.24 0.560399 -0.147894)
(402.846 -4.44471 16.2687)
(380.059 -1.98572 -2.83842)
(375.616 0.203399 -1.54932)
(383.804 0.000341847 0.0190185)
(363.95 -2.73306 7.95902)
(359.728 -5.87704 -7.52576)
(387.385 0.26232 12.6898)
(322.327 4.27638 -9.04463)
(380.223 -2.1078 10.2644)