/*--------------------------------*- C++ -*----------------------------------*\
  =========                 |
  \\      /  F ield         | OpenFOAM: The Open Source CFD Toolbox
   \\    /   O peration     | Website:  https://openfoam.org
    \\  /    A nd           | Version:  7
     \\/     M anipulation  |
\*---------------------------------------------------------------------------*/
FoamFile
{
    version     2.0;
    format      ascii;
    class       vectorField;
    location    "0.125/lagrangian/reactingCloud1";
    object      UTurb;
}
// * * * * * * * * * * * * * * * * * * * * * * * * * * * * * * * * * * * * * //


1058
(
(-0.517598 -1.82079 -3.19516)
(0 0 0)
(8.0448 -10.802 -1.40914)
(2.50432 -1.58398 3.1781)
(0 0 0)
(0 0 0)
(0 0 0)
(5.20355 -7.74601 1.70103)
(0 0 0)
(1.21409 5.00321 -0.443363)
(-1.11896 1.04476 2.54075)
(0 0 0)
(3.30685 -2.54651 -5.77957)
(-20.1488 -11.9935 -0.672443)
(0 0 0)
(0 0 0)
(6.52864 -8.63076 3.30416)
(-1.21568 1.91086 -3.50417)
(2.16594 7.35207 -5.83283)
(0.00433582 0.00315637 0.00415894)
(0.041601 -0.32552 -0.228324)
(0 0 0)
(0 0 0)
(0 0 0)
(-5.83274 0.0624796 -0.420395)
(1.45034 -14.599 -14.8369)
(14.0341 5.33194 -17.3816)
(0 0 0)
(0 0 0)
(0 0 0)
(-11.0189 0.150749 1.2704)
(0 0 0)
(0 0 0)
(0.414134 -6.22352 1.5451)
(0 0 0)
(0 0 0)
(-6.09658 -1.74856 4.01473)
(0 0 0)
(-2.15303 -1.97265 -1.39012)
(7.93095 3.33434 0.388239)
(-0.381196 -0.222476 0.834125)
(0 0 0)
(3.32808 7.31201 -1.85849)
(0 0 0)
(-0.00549721 -0.202578 -0.0823875)
(-5.95878 -1.21273 4.08472)
(0.00777228 -0.0220966 0.00590801)
(-2.81649 -1.1051 -1.64415)
(0 0 0)
(5.00646 -1.07647 4.23081)
(0 0 0)
(1.29934 -1.95346 -2.02954)
(-8.012 -15.0842 7.64361)
(0 0 0)
(-7.91597 -3.62119 5.06885)
(0 0 0)
(0 0 0)
(0.0204793 2.59656 2.0443)
(18.1135 -1.43157 8.96874)
(0 0 0)
(0 0 0)
(0 0 0)
(0 0 0)
(5.48402 -5.12195 13.0052)
(6.99985 14.3443 14.8148)
(0 0 0)
(0 0 0)
(0 0 0)
(0 0 0)
(0 0 0)
(0 0 0)
(0 0 0)
(0 0 0)
(2.37018 13.2519 -9.6431)
(0 0 0)
(0 0 0)
(0 0 0)
(0 0 0)
(0 0 0)
(0 0 0)
(0 0 0)
(0 0 0)
(0 0 0)
(0 0 0)
(0 0 0)
(0 0 0)
(0 0 0)
(0 0 0)
(0 0 0)
(0 0 0)
(0 0 0)
(0 0 0)
(0 0 0)
(0 0 0)
(0 0 0)
(0 0 0)
(0 0 0)
(0 0 0)
(0 0 0)
(0 0 0)
(0 0 0)
(0 0 0)
(0 0 0)
(0 0 0)
(0 0 0)
(0 0 0)
(0 0 0)
(0 0 0)
(0 0 0)
(0 0 0)
(0 0 0)
(0 0 0)
(0 0 0)
(0 0 0)
(0 0 0)
(0 0 0)
(0 0 0)
(0 0 0)
(0 0 0)
(0 0 0)
(0 0 0)
(0 0 0)
(0 0 0)
(0 0 0)
(0 0 0)
(0.203813 0.877247 1.09652)
(-1.19559 -0.282319 -0.014082)
(0 0 0)
(-0.0042808 -0.00475044 -0.00810574)
(0 0 0)
(0 0 0)
(0 0 0)
(0 0 0)
(0 0 0)
(0 0 0)
(0 0 0)
(0 0 0)
(0 0 0)
(-6.0869 -1.76678 -0.721589)
(0 0 0)
(0 0 0)
(-6.3538 -8.48373 0.233299)
(0 0 0)
(0 0 0)
(0 0 0)
(0 0 0)
(-2.64833 -3.84653 -6.5958)
(13.0222 -2.74601 10.4031)
(0 0 0)
(0 0 0)
(0 0 0)
(0 0 0)
(0 0 0)
(0 0 0)
(0 0 0)
(0 0 0)
(0 0 0)
(-16.0895 -10.2547 -7.54334)
(0 0 0)
(-2.59959 -14.32 13.924)
(0 0 0)
(0 0 0)
(0 0 0)
(0 0 0)
(0 0 0)
(0 0 0)
(0 0 0)
(0 0 0)
(0.521558 6.06843 -8.31333)
(0 0 0)
(0.327545 -5.11992 -6.16744)
(0 0 0)
(0 0 0)
(0 0 0)
(0 0 0)
(0 0 0)
(0 0 0)
(22.5859 -13.7769 -6.71727)
(0 0 0)
(7.21765 -1.26013 -10.174)
(0 0 0)
(0 0 0)
(0 0 0)
(0 0 0)
(17.8032 -16.003 0.922439)
(2.12955 -2.30057 4.41557)
(0.956284 5.71437 0.456112)
(-2.20876 -0.711201 5.10376)
(0 0 0)
(0 0 0)
(0 0 0)
(-11.8723 -10.2 -9.55195)
(7.85574 -1.81179 -5.01294)
(5.71033 -3.86197 -2.221)
(0 0 0)
(0 0 0)
(-3.0348 0.0557091 -1.50346)
(0 0 0)
(0 0 0)
(-1.59036 2.91864 1.13415)
(0 0 0)
(0 0 0)
(-4.44012 0.639044 0.623783)
(0 0 0)
(-2.74373 0.720096 8.13859)
(0 0 0)
(0 0 0)
(0 0 0)
(0 0 0)
(0 0 0)
(0 0 0)
(0 0 0)
(0 0 0)
(-2.41315 6.20205 2.89428)
(-8.11488 5.42136 -1.11028)
(0 0 0)
(-1.72623 2.2588 0.20031)
(0 0 0)
(0 0 0)
(8.87036 -12.9928 -32.4696)
(0 0 0)
(0 0 0)
(-8.18305 -0.529538 -2.86296)
(0 0 0)
(0 0 0)
(0 0 0)
(1.62119 -3.99638 -5.78653)
(4.31334 4.64716 6.71752)
(0 0 0)
(0 0 0)
(0 0 0)
(0 0 0)
(1.09378 0.82439 -3.40186)
(0 0 0)
(0 0 0)
(0 0 0)
(0 0 0)
(0 0 0)
(0 0 0)
(-2.38762 -2.05287 2.55718)
(0 0 0)
(0 0 0)
(-2.97678 -1.84102 1.54056)
(-0.818998 0.685783 2.99153)
(-3.10735 -1.53136 2.43963)
(0 0 0)
(1.66647 1.88284 -2.13872)
(0.746279 6.87397 -4.71058)
(3.8628 -3.82167 -4.4718)
(3.5702 -0.936629 4.10854)
(0 0 0)
(4.43296 -16.4211 -2.41857)
(2.19849 -3.29153 -3.71783)
(0 0 0)
(7.96606 -1.9554 -9.24109)
(0 0 0)
(0 0 0)
(0 0 0)
(0 0 0)
(1.01033 2.38124 1.65413)
(-0.579597 3.68037 2.1046)
(0 0 0)
(-1.67867 -2.24679 7.13524)
(-2.55278 -9.97494 1.83942)
(0 0 0)
(-4.08357 -6.50563 8.0625)
(0 0 0)
(10.4502 10.4181 3.81807)
(0 0 0)
(-2.14691 -2.78055 2.9038)
(0 0 0)
(-0.0260671 -0.933513 2.61054)
(0.51084 -0.00240699 0.172519)
(6.49992 5.35769 5.82634)
(-5.39257 -4.27915 2.36491)
(-3.59743 2.14347 -0.64437)
(0 0 0)
(0 0 0)
(0 0 0)
(0.7502 -7.29252 5.78698)
(10.061 -0.966766 -0.336029)
(4.23302 0.571116 4.95692)
(-0.209298 -1.49288 -0.902213)
(6.6795 0.239984 -2.45446)
(-5.65708 7.06178 -2.77259)
(-2.35598 -4.75078 -1.99692)
(1.1042 22.8676 -11.3484)
(12.8303 -17.2276 -2.24738)
(-4.14607 6.40262 4.07424)
(-23.2432 16.0769 -21.6101)
(-4.05769 5.74196 6.81736)
(-1.38058 -2.67878 -12.6174)
(-2.75158 1.29298 -0.503162)
(0.610816 1.21419 3.5895)
(-4.57967 -0.385192 0.109717)
(-1.69414 0.701498 2.33936)
(4.59147 -1.69923 -1.54062)
(-0.629958 0.513261 2.65397)
(-3.92039 9.26703 -4.81606)
(1.94913 2.74778 -6.96491)
(10.8951 9.46153 7.48081)
(1.37101 1.7994 -0.0676725)
(-0.763246 1.82878 0.304892)
(0.261038 -0.088266 1.60779)
(-2.06916 -3.73196 3.17308)
(-4.03806 1.93034 -0.803806)
(-2.33163 -16.8564 13.4077)
(16.6486 -8.75009 -7.93483)
(-9.75121 -13.6936 18.9604)
(1.96525 -1.24301 2.49399)
(-0.667557 -0.40756 0.863403)
(2.89232 5.87912 -6.51541)
(-0.177015 0.186478 0.203104)
(-3.20737 3.28628 -1.31496)
(-1.4788 -0.289637 -0.907956)
(-0.583488 -1.40279 0.775348)
(1.1032 3.24642 -9.8661)
(-7.20695 5.71965 -3.80956)
(-11.4695 2.16638 -9.81971)
(-1.13278 -1.03787 -0.731382)
(1.8661 -0.82156 -1.58675)
(-8.66628 -6.0655 2.66886)
(3.09394 -6.45267 1.71302)
(-0.718902 -5.28402 -1.72792)
(-11.8709 26.2724 -8.88091)
(9.64025 -9.12805 2.38532)
(-5.4712 -1.1135 3.75048)
(-0.659546 0.68826 -2.84808)
(0.14621 -1.10681 5.76559)
(7.1614 3.68813 -5.02529)
(-1.00269 -0.788643 -2.19034)
(3.12812 -3.89821 6.41416)
(-6.64077 -7.69219 9.67465)
(-0.621287 -5.19006 -2.16284)
(18.0696 30.9053 -7.58588)
(5.81198 -6.61198 4.65009)
(-0.7943 1.61358 0.196621)
(2.41036 5.1006 6.71098)
(-2.71084 -3.58424 1.361)
(-7.16714 14.1853 -4.3853)
(-5.06922 13.5302 -3.61694)
(-2.57154 16.669 4.28479)
(8.79317 6.28518 -8.36975)
(-6.32338 9.01913 -1.58823)
(3.83055 1.06381 0.307949)
(1.12221 0.634545 -0.0812824)
(1.30861 -0.77482 4.00873)
(0.851716 -2.95244 13.0818)
(1.79448 0.282963 -4.32646)
(1.10821 -1.11986 -1.45902)
(-3.63657 -8.27968 -1.69943)
(7.52824 15.4311 3.59904)
(-0.171681 -2.33979 -1.83497)
(1.45766 -7.92118 0.948092)
(-18.1096 2.44045 -11.5207)
(-0.286767 -0.167365 0.627496)
(6.04801 13.2879 -3.37737)
(0.248337 -5.51474 -2.3913)
(1.36435 -1.76167 0.45122)
(2.28563 4.32358 -1.67208)
(0.534941 -0.608183 2.33564)
(-5.42102 0.0580693 -0.390721)
(-5.07009 -4.82421 1.21204)
(4.85091 -3.73555 -8.47822)
(-3.65695 -2.19248 2.1814)
(-9.44759 -6.75299 -3.66896)
(4.62809 -6.68641 -6.09659)
(15.2029 8.9443 -0.51864)
(1.49134 -6.8822 3.1667)
(0.175368 -1.74136 1.13464)
(-2.42588 0.597387 -0.863681)
(-0.077117 1.40328 -2.07742)
(-4.23836 -9.41294 -4.24003)
(4.22222 -5.89807 9.17961)
(0.150487 -5.12412 5.98253)
(-2.06041 3.23865 -5.9391)
(10.6686 -2.77398 32.6026)
(-11.349 -8.11209 -4.40737)
(-6.03869 7.80445 7.30283)
(-0.518999 -1.82572 -3.20381)
(-1.02387 -1.60823 1.35839)
(-0.0429448 2.25777 -1.49342)
(-2.63567 -0.920412 -3.06374)
(2.94062 4.22798 -0.819434)
(-1.57914 2.10582 -3.16357)
(0 0 0)
(1.42307 0.550009 -0.287041)
(2.21407 9.12409 -0.808539)
(4.83379 5.98926 -5.60014)
(-1.84572 -4.37301 -2.36175)
(0 0 0)
(7.78818 -1.1242 0.258629)
(4.53272 -7.78127 -18.9487)
(2.34996 -9.08 -5.18169)
(1.11029 -3.47915 0.84389)
(0.268303 8.14004 9.13539)
(-5.3626 -5.93056 1.9055)
(1.30005 -0.931402 1.86579)
(-0.428223 0.390627 -0.436698)
(2.13332 -8.27835 -8.82273)
(-0.891793 -7.4498 -3.10453)
(19.631 -23.6391 7.41647)
(-1.52963 -0.874907 0.659436)
(13.3649 2.67063 -10.1262)
(1.20367 0.306324 -7.61656)
(6.59833 3.72176 13.5192)
(0.222947 -0.00114786 -0.11335)
(0 0 0)
(-0.307438 -0.549212 0.895622)
(-0.242607 -0.369283 -0.133485)
(-1.39646 4.86326 0.547262)
(2.51846 -1.12688 -2.39735)
(-3.55874 -5.30472 -2.02393)
(2.74207 -10.6406 -11.3403)
(0.62443 -4.18217 -17.0023)
(-2.64555 -3.9435 -1.50458)
(2.17835 -0.479166 -0.601167)
(-0.296847 -0.713665 0.394455)
(-3.69163 5.70084 3.62767)
(-0.0359787 -0.0135467 -0.0201722)
(-3.06766 1.22635 1.6556)
(-30.2047 8.45389 -21.1871)
(-25.3785 -3.12364 -5.03396)
(-2.21126 0.1307 0.113225)
(0.595344 -0.545534 0.502281)
(-2.83911 -20.5252 16.3259)
(-3.29435 4.58349 -6.54946)
(3.23356 -3.29693 1.95785)
(-0.242536 -0.658652 -1.63565)
(-0.345835 0.234542 -0.71122)
(0.403662 0.227727 0.880086)
(5.00724 5.04158 10.0997)
(3.59104 9.29899 20.9737)
(12.2153 -9.03168 -6.63206)
(8.58503 -6.05553 5.14921)
(0 0 0)
(-10.443 2.81134 11.1784)
(-0.0191936 0.0533886 0.0293877)
(15.3688 3.68051 8.40765)
(-2.00517 -5.7506 -0.662507)
(0 0 0)
(-0.457944 -5.63632 2.82796)
(4.77311 2.7798 2.18138)
(0 0 0)
(1.87056 0.339079 0.717059)
(-0.868725 -2.0809 2.62476)
(0.745333 -3.40907 -0.15467)
(-2.57611 -2.92701 3.55068)
(5.24837 -4.46267 12.7226)
(2.42208 1.15026 -3.90674)
(10.6958 -2.87316 -2.11349)
(3.49936 7.12489 -1.96474)
(-9.49229 -14.5437 10.1116)
(3.00876 -4.35649 -0.659276)
(0.321775 -1.17418 3.20576)
(-1.41351 -12.2209 -1.07139)
(6.96684 8.2598 2.86305)
(-2.22214 -19.212 -1.68429)
(12.8879 18.4266 15.2867)
(0.498084 10.3151 -5.11903)
(0.676967 -3.10348 -1.42831)
(-3.10276 -5.47089 4.33839)
(0.0234779 -0.220123 -0.142089)
(-4.08417 -7.86354 10.4703)
(-3.97653 7.92452 3.15057)
(-1.35531 -2.19918 6.04373)
(0 0 0)
(-6.57898 -14.1852 10.2318)
(1.63952 17.6546 2.51239)
(0 0 0)
(-19.8332 -6.67186 7.76724)
(2.41796 -1.06451 -2.05599)
(13.7331 -10.1539 -7.45612)
(-6.04187 -13.0271 9.39647)
(-2.73434 -6.47839 -3.49881)
(0 0 0)
(0.00190486 -2.36954 12.4752)
(-1.75356 -12.8889 -4.2148)
(0 0 0)
(-13.704 -19.2446 26.6462)
(-2.65834 -5.11829 6.81501)
(-1.91049 0.643557 0.309659)
(-4.00054 4.99391 -1.9607)
(0 0 0)
(-6.81468 -13.8946 -6.52181)
(11.5107 14.8658 6.10544)
(0.00490483 0.0797426 0.0316693)
(0 0 0)
(-0.567973 8.85651 0.53714)
(-8.46403 5.04176 -1.77272)
(-7.20681 0.824085 -0.167799)
(14.5602 7.4985 -10.2171)
(-7.27379 -14.8307 -6.96119)
(2.36923 3.34002 -8.46608)
(-2.92483 12.5157 -4.54677)
(3.66333 -1.80461 0.296125)
(1.8509 -7.70786 4.31586)
(6.89208 -9.11122 3.4881)
(4.66472 3.33424 -4.44009)
(-1.2503 0.307893 -0.445141)
(1.53801 2.89276 3.7226)
(-4.63955 12.3833 -3.31036)
(-6.36223 -3.2019 1.11456)
(-9.06398 20.0602 -6.78099)
(1.70035 0.657175 -0.34297)
(-1.84659 0.0127639 -3.64765)
(-2.28362 2.33981 -0.936242)
(2.2992 3.33188 5.6801)
(0.899143 -1.67273 1.46205)
(0 0 0)
(-7.87167 -12.0607 8.38525)
(-0.516923 -0.884307 6.28689)
(-4.74418 -12.0186 -2.64655)
(1.06473 -4.86995 -0.22095)
(-7.16957 -4.29842 4.27669)
(0 0 0)
(-0.362042 -0.221035 0.468257)
(-4.87747 -4.64093 1.16599)
(0.713231 -0.655907 0.1917)
(0 0 0)
(0.00199365 -2.47999 13.0568)
(1.83026 -7.62191 4.26773)
(-5.60262 11.0887 -3.42802)
(11.3517 -3.04935 -2.24309)
(1.29119 0.138961 6.51278)
(0 0 0)
(0 0 0)
(0 0 0)
(-5.90575 10.9742 -2.90904)
(5.42734 -17.1202 -4.65512)
(0 0 0)
(-0.0149994 0.0344038 -0.00373317)
(0 0 0)
(-0.449862 -0.0874895 -1.33455)
(0 0 0)
(4.56046 3.65349 -14.1604)
(7.49438 -23.6405 -6.42805)
(-2.92505 1.48016 1.38685)
(3.75501 4.58434 -8.94945)
(-0.598616 0.624677 -2.58496)
(2.89472 -1.46675 0.232403)
(0 0 0)
(9.39559 -3.04149 8.0894)
(0.969486 -1.4796 -1.7821)
(0 0 0)
(-4.40747 -0.370708 0.105591)
(1.25003 -7.48921 1.50316)
(-0.324796 41.8034 0.88039)
(9.18631 16.9177 11.1087)
(-0.307847 39.6219 0.834448)
(4.73987 1.88477 6.60846)
(-5.94485 8.41244 9.98799)
(5.41325 -2.00336 -1.81637)
(12.3245 11.9761 -2.23229)
(-11.4198 -5.07505 -3.22091)
(-9.76788 -10.5809 21.6263)
(2.77667 5.64404 -6.25489)
(0.150847 16.9082 -10.8384)
(-0.0919696 0.290423 -0.0319644)
(2.31789 -7.26322 1.76174)
(16.9103 -7.16313 -0.98622)
(8.04131 17.6673 -4.49048)
(-0.862858 -1.63284 0.0582329)
(-0.98522 0.498085 2.1839)
(3.16198 2.94671 -2.86081)
(5.28231 1.46698 0.424661)
(11.5497 -5.92637 -14.6006)
(-0.380273 1.75006 -0.462684)
(0.0862666 4.60209 2.52057)
(14.6311 3.50385 8.0041)
(-17.227 0.337623 -0.843841)
(-5.70586 -0.479915 0.136697)
(1.16652 -4.04369 17.917)
(6.11645 13.8345 18.9384)
(-8.15414 1.17358 1.14556)
(4.34725 -1.91389 -3.69647)
(0.715844 0.403847 0.193436)
(4.217 20.651 -0.506558)
(-2.89682 2.38921 2.37329)
(8.46299 -3.92429 -0.0783171)
(-25.0321 17.3143 -23.2733)
(-10.1113 -2.93488 -1.19867)
(-19.4599 -9.14125 -3.58782)
(0.472466 -1.90049 1.63586)
(-11.8945 4.43564 4.29323)
(4.56429 0.234919 1.88728)
(-19.1351 -22.1647 27.877)
(12.1706 8.69933 -11.5846)
(-1.51076 -0.710262 -0.748517)
(0.356882 1.53608 1.92003)
(-25.8319 6.95415 27.651)
(0.796558 -0.128014 0.284088)
(21.2768 15.1745 -5.10354)
(7.66733 13.2099 11.0735)
(-14.9621 -7.51274 16.1787)
(3.70246 -2.61849 0.743028)
(2.27138 -4.48074 0.141446)
(1.16031 5.67255 -1.26631)
(11.7886 -5.03728 -9.27132)
(0.00423644 1.77783 11.4654)
(-19.3923 15.918 15.6186)
(-2.16839 -2.91458 0.126481)
(-2.09091 2.31161 -10.6297)
(-5.38378 -1.72243 5.79716)
(-18.3525 -25.7725 35.6849)
(5.12395 -2.4547 -5.90417)
(0.286313 6.68398 1.5086)
(-1.68888 4.3406 2.02561)
(-20.2938 -11.2832 -3.75695)
(-1.81174 -0.46303 1.2335)
(-6.7474 -11.8972 9.43446)
(15.7766 -21.1836 -2.76345)
(2.39037 0.923866 -0.482152)
(2.14126 12.6589 -31.2912)
(-9.59753 15.3753 1.11861)
(0.667531 -0.225715 4.11146)
(0.395819 -4.61881 -2.50238)
(0.523195 1.04002 3.07459)
(-1.87235 -1.12145 -1.84583)
(10.7477 22.0302 5.13816)
(-8.67693 0.0929462 -0.625391)
(-1.41865 1.8918 -2.84204)
(-12.3483 -13.6561 4.38774)
(-2.29073 -2.09881 -1.47902)
(-0.685527 0.715372 -2.96027)
(0.0385463 -0.058781 -0.221812)
(0.819968 1.35601 0.354392)
(-3.59053 -0.724167 -6.31939)
(-0.537194 -1.88972 -3.31613)
(0.333896 -1.20802 -1.42456)
(38.1858 -28.4769 8.30248)
(-0.0338424 -3.483 2.26408)
(-0.871086 -0.531819 1.12664)
(-20.4631 -14.6267 -7.94681)
(2.49246 -4.09822 -0.262678)
(0.872434 -7.79057 11.2887)
(1.24067 25.6938 -12.7509)
(1.0301 -4.78482 -0.680666)
(2.64203 0.739299 -2.13523)
(1.56725 6.45857 -0.572331)
(-0.0532147 3.71817 -1.69773)
(8.34651 6.31769 -1.62295)
(0.164511 0.51304 2.38906)
(2.67776 28.8344 4.10336)
(4.98731 7.11395 7.90265)
(0.977001 -1.73179 -5.10668)
(-9.72854 -5.83261 5.80313)
(3.40938 -0.985648 4.21321)
(-4.80783 -4.57466 1.14934)
(2.87485 -0.298829 1.39669)
(5.57383 -0.857018 1.67604)
(-16.6335 21.4973 20.1156)
(0.812256 1.12039 1.90912)
(-2.06987 -0.399032 -1.33328)
(-34.2155 -11.51 13.3998)
(-0.978006 -0.190203 -2.90133)
(-1.25217 0.680387 1.56033)
(3.80821 3.05084 -11.8246)
(2.26607 6.87338 -1.31572)
(0.934207 -0.0110938 -0.992497)
(0.402756 -1.62008 1.3945)
(-4.08241 -1.28363 0.128812)
(1.56231 2.00404 -1.85478)
(-0.478271 1.14596 0.191053)
(-1.56664 -0.343561 -0.284701)
(-13.8281 11.7534 -6.3164)
(0.370604 -1.34083 -1.58117)
(0.148464 -0.68735 -1.03213)
(17.6212 -16.685 4.36007)
(-4.91424 2.37501 5.55695)
(0.00943149 -1.08563 0.650496)
(0.442715 0.656665 1.90296)
(7.97402 8.58517 25.0827)
(3.7887 -4.35713 3.43299)
(-6.7656 3.23421 -1.34674)
(-1.17802 0.640099 1.46794)
(-1.9162 4.57121 -4.48606)
(-6.52328 -3.28295 1.14278)
(6.69933 -7.62146 5.36004)
(-14.6326 32.3845 -10.947)
(0.603197 -8.01956 -1.92241)
(8.28167 12.884 4.2223)
(2.25665 0.0886875 -3.48058)
(-0.402429 -0.612557 -0.221421)
(1.95819 7.13533 0.046551)
(-0.889021 -0.53379 -0.43688)
(-2.85954 1.78582 1.26748)
(0.086279 0.760252 12.3185)
(-0.256302 -0.616188 0.340578)
(1.57581 4.6372 -14.0928)
(-2.73623 1.28576 -0.500355)
(-0.201156 0.211909 0.230802)
(-0.445918 0.436066 -2.38688)
(5.93641 1.66114 -4.79767)
(-18.1425 1.69452 0.617694)
(1.22163 -8.98196 -5.85394)
(-4.28424 -1.42793 -6.76283)
(-3.82435 7.56918 -2.33997)
(0.307021 0.0472677 -0.158364)
(-5.89832 7.36293 -2.89083)
(-0.295142 -1.00287 14.5894)
(-6.6589 -14.7887 -6.66152)
(-8.92975 3.33005 3.22313)
(2.57025 -11.9388 -1.69836)
(0.379462 -0.672616 -1.9834)
(-11.7334 -5.89156 12.6875)
(1.83363 -1.11222 -2.03965)
(-1.53948 -1.21084 -3.36294)
(0.613898 12.8081 11.9193)
(2.3326 0.919425 2.11432)
(-4.34068 1.46218 0.703553)
(1.20405 -2.72905 -2.29869)
(-0.0468985 2.46563 -1.63091)
(10.9762 17.6534 -17.1547)
(1.61369 2.14984 -2.43105)
(0.0388214 -0.0592005 -0.223394)
(-6.4014 0.305919 11.0846)
(-4.1152 3.53837 1.28206)
(-3.88605 3.98166 -1.59321)
(3.88833 0.613132 -9.37471)
(0.123507 0.698639 0.188745)
(-4.58452 -2.02619 2.33526)
(3.07672 15.067 -0.369584)
(-1.91606 -0.489691 1.30452)
(14.7413 12.8017 10.1217)
(6.03502 3.12261 -2.40994)
(-9.73226 -4.7221 -3.82736)
(5.98381 -8.62844 -4.32832)
(-0.0539552 0.981808 -1.45347)
(-0.267068 -2.81614 -9.49514)
(8.74486 -4.48716 -11.0549)
(-0.0796996 5.56871 -2.5427)
(-1.14539 -2.1675 0.0773009)
(-2.40418 15.5841 4.00593)
(-14.0009 -0.0339246 4.9923)
(4.12293 -3.4931 -3.63021)
(0.116644 -0.387757 0.0737648)
(0.0935591 10.4869 -6.72226)
(3.65614 1.45384 5.0975)
(-2.80488 -2.60597 -9.25569)
(0.329605 0.454644 0.774699)
(0.991609 1.47082 4.26233)
(4.91971 -0.962188 4.87766)
(1.06266 -0.170779 0.37899)
(-0.369566 14.4972 -16.8943)
(-4.52043 6.44757 -1.13539)
(-0.29662 0.309534 -1.28087)
(5.50476 -3.48175 6.98579)
(-0.64313 -0.385206 -0.634023)
(0.238613 -1.8063 9.40939)
(1.815 8.87323 -1.98082)
(4.98699 -10.4008 2.76114)
(-0.253117 -0.147726 0.553865)
(11.2181 -9.50444 -9.87749)
(2.43682 -13.2421 1.58495)
(-0.238116 -0.362449 -0.131014)
(2.24668 1.27037 -0.162729)
(11.3679 -5.97467 -5.41801)
(-2.18864 -3.06 0.226915)
(2.18935 -13.5773 2.09618)
(-0.338498 -0.18536 0.0832276)
(-2.60811 5.47386 -5.95331)
(-5.20964 0.971125 -3.56987)
(-0.927561 0.893792 -0.736767)
(20.7534 -24.9905 7.84048)
(0.480054 2.90475 -6.93191)
(4.18421 5.9684 6.63009)
(3.60379 -4.49098 7.38952)
(-7.37852 -4.51587 -5.79138)
(-4.6192 10.9189 -5.67452)
(15.8244 0.705742 -11.6868)
(-2.43155 0.260234 0.986156)
(-0.0775483 -1.06019 0.650591)
(-0.8651 1.46721 1.45225)
(-1.33009 2.88141 -1.46566)
(-1.79105 14.6328 10.7607)
(0.208245 -0.692265 0.131693)
(12.4884 -5.05451 4.75699)
(7.35696 -2.97763 2.80236)
(1.42725 1.83079 -1.69443)
(0.712017 -0.00845531 -0.756444)
(-2.01336 2.68486 -4.03346)
(3.08703 5.85104 -17.4194)
(7.94169 -2.12829 -1.8781)
(-0.116793 -0.396854 5.77326)
(-1.68812 -4.04364 5.10048)
(-5.06051 0.918138 -3.51613)
(4.11386 -1.84074 -3.91603)
(1.40235 -10.3107 -6.71994)
(-5.06352 -8.92815 7.08)
(2.39713 0.257985 12.0911)
(-22.4999 -7.56892 8.81158)
(2.72327 -3.13184 2.46758)
(0.00856896 -0.98635 0.591007)
(-0.00509077 0.338505 -0.948429)
(1.76627 1.64602 -1.59804)
(-11.7164 9.61737 9.43643)
(-2.66032 0.896143 0.431195)
(5.90811 -8.25312 12.845)
(2.93245 5.05228 4.23517)
(-11.772 1.77622 0.695912)
(-5.7765 10.9328 6.28042)
(-15.2014 4.09232 16.2718)
(-1.59454 -9.34118 8.56878)
(7.92453 -3.90373 0.640579)
(0.494037 0.817006 0.213524)
(4.20992 -0.0379521 9.75714)
(-0.793601 -0.15434 -2.35428)
(-5.85772 -13.3368 -2.73742)
(-29.6923 -3.65459 -5.88962)
(13.9773 -5.21643 8.31873)
(-2.05253 0.849896 2.83424)
(2.9282 1.70922 -2.58749)
(0.72261 0.668385 -0.877742)
(0.256171 -1.68831 1.78125)
(15.2829 26.1389 -6.41596)
(5.66662 4.53966 -17.5951)
(-1.79168 11.3982 -23.6863)
(5.00979 1.65263 2.45113)
(-13.93 18.0033 16.8462)
(0.305914 0.0470972 -0.157792)
(0.845412 9.10349 1.2955)
(3.18318 9.00436 22.6067)
(-5.06951 -2.55132 0.888098)
(-6.11515 0.571157 0.208201)
(-2.68334 -7.69553 -0.886575)
(-1.62233 5.64988 0.63578)
(-2.47875 -5.64358 -1.15836)
(4.79611 10.8481 14.8502)
(-9.85217 -10.8956 3.50079)
(-0.0660233 -6.79501 4.41701)
(6.21369 -5.88355 1.53747)
(-6.06065 -2.48986 3.69293)
(7.0605 -1.89214 -1.66971)
(6.56682 1.57261 3.59244)
(0.0408258 2.17795 1.19286)
(15.4787 -8.13518 -7.37721)
(0.44193 -1.00166 -0.843703)
(2.15652 -11.7189 1.40264)
(8.97477 8.35687 -2.03933)
(-0.0749513 -1.02469 0.628803)
(-0.467751 -5.75702 2.88852)
(-2.76869 -3.87097 0.287053)
(-2.85967 2.505 -1.44246)
(-11.3525 -10.9129 3.62535)
(1.02946 3.75121 0.024473)
(1.90969 0.62997 0.93435)
(-0.125681 -0.975376 -13.261)
(-5.73962 -3.13087 -0.832302)
(-13.8647 2.0456 -14.3944)
(-31.9355 -19.5525 -23.3168)
(-27.9027 7.94985 -36.1759)
(1.62922 -2.8675 0.337739)
(-4.69449 -0.87516 5.47635)
(11.9849 22.0716 14.4929)
(12.5983 5.29659 0.616716)
(-2.37042 -1.07093 -2.94287)
(-4.54472 0.564898 2.17742)
(2.35085 0.0446313 -0.735252)
(-0.528412 0.653788 -0.174799)
(0.000162121 -0.000216921 -0.000385087)
(0.107414 0.117592 -0.00739633)
(-2.25931 -7.81242 -5.53604)
(7.8005 13.7554 3.58126)
(0.721898 -1.3497 0.870572)
(19.5146 4.39148 -7.143)
(-2.47901 -6.52257 -1.89798)
(3.27146 12.4967 2.9437)
(2.24453 0.786765 -7.93657)
(-2.14514 10.3305 25.7048)
(1.70871 1.83463 1.50328)
(-7.74584 -0.186177 -3.79958)
(33.6597 7.57464 -12.3206)
(-0.886275 -2.81958 12.3205)
(1.42499 -2.66426 1.71847)
(-4.34936 8.59149 20.5068)
(-27.8369 15.8647 10.1017)
(0.664328 -2.041 -1.99757)
(-11.9866 -6.53849 -1.73817)
(-3.22341 2.52333 2.72112)
(3.5852 5.24649 -5.8359)
(14.3454 0.16638 6.89599)
(2.42126 -3.64879 2.35099)
(4.87233 4.82058 7.60791)
(-16.8901 7.86878 -9.98113)
(-20.3197 -10.6053 6.30543)
(0.487583 10.6308 2.55081)
(2.66751 -2.99091 -3.931)
(1.67574 1.73433 -9.69782)
(-2.25031 1.23787 9.13995)
(-3.54251 4.63544 0.411072)
(9.72477 7.78007 8.03391)
(3.68721 12.87 5.04343)
(34.7052 -19.3934 -11.4198)
(2.26338 11.1498 -6.07591)
(16.7073 26.8709 -26.1117)
(0.0113594 0.184681 0.0733448)
(0.817099 -0.0878675 -0.0598837)
(-19.7932 13.2234 -2.70812)
(3.29946 0.601505 2.13899)
(4.57506 -6.89453 4.44229)
(12.1097 7.47987 5.31423)
(-2.57332 -4.74027 6.75974)
(23.9856 -11.1006 2.54586)
(19.3165 10.3426 -5.54298)
(-7.6172 7.71438 3.18895)
(-54.119 -3.3082 -3.67199)
(8.38439 9.03329 13.0577)
(-29.5078 13.1625 -22.5692)
(-6.04453 13.5866 -5.2057)
(0.424417 6.64729 1.08096)
(6.99031 0.274723 -10.7816)
(-4.3568 0.2655 7.67503)
(14.0108 -2.65917 -5.09909)
(-43.1455 24.5893 15.657)
(27.6688 0.187904 1.02215)
(-4.04448 2.52582 1.79269)
(5.20187 15.7782 -3.02031)
(17.0846 -11.089 0.494775)
(-10.4484 16.7385 1.21778)
(-6.48553 -38.0156 7.13553)
(5.39645 0.0625891 2.59414)
(1.12313 10.3451 -7.0893)
(0.183855 0.201277 -0.0126599)
(6.58412 -1.01236 1.97983)
(-0.958196 0.484423 2.124)
(-7.80275 1.26811 -1.4876)
(-0.219908 -0.325301 0.665716)
(-6.74683 -8.37918 -4.51805)
(4.83398 18.4654 4.34967)
(-25.7822 2.66127 0.19211)
(-1.32773 3.80474 -6.52953)
(-3.14228 0.735092 0.885049)
(-9.87241 9.28756 -7.70424)
(-21.9599 4.02594 9.79884)
(4.76907 -3.06238 1.79877)
(-8.99992 5.39655 -2.29982)
(1.54471 17.8334 -7.96232)
(1.30842 -4.01983 -3.93428)
(-2.33053 2.63692 -5.88268)
(-2.11784 -1.79647 4.87969)
(6.44484 -3.26558 0.517425)
(-1.41598 -6.60621 -9.89278)
(-21.3449 3.48517 11.1992)
(2.58521 1.85689 -2.3573)
(10.5711 3.67837 7.34468)
(8.94836 -11.1331 10.1136)
(6.97464 -6.53302 1.66727)
(-4.86879 8.64175 -14.8003)
(8.01149 -3.70775 0.850347)
(4.42598 12.5199 31.433)
(-2.19863 5.24496 -5.14726)
(3.04145 1.35993 -4.07177)
(-69.7704 -8.5875 -13.8393)
(-3.20508 6.72676 -7.31595)
(5.0271 7.35654 -8.183)
(-0.843526 0.687267 3.55373)
(-11.2488 8.35237 6.3459)
(-3.64544 3.74973 4.44677)
(4.84347 -0.392492 -6.17766)
(3.18584 -5.60722 0.660428)
(-29.1239 -13.4415 -3.61132)
(-0.247162 -0.295334 -1.47495)
(0.612595 0.102337 -0.208189)
(3.99258 4.13216 -23.1058)
(4.03414 0.83484 -0.796397)
(-5.81585 -14.131 -4.28651)
(-6.04433 9.33403 5.9396)
(-5.13241 2.8233 20.8461)
(0.793527 -5.2298 5.51768)
(3.21971 4.53898 -11.5051)
(-0.808485 -1.5029 -3.83532)
(-2.97671 5.04849 4.99703)
(-0.560403 3.10617 -0.47389)
(2.58566 1.44813 -2.07459)
(2.72768 2.48255 0.249612)
(8.23667 0.509241 -7.15543)
(-4.57787 0.65484 0.542653)
(0.815227 4.93284 -11.7718)
(-3.31508 0.816359 -1.18026)
(3.9205 -1.13341 4.84485)
(-0.917434 -0.502383 0.225572)
(-4.15815 -7.49967 6.37656)
(-35.111 -3.92205 24.059)
(9.13958 -15.6898 -38.2073)
(1.14153 6.68953 -0.0996876)
(1.37257 3.0877 1.63647)
(-2.52493 -4.89922 -23.076)
(-11.0099 6.60178 -2.81345)
(27.6274 17.0648 12.1241)
(-0.00607038 -0.00673636 -0.0114943)
(0.254803 5.94837 1.34257)
(6.07414 -4.67753 -10.6161)
(2.00449 2.67048 -3.0198)
(-5.13071 -6.93253 2.80977)
(16.9862 -3.22389 -6.18196)
(-4.18634 -8.38944 6.03084)
(25.7818 13.2777 -18.0916)
(1.09327 -9.76258 14.1462)
(-2.95798 18.8178 -39.1049)
(3.74689 -2.69019 -0.306787)
(-6.82901 18.2272 -4.87257)
(-0.381442 14.9631 -17.4372)
(4.35154 -0.780263 2.71705)
(-1.13622 0.179965 -0.290487)
(-8.03148 15.2006 8.73211)
(-1.25474 -3.9918 17.4427)
(2.8055 3.13537 1.07475)
(-3.30031 5.18758 -9.5131)
(3.5383 1.24026 -12.5113)
(-0.704621 0.689053 -3.77165)
(3.31521 6.28352 -18.7069)
(-2.19764 8.5792 -5.4282)
(-0.977764 0.657472 -1.10421)
(-6.08653 5.23337 1.89621)
(-0.201491 2.70133 -3.04682)
(9.09076 -9.81614 -0.964798)
(-8.20749 7.18955 -4.13997)
(0.627949 -0.464752 1.36037)
(-2.55356 -1.53322 -1.25486)
(-7.14802 0.667476 -7.31812)
(-25.3004 -0.580221 21.1439)
(-2.04949 -4.13276 -1.73714)
(-9.79287 0.224149 -15.057)
(-14.7356 15.3134 -19.6395)
(6.65899 5.06314 -6.93593)
(2.39196 1.80283 -7.43942)
(-0.0497813 0.103868 -0.0466543)
(-6.34218 3.27992 1.39391)
(9.38235 10.1014 29.5127)
(10.3898 -5.11814 0.839857)
(-8.98114 4.34051 10.1557)
(-1.93741 0.572211 -0.147894)
(20.3645 -4.29429 16.2687)
(8.68264 -1.60776 -2.83845)
(-0.00831614 0.552973 -1.54933)
(-0.721335 -1.22043 1.09106)
(-11.6106 -2.36299 7.95901)
(-22.7586 -5.64459 -7.52578)
(2.51583 0.27076 12.6898)
(8.04503 4.20863 -9.04465)
(-3.15643 -1.89731 10.2644)
(-0.0713974 -0.0254177 -0.294988)
(-1.22795 2.83318 -0.90303)
(-2.08699 2.01101 -1.6577)
(1.8062 1.67066 -2.19396)
(-8.63256 -3.47352 4.06434)
(-12.0921 1.82453 0.714837)
(8.01415 4.67795 -7.08166)
(-19.5431 2.88339 -20.2897)
(-1.8125 -4.34155 5.47626)
(-10.2556 11.7753 7.1711)
(8.489 -1.22536 0.281902)
(-9.54887 7.57826 -5.04748)
(-0.68306 10.6511 0.645979)
(-0.467544 60.176 1.26732)
(20.0728 7.62623 -24.8607)
(-11.5243 11.9763 -15.3596)
)


// ************************************************************************* //
