/*--------------------------------*- C++ -*----------------------------------*\
  =========                 |
  \\      /  F ield         | OpenFOAM: The Open Source CFD Toolbox
   \\    /   O peration     | Website:  https://openfoam.org
    \\  /    A nd           | Version:  7
     \\/     M anipulation  |
\*---------------------------------------------------------------------------*/
FoamFile
{
    version     2.0;
    format      ascii;
    class       volScalarField;
    location    "0.1125";
    object      alphat;
}
// * * * * * * * * * * * * * * * * * * * * * * * * * * * * * * * * * * * * * //

dimensions      [1 -1 -1 0 0 0 0];

internalField   nonuniform List<scalar> 
48560
(
0.0051094
0.0050573
0.005004
0.00495169
0.00490097
0.00485232
0.00480622
0.00476306
0.00472321
0.004687
0.00465472
0.00462664
0.00460302
0.0045841
0.0045701
0.00456126
0.00455779
0.00455992
0.00456789
0.00458194
0.00460235
0.00462938
0.00466334
0.00470458
0.00475347
0.00481042
0.0048758
0.00494971
0.00505958
0.00518424
0.00532274
0.00547363
0.00563423
0.00580105
0.00596937
0.0061412
0.00631575
0.00649735
0.00668973
0.00690644
0.00715046
0.00742034
0.00771511
0.00801528
0.00828202
0.0083777
0.00797317
0.00694025
0.00546873
0.00391596
0.00126479
0.000499805
0.00055034
0.000574582
0.000615286
0.000635964
0.0006815
0.000708559
0.000775468
0.000834873
0.000960503
0.0010364
0.00108339
0.00098656
0.00108372
0.000849223
0.000856304
0.000890368
0.000947918
0.00101945
0.00110953
0.00120322
0.00130716
0.00140071
0.00148573
0.00153805
0.00154224
0.0014608
0.00128432
0.0010751
0.000947198
0.000984857
0.00104475
0.00104343
0.00101932
0.000973676
0.0009311
0.000894689
0.000871948
0.000857054
0.000854231
0.000853006
0.000852293
0.000848708
0.000843068
0.000831385
0.000813982
0.000787495
0.000751129
0.00070283
0.00484592
0.00483095
0.00481654
0.00480371
0.00479298
0.00478478
0.00477951
0.0047775
0.00477909
0.00478452
0.00479409
0.00480801
0.00482652
0.00484982
0.00487813
0.00491167
0.00495065
0.00499523
0.00504556
0.0051017
0.00516382
0.00523195
0.00530622
0.00538663
0.00547318
0.00556569
0.00566391
0.00576685
0.00591615
0.00607276
0.00623822
0.00641075
0.00659298
0.00678591
0.00699813
0.00723614
0.0075061
0.00781063
0.00815244
0.00852686
0.00893086
0.00933456
0.00965638
0.00973692
0.00945513
0.00871794
0.00757388
0.00623737
0.00511148
0.00460694
0.00507329
0.00904731
0.00945958
0.00991221
0.0103094
0.01061
0.0102357
0.0103999
0.0097143
0.00989571
0.00897496
0.00868235
0.00777504
0.00820605
0.00716817
0.00711942
0.00693651
0.00696791
0.00676148
0.00672304
0.00669264
0.00676883
0.00685391
0.00699399
0.00712507
0.00718043
0.00700454
0.00648415
0.0067329
0.0064251
0.00704643
0.00995715
0.00904563
0.00847818
0.00819161
0.00817036
0.0085604
0.00958179
0.0107124
0.0121421
0.0136122
0.0151028
0.0167037
0.0185533
0.0205782
0.0229583
0.0258311
0.0300276
0.0369559
0.0528135
0.00520561
0.00522051
0.00523803
0.00525824
0.00528155
0.00530825
0.00533861
0.00537276
0.00541088
0.00545301
0.00549925
0.00554961
0.00560423
0.00566311
0.00572634
0.00579388
0.00586572
0.00594173
0.00602181
0.00610644
0.00619543
0.00628907
0.0063874
0.00649075
0.00659928
0.00671342
0.00683362
0.00695971
0.00715466
0.00737085
0.00760877
0.00787354
0.00816578
0.00849007
0.00884818
0.00924141
0.00967018
0.0101218
0.01057
0.0109346
0.0111543
0.0111001
0.010737
0.0100238
0.00903429
0.00787476
0.00689146
0.00625217
0.00621198
0.00693548
0.00896765
0.014204
0.0146892
0.0152066
0.0148706
0.0159231
0.0148242
0.0161095
0.0141408
0.0149853
0.0131527
0.0126933
0.0114298
0.0115838
0.0104462
0.010715
0.0108317
0.0114201
0.011223
0.0118133
0.0117094
0.0116265
0.0116034
0.0116001
0.0116406
0.0116795
0.0117036
0.0115213
0.0113873
0.0102252
0.0145453
0.02302
0.0211959
0.020149
0.0198092
0.0165166
0.019067
0.0195393
0.0258855
0.0318224
0.0386259
0.0429634
0.0475672
0.0529654
0.0592815
0.0672685
0.069777
0.0636187
0.0592189
0.0580422
0.00629865
0.00632833
0.00636178
0.00639987
0.00644184
0.00648893
0.00654037
0.00659701
0.006658
0.00672404
0.00679465
0.00687056
0.0069515
0.00703813
0.00713037
0.00722886
0.00733375
0.00744576
0.00756537
0.00769294
0.00782885
0.00797361
0.00812749
0.00829112
0.00846517
0.00865048
0.00884763
0.00905763
0.00937551
0.00972077
0.0100927
0.0104922
0.0109129
0.011347
0.0117702
0.0121504
0.0124375
0.0125725
0.0125144
0.0122132
0.0116746
0.0109
0.0100029
0.00909923
0.0082888
0.00771669
0.00754579
0.00789069
0.00883877
0.0105879
0.0138509
0.0181513
0.0194494
0.0206602
0.0196316
0.0210331
0.0191192
0.0200132
0.0179699
0.0183776
0.0164769
0.0156707
0.0145916
0.0145783
0.0144101
0.0144292
0.0154212
0.0164503
0.0168048
0.0170125
0.0173072
0.0176552
0.0180519
0.0184747
0.0185947
0.0167343
0.0139865
0.0134947
0.0149953
0.0173609
0.0297883
0.0434108
0.0412316
0.0402566
0.0324962
0.0300831
0.0328658
0.0306777
0.0331761
0.0336821
0.037784
0.0409485
0.0464349
0.0509814
0.0565194
0.0610302
0.0641499
0.0647124
0.0641721
0.0638483
0.00814586
0.00818894
0.00824012
0.00829981
0.00836727
0.00844377
0.00852857
0.00862267
0.0087253
0.00883733
0.00895823
0.00908889
0.00922891
0.00937914
0.00953927
0.00971003
0.00989111
0.0100831
0.0102855
0.0104989
0.0107228
0.0109573
0.011203
0.01146
0.0117277
0.012005
0.0122895
0.0125791
0.0129567
0.0133247
0.0136492
0.0139172
0.0140884
0.0141476
0.0140708
0.0138427
0.0134498
0.0128967
0.0121951
0.0114628
0.0107008
0.0099938
0.00939363
0.00898915
0.00886958
0.00913355
0.00984341
0.0110333
0.0128054
0.0145268
0.0185547
0.0205021
0.0221463
0.0229204
0.0228977
0.0237655
0.0227115
0.0232876
0.0218372
0.0220477
0.0205884
0.0197336
0.0188536
0.0189804
0.0198202
0.0194333
0.0216724
0.0224366
0.024505
0.0253031
0.0265941
0.0270817
0.0270484
0.025898
0.0234249
0.0202022
0.0174897
0.0170815
0.0170714
0.0221088
0.0336045
0.0407554
0.0428448
0.0286382
0.0266609
0.0273297
0.0286564
0.0288288
0.0324393
0.0341972
0.0393585
0.0430438
0.0495122
0.0550697
0.0622133
0.066703
0.0685925
0.0697148
0.0709072
0.0717009
0.0113632
0.011412
0.011479
0.0115608
0.0116585
0.0117707
0.0118981
0.0120398
0.012196
0.0123656
0.0125487
0.0127449
0.0129538
0.013175
0.0134079
0.0136514
0.0139037
0.014162
0.0144221
0.0146807
0.0149321
0.0151712
0.0153897
0.0155813
0.0157391
0.0158599
0.0159408
0.0159954
0.0159355
0.0158175
0.0155731
0.0152481
0.0148007
0.0142704
0.0136798
0.0130638
0.0124305
0.0118164
0.0112478
0.010766
0.0104018
0.0102155
0.0102585
0.0105949
0.0112726
0.0123167
0.013728
0.0155528
0.0156266
0.0173178
0.0204861
0.0222787
0.0242929
0.0255335
0.0261316
0.0263967
0.026361
0.0262243
0.0256101
0.0252509
0.0244496
0.0236183
0.0234069
0.0240629
0.025845
0.0253862
0.0284872
0.029009
0.0322178
0.0324189
0.0346493
0.0336118
0.0333112
0.0301689
0.0266214
0.0224321
0.0201857
0.0202036
0.0210771
0.0262431
0.0335043
0.0377306
0.0377158
0.0299634
0.0307796
0.0303186
0.0316325
0.0321301
0.0350263
0.0371431
0.0416609
0.045148
0.0508314
0.0561784
0.0631551
0.0693889
0.0730203
0.0753359
0.0770307
0.0780992
0.016416
0.01641
0.0164374
0.0164846
0.0165597
0.0166515
0.0167646
0.0168883
0.0170236
0.0171615
0.0173018
0.0174365
0.0175637
0.0176762
0.0177714
0.0178435
0.0178908
0.0179094
0.0178936
0.0178419
0.0177511
0.0176207
0.0174494
0.0172388
0.0169897
0.0167057
0.01639
0.0160607
0.0155682
0.0150893
0.0145633
0.0140628
0.013546
0.013076
0.0126256
0.0122449
0.0119262
0.0117176
0.0116263
0.0117015
0.0119656
0.012466
0.0132233
0.0142583
0.0155674
0.0171394
0.0189974
0.01893
0.0184371
0.0203959
0.0224525
0.0239234
0.0260085
0.0273757
0.0279916
0.0282543
0.0283621
0.0282469
0.0278262
0.0275133
0.027108
0.0268352
0.0272492
0.0286767
0.0308335
0.0307704
0.0338549
0.0345522
0.0376536
0.0380388
0.0401291
0.0387584
0.0379092
0.0338296
0.0297645
0.0255257
0.0236307
0.0231698
0.0244189
0.0290098
0.0327359
0.0350722
0.0335574
0.0306312
0.0321505
0.0322162
0.0338247
0.0349212
0.0378832
0.0404929
0.0450398
0.049548
0.056086
0.0627207
0.0693354
0.0747068
0.0781279
0.0809557
0.0828152
0.0840066
0.0219646
0.0217622
0.0215765
0.0213998
0.0212385
0.0210787
0.0209245
0.0207624
0.0205955
0.0204129
0.0202175
0.0200014
0.019768
0.0195115
0.0192352
0.0189355
0.0186165
0.0182787
0.017933
0.017575
0.0172124
0.0168436
0.0164748
0.0161062
0.015743
0.0153864
0.0150406
0.0147154
0.014352
0.014055
0.0137741
0.0135603
0.0133909
0.0133064
0.0132948
0.0133936
0.0136029
0.0139571
0.0144659
0.0151581
0.0160376
0.017116
0.0183831
0.0198319
0.0214509
0.0232691
0.0230973
0.0210819
0.0211822
0.0228003
0.0239306
0.0251871
0.0274892
0.0289669
0.0294507
0.0297576
0.0298469
0.0296925
0.0293347
0.0289295
0.0288516
0.029008
0.0301171
0.032126
0.0345879
0.0352149
0.0379908
0.0388993
0.0417748
0.0426552
0.0442916
0.0429774
0.0411166
0.0364432
0.0318884
0.0280288
0.0265499
0.0262179
0.0276738
0.0309503
0.0329553
0.0352374
0.0340837
0.0336402
0.0347208
0.0353358
0.0366746
0.0382458
0.0409587
0.0440937
0.0486077
0.0537847
0.0603504
0.0674876
0.0747175
0.0803071
0.083938
0.0869144
0.0889197
0.0902095
0.0235076
0.0230865
0.0226572
0.0222421
0.0218331
0.0214337
0.0210396
0.0206515
0.0202684
0.0198903
0.0195182
0.0191515
0.0187925
0.0184403
0.018098
0.0177649
0.0174441
0.0171353
0.0168419
0.0165645
0.0163077
0.0160729
0.0158657
0.0156885
0.0155478
0.015448
0.0153973
0.0154068
0.0154304
0.0155365
0.0156965
0.0159358
0.0162429
0.0166368
0.0171205
0.0177175
0.0184208
0.0192523
0.0202012
0.0212822
0.0224745
0.0237849
0.0251928
0.0267168
0.028369
0.0279288
0.0248567
0.0235571
0.0236545
0.0248001
0.0251949
0.0263201
0.0286488
0.0300436
0.0303636
0.0306612
0.0306035
0.030485
0.0300303
0.029661
0.0297554
0.0303056
0.0318339
0.0342305
0.0369785
0.0383387
0.040562
0.041611
0.0442237
0.0453914
0.0465794
0.045442
0.0429673
0.0384843
0.0341577
0.0309382
0.0294897
0.0291055
0.0303195
0.0321993
0.0332388
0.0353658
0.0350005
0.0358101
0.0368513
0.0378796
0.039282
0.0413299
0.0442422
0.0479712
0.0528799
0.0587246
0.0658695
0.0732564
0.0804825
0.0860838
0.0900456
0.093033
0.0952299
0.0965956
0.0214525
0.0211011
0.0207435
0.0204092
0.0200816
0.0197728
0.0194724
0.0191895
0.0189186
0.0186666
0.0184316
0.0182178
0.0180243
0.0178539
0.0177076
0.0175882
0.0174982
0.0174411
0.0174215
0.0174443
0.0175165
0.0176446
0.0178381
0.0181062
0.0184618
0.0189176
0.0194916
0.0202016
0.0206412
0.0211494
0.0217003
0.0223116
0.0229566
0.023651
0.0244039
0.0252356
0.0261231
0.0270866
0.0281041
0.0291932
0.0303331
0.0315437
0.0328167
0.0341886
0.0328515
0.0292732
0.0269318
0.0257493
0.0257152
0.0263748
0.0262432
0.0272326
0.0294313
0.0306963
0.0308617
0.0311003
0.0308869
0.0307612
0.0301768
0.0298167
0.0300085
0.030807
0.0325648
0.0351695
0.0381928
0.0401384
0.0418667
0.0430256
0.0454254
0.0468002
0.0478789
0.0470124
0.044424
0.0403483
0.0364412
0.033764
0.0323305
0.0318354
0.0323821
0.0332618
0.0339652
0.0363994
0.0367993
0.0382463
0.0393428
0.0405858
0.0421548
0.0445097
0.0477933
0.0519341
0.0574651
0.0638432
0.0717087
0.0793209
0.0868537
0.0921461
0.0963933
0.099233
0.101679
0.103093
0.0199066
0.0197751
0.0196423
0.0195326
0.0194285
0.0193452
0.019271
0.01922
0.0191853
0.0191796
0.0191995
0.0192557
0.0193451
0.0194758
0.0196474
0.019868
0.0201401
0.0204728
0.0208718
0.0213473
0.0219079
0.0225655
0.0233311
0.0242184
0.0252405
0.0264118
0.0277475
0.0292542
0.0298532
0.0304737
0.0311011
0.0317463
0.032384
0.033025
0.0336956
0.034408
0.0351423
0.0359117
0.0367023
0.0375294
0.0383875
0.0392997
0.0402724
0.0368737
0.0337265
0.0307538
0.0287756
0.0275195
0.0273424
0.027558
0.0271005
0.0279323
0.0298716
0.0309601
0.030956
0.0310875
0.0307425
0.0305781
0.0298747
0.0295263
0.0297545
0.0306751
0.0324703
0.0351416
0.038335
0.0406884
0.042147
0.0434532
0.045633
0.0472765
0.0485015
0.0481285
0.0459334
0.0425695
0.0392036
0.0367894
0.0350444
0.0341726
0.0340056
0.0341648
0.0347619
0.0374439
0.0385249
0.0404535
0.0418035
0.0432607
0.0451165
0.0478119
0.0516319
0.0562425
0.0625867
0.0694455
0.078115
0.0856687
0.0935211
0.0984472
0.102958
0.1056
0.108287
0.109741
0.0206826
0.0207842
0.0208936
0.0210273
0.0211698
0.0213369
0.0215184
0.0217304
0.0219672
0.022245
0.0225615
0.0229319
0.023354
0.0238381
0.024382
0.024996
0.0256815
0.0264487
0.0273006
0.0282474
0.0292931
0.0304455
0.0317105
0.033092
0.0345916
0.0362065
0.0379313
0.0397448
0.0401644
0.0405711
0.0409661
0.041359
0.0417345
0.0420954
0.0424749
0.0428754
0.0432833
0.0437042
0.0441355
0.0434465
0.0424489
0.0409396
0.0392497
0.0368891
0.0345226
0.0319682
0.0301144
0.0288868
0.0284822
0.0283583
0.0276912
0.0284326
0.0299888
0.0308789
0.0306954
0.0307026
0.0302661
0.0300461
0.0292647
0.0289228
0.0291615
0.0301036
0.0318176
0.0344299
0.0376756
0.0403244
0.0418817
0.0433569
0.0453707
0.0474442
0.049042
0.0494331
0.0479235
0.0453258
0.0423473
0.0398973
0.0376298
0.0362326
0.0353722
0.0350717
0.0357029
0.0386887
0.0403553
0.042735
0.0444148
0.0460872
0.0482459
0.0513437
0.0557588
0.0609451
0.0681475
0.0755112
0.0849223
0.0923912
0.100389
0.104978
0.109644
0.112162
0.115006
0.116515
0.0238713
0.024205
0.0245584
0.0249386
0.0253324
0.0257532
0.026192
0.0266635
0.0271634
0.0277077
0.0282961
0.0289447
0.0296547
0.0304361
0.0312829
0.0322001
0.033182
0.0342324
0.0353457
0.0365238
0.0377615
0.0390588
0.0404017
0.0417813
0.043178
0.0445729
0.0459422
0.0472667
0.0473763
0.0471229
0.046142
0.0443658
0.0434737
0.0423935
0.0416371
0.0408712
0.040229
0.0394756
0.0388765
0.0382216
0.0377287
0.0371163
0.036525
0.0355497
0.0342099
0.0325826
0.0311484
0.0298542
0.0292337
0.0288354
0.0280508
0.0288194
0.0298661
0.0305101
0.0301185
0.0299923
0.0295006
0.029228
0.0284113
0.0280815
0.0283278
0.0292364
0.030797
0.0332499
0.0364359
0.0393587
0.0413179
0.0429588
0.0448727
0.0475119
0.0496522
0.0511122
0.0505478
0.0487646
0.0459097
0.0430281
0.0401107
0.0380845
0.0365704
0.0359377
0.0365946
0.0398318
0.0420612
0.0449362
0.047084
0.0490503
0.0515431
0.055165
0.06024
0.0661652
0.0742292
0.0821443
0.0920937
0.0995068
0.107437
0.11173
0.116377
0.118838
0.121751
0.123327
0.0286394
0.0291864
0.0297624
0.0303647
0.0309802
0.031618
0.0322675
0.0329377
0.0336218
0.0343309
0.0350632
0.035832
0.0366386
0.0374944
0.0383904
0.0393211
0.0402701
0.0412283
0.0421791
0.043111
0.0440062
0.0448461
0.0456059
0.0462643
0.0467951
0.0471774
0.0460308
0.0442008
0.0438365
0.0411332
0.0406512
0.0390294
0.0384383
0.0373593
0.0367197
0.0360288
0.0354535
0.0349238
0.0343467
0.0338518
0.0333574
0.0329391
0.0325817
0.0323031
0.032122
0.0318056
0.0311665
0.0303069
0.0297258
0.0291336
0.0283765
0.0290927
0.0295546
0.0298659
0.029244
0.0289935
0.0284861
0.028201
0.0274179
0.0271257
0.0273766
0.0282177
0.0295756
0.0317917
0.03482
0.0379727
0.0405093
0.042369
0.0442644
0.0475955
0.0504615
0.0532984
0.0538781
0.0528073
0.049683
0.0460175
0.042397
0.0396904
0.0376654
0.0367379
0.0374123
0.0408376
0.0435783
0.0470394
0.0498159
0.0521627
0.0550356
0.0593111
0.0651269
0.0719513
0.0808755
0.0894152
0.099695
0.107021
0.114663
0.11866
0.123099
0.125537
0.128436
0.130081
0.0335053
0.0341772
0.0348781
0.0355984
0.0363243
0.0370602
0.0377926
0.0385229
0.0392385
0.0399402
0.0406192
0.0412798
0.0419197
0.042547
0.0431623
0.0437587
0.0443129
0.0448044
0.0452076
0.0455017
0.0450493
0.0440955
0.0432669
0.0423681
0.0413869
0.0402419
0.0392737
0.0381809
0.0380434
0.0358514
0.0358014
0.0343876
0.0341893
0.0332992
0.0329711
0.0325037
0.032066
0.0317904
0.0313312
0.0309569
0.0305546
0.0302441
0.0299482
0.0297889
0.0297275
0.029756
0.0298598
0.0300514
0.029887
0.0296179
0.028865
0.0294114
0.0292748
0.0290914
0.0281348
0.0277142
0.0271989
0.0269286
0.0262072
0.0259617
0.0262379
0.0270311
0.028202
0.0301752
0.0329854
0.0362543
0.0392775
0.041488
0.0436906
0.0475836
0.0514784
0.0558742
0.0578401
0.0572722
0.0534517
0.0487839
0.0443782
0.0410321
0.038634
0.0374332
0.0380819
0.0415951
0.04482
0.0490015
0.0524958
0.0554802
0.0588745
0.0638806
0.0705877
0.0784323
0.0882381
0.0973459
0.107738
0.114879
0.122068
0.125723
0.129757
0.132136
0.134948
0.136651
0.0368343
0.0374728
0.0381274
0.038788
0.0394408
0.0400883
0.0407162
0.0413218
0.0418886
0.0424098
0.0428684
0.0432574
0.0435653
0.043792
0.0439367
0.0440077
0.0433606
0.0419403
0.0402494
0.038622
0.0371367
0.0359141
0.0349348
0.0341645
0.0334906
0.0328337
0.0323334
0.0319304
0.0320048
0.0304091
0.0307635
0.0295355
0.0297417
0.029073
0.0290809
0.028815
0.0285792
0.0284518
0.0281836
0.0280761
0.0279686
0.0279748
0.0279887
0.0280475
0.0280978
0.0282109
0.0285116
0.0289495
0.0294199
0.0298431
0.0294227
0.0296614
0.0288498
0.0279768
0.0266588
0.0260975
0.0256345
0.0254788
0.0249537
0.0248241
0.0251388
0.0258789
0.0268376
0.0285201
0.03097
0.0341473
0.0373836
0.0402093
0.0432878
0.0472602
0.0526664
0.0585405
0.062143
0.0617392
0.0568436
0.0511787
0.0461129
0.0422644
0.0395554
0.0381215
0.0386769
0.0422119
0.0459639
0.0509237
0.0552497
0.0593513
0.063488
0.0692273
0.0770673
0.0859673
0.0966834
0.106077
0.116202
0.122869
0.129454
0.132756
0.136226
0.138425
0.141069
0.142811
0.0375262
0.0379744
0.0384183
0.0388529
0.0392662
0.0396614
0.0400281
0.0403627
0.040649
0.040881
0.0410411
0.0411164
0.0410874
0.0409423
0.0406706
0.0377869
0.0359859
0.0349072
0.0335779
0.0318964
0.0301823
0.0286623
0.027411
0.0264918
0.0258649
0.0254607
0.025313
0.0254193
0.0258366
0.025216
0.0261048
0.0250476
0.0256192
0.0250772
0.025366
0.0251354
0.0251522
0.0249724
0.0249377
0.0249719
0.0250612
0.0252053
0.0255029
0.0258355
0.0263307
0.0267947
0.0273335
0.0278357
0.0285971
0.0294844
0.0300616
0.030226
0.0291268
0.0273342
0.0252422
0.0242289
0.0237211
0.0236664
0.0233442
0.0232916
0.0236552
0.0244143
0.0252225
0.026729
0.0288037
0.0318315
0.0350961
0.0385718
0.0426298
0.0465957
0.0536481
0.0608997
0.0661517
0.0655963
0.0596079
0.0530395
0.0475035
0.043369
0.0404267
0.0388133
0.0392062
0.0427108
0.0470498
0.0528701
0.0584562
0.0643209
0.0695723
0.0762622
0.0855944
0.0955318
0.107
0.11604
0.125097
0.130595
0.136282
0.139396
0.142346
0.144187
0.146441
0.148167
0.0353974
0.0355758
0.0357323
0.0358694
0.0359781
0.0360626
0.0361175
0.0361394
0.0361161
0.0360454
0.0359178
0.0357233
0.0354459
0.0350707
0.0345799
0.0339622
0.0324313
0.029638
0.0280234
0.0264767
0.0245938
0.0226438
0.0210199
0.0197776
0.0190173
0.0186528
0.0185867
0.0174831
0.0179498
0.0184122
0.0188579
0.0193702
0.0199299
0.0205998
0.0212889
0.0217873
0.0221397
0.02206
0.0223025
0.0223813
0.0226137
0.0227474
0.0231036
0.023408
0.0239815
0.0246235
0.0254938
0.0263779
0.0274008
0.0286029
0.0296239
0.0301392
0.0282863
0.0255441
0.0230039
0.0217298
0.0212633
0.021485
0.0216965
0.0219912
0.0223907
0.0233203
0.0238754
0.0252172
0.0266642
0.0293117
0.0323953
0.0361461
0.040682
0.0461364
0.0535624
0.0627028
0.0689709
0.0679804
0.0611854
0.0542128
0.0485459
0.0443842
0.0413642
0.0396377
0.0398143
0.0431759
0.0478999
0.0546339
0.0619222
0.0701912
0.0774881
0.086083
0.0973705
0.108542
0.119938
0.127577
0.134374
0.138112
0.142392
0.145524
0.148249
0.149648
0.150974
0.152393
0.0310514
0.0309798
0.0308793
0.0307581
0.030611
0.0304409
0.030243
0.0300163
0.0297558
0.0294623
0.0291304
0.0287584
0.0283377
0.0278607
0.0273132
0.0266812
0.0259475
0.0251025
0.0241466
0.0218636
0.0199688
0.0179874
0.0160843
0.0145503
0.0134773
0.0128496
0.0126083
0.0113173
0.0117069
0.0120795
0.0124334
0.0128595
0.0133128
0.0138744
0.0144513
0.0150951
0.015772
0.01651
0.0172943
0.0181528
0.0190882
0.0201286
0.0206335
0.0209361
0.0214859
0.0221567
0.0231724
0.0243625
0.0259014
0.0277409
0.029683
0.0324045
0.0320695
0.0279281
0.0229439
0.0201022
0.0189296
0.0189786
0.0192448
0.0200104
0.0202417
0.0214604
0.021734
0.0231824
0.024198
0.0268613
0.0298309
0.0335964
0.0378694
0.0452925
0.0528461
0.0637086
0.0705873
0.0688232
0.0616024
0.0545905
0.0490237
0.044919
0.0419394
0.040067
0.0397875
0.0423755
0.0475243
0.0549687
0.063935
0.0748167
0.0856435
0.0966634
0.109305
0.121611
0.129054
0.133022
0.137076
0.141118
0.145053
0.148741
0.15202
0.153949
0.154688
0.155554
0.025466
0.0252314
0.0249701
0.0246927
0.0243971
0.0240836
0.0237496
0.0233954
0.0230193
0.0226223
0.0222026
0.0217601
0.0212918
0.0207961
0.020267
0.0196979
0.0190767
0.01839
0.0176219
0.0167628
0.0158202
0.0148046
0.0134789
0.0111378
0.00943161
0.00846339
0.0082603
0.00730583
0.00752617
0.00774874
0.00795033
0.00822037
0.00850538
0.0088816
0.0092706
0.00972528
0.0102084
0.0107533
0.0113341
0.0119862
0.0127048
0.0135248
0.0144466
0.0155014
0.0166938
0.0180409
0.0195316
0.0209282
0.0225597
0.0244745
0.0262336
0.0277692
0.0287831
0.0254617
0.0197712
0.0176462
0.0171575
0.0173054
0.0177633
0.019229
0.0192854
0.0207564
0.0209031
0.0223476
0.022871
0.0249312
0.0268262
0.0301928
0.0341524
0.0405086
0.0501125
0.0582597
0.0646085
0.0631949
0.0580022
0.0523314
0.0478861
0.044458
0.0417645
0.039884
0.03935
0.0417036
0.0464092
0.0532178
0.062735
0.074106
0.0874879
0.0952922
0.0989343
0.102936
0.107319
0.112105
0.117307
0.122913
0.128866
0.135074
0.141342
0.147345
0.152581
0.156372
0.0196244
0.0193299
0.0190162
0.0186923
0.0183588
0.0180142
0.0176585
0.017291
0.0169118
0.0165207
0.0161173
0.0157017
0.0152734
0.0148325
0.0143781
0.0139096
0.0134246
0.0129192
0.0123847
0.0118082
0.0111736
0.0104687
0.00969971
0.00887378
0.00735155
0.00587818
0.00546203
0.00512533
0.00517021
0.00523538
0.00529706
0.00541067
0.00553607
0.00572246
0.00591714
0.00616133
0.00642395
0.00673476
0.00706805
0.00745634
0.00788922
0.00839368
0.00898488
0.00968237
0.0104959
0.0114408
0.0125162
0.0137155
0.0150064
0.0163421
0.0176415
0.0188366
0.019447
0.0198793
0.0203855
0.0211832
0.0188643
0.0172733
0.0170916
0.0190859
0.0185992
0.0204972
0.0204269
0.0212729
0.0217456
0.022781
0.0257279
0.029791
0.0348481
0.0402153
0.0534666
0.056802
0.0565168
0.0564345
0.0552675
0.0490672
0.0445176
0.0414809
0.0392294
0.0376137
0.0363603
0.0364191
0.0390693
0.0450336
0.0544758
0.0605342
0.0627889
0.0656887
0.0687375
0.0722295
0.0762278
0.0808179
0.0860641
0.092111
0.0990872
0.107189
0.116556
0.127251
0.138942
0.150368
0.0143738
0.0141081
0.0138314
0.013549
0.0132641
0.0129733
0.0126789
0.0123786
0.012074
0.0117638
0.0114487
0.0111282
0.0108027
0.0104719
0.0101363
0.00979572
0.00945036
0.00909977
0.00874239
0.00837579
0.00799104
0.00757471
0.00711187
0.00660388
0.00605139
0.00493557
0.00384248
0.0040385
0.00405208
0.00402229
0.00399672
0.00400941
0.00403115
0.00408818
0.00415068
0.0042416
0.00434081
0.00446707
0.00460188
0.00476546
0.00494938
0.00517003
0.00543387
0.0057609
0.00615692
0.0066362
0.00720087
0.0078561
0.00858489
0.00936574
0.0101539
0.010913
0.0112649
0.0114578
0.011595
0.0118088
0.00946824
0.00959919
0.0147007
0.0206136
0.0225661
0.0255805
0.0264288
0.0280421
0.0290675
0.0290953
0.0308665
0.0292781
0.0287869
0.028926
0.031652
0.0334643
0.0330736
0.0328268
0.0326492
0.0324683
0.0322728
0.0320552
0.0315152
0.0301561
0.0290852
0.0296072
0.0308564
0.0313192
0.0317294
0.0322984
0.0333939
0.0350794
0.0368734
0.03899
0.0414667
0.0443941
0.0478317
0.0519971
0.0571063
0.0636071
0.0721156
0.0837675
0.100424
0.125293
0.0103886
0.0102091
0.0100248
0.00983713
0.00965044
0.00946042
0.00927034
0.00907704
0.0088828
0.00868544
0.00848635
0.00828403
0.00807905
0.00787029
0.00765786
0.00744144
0.00722159
0.0069992
0.00677524
0.00655016
0.00632313
0.00609116
0.00583874
0.0055363
0.00515635
0.00451199
0.00270573
0.00298454
0.00347695
0.0034534
0.00339592
0.00338095
0.0033579
0.00336394
0.00336462
0.00338403
0.00340101
0.00343001
0.00345571
0.00349187
0.00353201
0.00358762
0.00365878
0.00375325
0.00387457
0.00403185
0.0042286
0.00446617
0.00474145
0.00504138
0.00534684
0.00563553
0.00576288
0.00579737
0.00576181
0.0057318
0.0057823
0.00628957
0.00861141
0.010947
0.011477
0.0119757
0.0127212
0.013532
0.0141801
0.015059
0.0157902
0.016334
0.0168691
0.0167817
0.0153313
0.0156792
0.0154197
0.0147451
0.0143863
0.014075
0.0137924
0.0135798
0.0132701
0.0130256
0.0127614
0.0127778
0.01297
0.0130033
0.0128001
0.0126728
0.0129073
0.0133885
0.013862
0.0144561
0.0151923
0.016089
0.0171315
0.0184127
0.0199876
0.0220596
0.0249074
0.0292281
0.0366542
0.0539218
0.0075034
0.00740228
0.00729588
0.00718522
0.00707336
0.0069569
0.00683863
0.00671532
0.00658947
0.00645809
0.00632329
0.00618232
0.00603673
0.00588406
0.00572546
0.00555901
0.00538525
0.00520187
0.00500846
0.00480322
0.00458762
0.00436154
0.00412229
0.00385872
0.00354934
0.00318459
0.0027558
0.000638867
0.000618598
0.00061333
0.0006067
0.000607375
0.000609446
0.000614679
0.000620273
0.000626358
0.00063242
0.000637506
0.000641094
0.000642462
0.000642463
0.000641159
0.000639434
0.00063811
0.000638149
0.000640112
0.000644182
0.000651019
0.000660491
0.000672946
0.000687146
0.000699381
0.000704801
0.00070511
0.000701672
0.00069577
0.000683674
0.000649547
0.000672567
0.000733422
0.00078029
0.000824327
0.000858457
0.000891228
0.000918742
0.000946412
0.000971187
0.00100788
0.00104763
0.00109388
0.0011432
0.00118108
0.00121331
0.00123603
0.00124349
0.00124205
0.00123294
0.00121667
0.00119516
0.00117003
0.00114484
0.00113424
0.00112301
0.00110729
0.00108731
0.00106339
0.0010385
0.00101774
0.000999782
0.000984184
0.000969964
0.000956388
0.0009417
0.000925
0.000904904
0.000880376
0.000850297
0.000813766
0.000769872
0.000717689
0.000376876
0.0196669
0.0223962
0.0224855
0.0224883
0.022488
0.0224875
0.0224869
0.0224863
0.0224858
0.0224854
0.0224854
0.0224856
0.0224862
0.0224867
0.0224873
0.0224877
0.0224881
0.0224884
0.0224887
0.000403024
0.0176242
0.022216
0.0224617
0.0224721
0.0224721
0.0224717
0.0224712
0.0224707
0.0224702
0.0224701
0.0224704
0.0224714
0.0224729
0.0224745
0.0224759
0.0224772
0.0224782
0.022479
0.0224795
0.000427822
0.0161198
0.0219891
0.0224322
0.0224558
0.0224567
0.0224564
0.0224559
0.0224556
0.0224552
0.0224553
0.0224561
0.0224579
0.0224604
0.022463
0.0224654
0.0224674
0.022469
0.0224703
0.0224712
0.000451216
0.0149563
0.0217303
0.0223967
0.0224395
0.0224417
0.0224416
0.0224412
0.022441
0.0224407
0.022441
0.0224422
0.0224448
0.0224482
0.0224519
0.0224552
0.022458
0.0224603
0.022462
0.0224632
0.000473213
0.0140185
0.0214489
0.0223547
0.0224227
0.0224269
0.022427
0.0224268
0.0224267
0.0224266
0.0224271
0.0224288
0.022432
0.0224365
0.0224412
0.0224454
0.022449
0.0224519
0.0224541
0.0224557
0.000493889
0.0132074
0.0211481
0.0223057
0.0224051
0.0224122
0.0224127
0.0224126
0.0224126
0.0224127
0.0224134
0.0224156
0.0224197
0.0224251
0.0224309
0.0224361
0.0224405
0.022444
0.0224467
0.0224485
0.000513249
0.0124531
0.0208272
0.0222496
0.0223866
0.0223975
0.0223984
0.0223985
0.0223987
0.0223991
0.0224001
0.0224028
0.0224076
0.0224141
0.0224209
0.022427
0.0224322
0.0224364
0.0224396
0.0224417
0.0005314
0.0117425
0.0204879
0.0221863
0.022367
0.0223828
0.0223843
0.0223847
0.0223851
0.0223857
0.0223871
0.0223903
0.022396
0.0224034
0.0224113
0.0224184
0.0224244
0.0224293
0.0224329
0.0224352
0.000548361
0.0110855
0.0201344
0.0221158
0.0223462
0.0223681
0.0223703
0.0223711
0.0223717
0.0223726
0.0223743
0.0223781
0.0223847
0.0223931
0.022402
0.0224101
0.022417
0.0224225
0.0224266
0.0224292
0.000564248
0.0104897
0.0197712
0.0220382
0.0223241
0.0223533
0.0223566
0.0223577
0.0223586
0.0223598
0.0223619
0.0223663
0.0223737
0.0223832
0.0223932
0.0224022
0.02241
0.0224161
0.0224207
0.0224236
0.000579068
0.00995637
0.0194033
0.0219539
0.0223007
0.0223385
0.022343
0.0223445
0.0223458
0.0223473
0.0223498
0.0223549
0.0223632
0.0223737
0.0223848
0.0223948
0.0224034
0.0224102
0.0224153
0.0224185
0.00059293
0.00948183
0.0190352
0.0218633
0.0222759
0.0223238
0.0223297
0.0223317
0.0223333
0.0223352
0.0223382
0.0223439
0.0223531
0.0223647
0.0223768
0.0223879
0.0223972
0.0224048
0.0224104
0.0224138
0.000605823
0.00906097
0.0186707
0.0217668
0.0222497
0.022309
0.0223167
0.0223192
0.0223212
0.0223235
0.022327
0.0223334
0.0223434
0.0223561
0.0223693
0.0223814
0.0223916
0.0223998
0.022406
0.0224097
0.00061785
0.00868769
0.0183128
0.0216653
0.0222221
0.0222943
0.022304
0.022307
0.0223094
0.0223123
0.0223164
0.0223234
0.0223344
0.0223481
0.0223624
0.0223755
0.0223866
0.0223955
0.0224021
0.0224061
0.000628974
0.00835541
0.0179641
0.0215595
0.0221932
0.0222797
0.0222918
0.0222953
0.0222982
0.0223016
0.0223062
0.022314
0.0223259
0.0223407
0.0223561
0.0223702
0.0223822
0.0223918
0.022399
0.0224032
0.000639226
0.00805461
0.0176262
0.0214501
0.0221632
0.0222652
0.0222799
0.0222842
0.0222876
0.0222915
0.0222968
0.0223053
0.0223181
0.022334
0.0223505
0.0223656
0.0223785
0.0223888
0.0223965
0.0224011
0.000648556
0.00778229
0.0173008
0.0213381
0.0221322
0.0222511
0.0222687
0.0222737
0.0222778
0.0222822
0.0222881
0.0222974
0.0223111
0.0223282
0.0223458
0.022362
0.0223758
0.0223867
0.0223949
0.0223998
0.00065701
0.00753563
0.016989
0.0212245
0.0221005
0.0222375
0.0222583
0.022264
0.0222687
0.0222738
0.0222803
0.0222904
0.0223051
0.0223233
0.0223421
0.0223593
0.022374
0.0223856
0.0223943
0.0223995
0.000664454
0.00731243
0.0166922
0.0211104
0.0220684
0.0222245
0.0222486
0.0222553
0.0222608
0.0222665
0.0222737
0.0222845
0.0223003
0.0223195
0.0223395
0.0223577
0.0223733
0.0223857
0.0223949
0.0224003
0.000671128
0.00711075
0.0164115
0.0209971
0.0220363
0.0222125
0.0222401
0.022248
0.0222541
0.0222604
0.0222683
0.02228
0.0222967
0.0223171
0.0223382
0.0223575
0.022374
0.0223871
0.0223969
0.0224026
0.000676556
0.00692915
0.0161483
0.0208861
0.0220049
0.0222017
0.0222329
0.0222422
0.022249
0.0222559
0.0222645
0.022277
0.0222948
0.0223163
0.0223385
0.0223589
0.0223763
0.02239
0.0224005
0.0224064
0.000681136
0.00676657
0.0159041
0.0207791
0.0219745
0.0221925
0.0222276
0.0222384
0.0222458
0.0222534
0.0222626
0.0222759
0.0222947
0.0223173
0.0223406
0.0223621
0.0223804
0.0223948
0.0224058
0.022412
0.00068467
0.00662212
0.0156803
0.0206782
0.0219459
0.0221856
0.0222248
0.0222371
0.0222451
0.0222532
0.022263
0.022277
0.0222967
0.0223204
0.0223449
0.0223674
0.0223866
0.0224018
0.0224132
0.0224198
0.000686679
0.00648863
0.015471
0.0205835
0.0219195
0.0221815
0.0222253
0.0222389
0.0222472
0.0222558
0.0222661
0.0222807
0.0223013
0.0223261
0.0223516
0.0223752
0.0223953
0.0224111
0.0224231
0.02243
0.000689633
0.00634956
0.0152565
0.0204904
0.0218948
0.0221813
0.0222299
0.0222446
0.022253
0.0222618
0.0222723
0.0222875
0.0223089
0.0223346
0.0223613
0.0223858
0.0224068
0.0224233
0.0224358
0.0224431
0.000696023
0.00620448
0.0150323
0.0201351
0.0218729
0.0221863