/*--------------------------------*- C++ -*----------------------------------*\
  =========                 |
  \\      /  F ield         | OpenFOAM: The Open Source CFD Toolbox
   \\    /   O peration     | Website:  https://openfoam.org
    \\  /    A nd           | Version:  7
     \\/     M anipulation  |
\*---------------------------------------------------------------------------*/
FoamFile
{
    version     2.0;
    format      ascii;
    class       volScalarField;
    location    "0.1125";
    object      nut;
}
// * * * * * * * * * * * * * * * * * * * * * * * * * * * * * * * * * * * * * //

dimensions      [0 2 -1 0 0 0 0];

internalField   nonuniform List<scalar> 
48560
(
0.0109737
0.0108591
0.0107428
0.0106293
0.0105199
0.0104152
0.0103164
0.0102242
0.0101392
0.0100622
0.00999376
0.00993445
0.00988481
0.00984534
0.00981655
0.00979891
0.00979293
0.00979909
0.00981794
0.00985001
0.00989589
0.00995622
0.0100317
0.0101231
0.0102312
0.010357
0.0105014
0.0106656
0.0109097
0.011187
0.0114957
0.0118335
0.0121954
0.0125761
0.0129685
0.0133742
0.0137934
0.014233
0.0147002
0.0152163
0.0158008
0.0164517
0.0171728
0.0179348
0.0186576
0.0190399
0.0182837
0.0159676
0.0125075
0.00882589
0.00272882
0.000930474
0.000976962
0.000968113
0.000996072
0.000993333
0.00103448
0.00104539
0.00111906
0.00117796
0.00133461
0.00141798
0.00147704
0.00134195
0.00147459
0.00116007
0.00117267
0.001222
0.00130549
0.00140813
0.0015377
0.00167394
0.00182742
0.00197027
0.00210751
0.00220704
0.0022495
0.00218696
0.00202248
0.00182361
0.00160592
0.00163223
0.00174761
0.00175034
0.00173292
0.00166658
0.00160078
0.00153269
0.00148619
0.00144006
0.00141113
0.00138601
0.00136374
0.00133896
0.00131369
0.00128166
0.00124376
0.00119479
0.00113398
0.00105896
0.0104091
0.0103744
0.0103419
0.0103136
0.0102905
0.0102733
0.0102629
0.0102597
0.0102646
0.010278
0.0103004
0.0103324
0.0103745
0.0104271
0.0104907
0.0105659
0.0106532
0.0107528
0.0108653
0.0109906
0.0111293
0.0112816
0.0114477
0.0116277
0.0118218
0.0120299
0.0122516
0.0124871
0.012832
0.0131973
0.0135867
0.0139978
0.0144355
0.014903
0.0154153
0.0159906
0.0166401
0.017377
0.0182058
0.019126
0.020134
0.021161
0.0220253
0.0223329
0.0217185
0.0199047
0.0171451
0.0139664
0.0113517
0.00999881
0.0104304
0.016789
0.0167868
0.0166464
0.0166964
0.0165326
0.0155168
0.015302
0.0139818
0.013917
0.0124221
0.0118381
0.0105568
0.0111026
0.00970129
0.00967832
0.00942968
0.00948681
0.00922813
0.00919247
0.00917856
0.00931149
0.00947377
0.00972375
0.00999412
0.0101932
0.0101336
0.00967518
0.010505
0.0103687
0.0114339
0.0162505
0.0148503
0.0140152
0.0136373
0.0136112
0.0142586
0.0159081
0.0176915
0.0198597
0.0220432
0.0241474
0.0263964
0.0289674
0.0318087
0.0351617
0.0392933
0.0454352
0.0557386
0.0795714
0.0112002
0.0112295
0.0112663
0.0113097
0.011361
0.0114201
0.011488
0.0115643
0.0116498
0.0117441
0.0118481
0.0119613
0.0120846
0.0122177
0.0123611
0.0125146
0.0126786
0.0128528
0.0130375
0.013233
0.0134397
0.0136578
0.013888
0.0141308
0.0143871
0.0146576
0.0149435
0.0152475
0.0157159
0.0162311
0.0168027
0.0174365
0.0181418
0.0189255
0.0197988
0.020765
0.021823
0.0229502
0.0240795
0.0250318
0.0256201
0.0255091
0.0245739
0.0227741
0.0203055
0.0175607
0.015238
0.0137253
0.0134538
0.0146103
0.0178898
0.0263048
0.0259034
0.0254525
0.0240056
0.0247609
0.0224106
0.0236589
0.0202966
0.0210284
0.0181477
0.017271
0.0154706
0.0156266
0.0140942
0.0145019
0.0146368
0.0154653
0.0152141
0.0160481
0.0159416
0.0158821
0.0159223
0.0160211
0.0162259
0.0165007
0.0168834
0.0171806
0.0177248
0.016366
0.0234447
0.0373359
0.0346863
0.0332347
0.0328947
0.0274274
0.0316573
0.0323294
0.0425924
0.0518707
0.062314
0.0684964
0.0749958
0.0825782
0.091528
0.102933
0.106043
0.0962002
0.0892948
0.0874465
0.0136173
0.0136787
0.0137525
0.0138369
0.013933
0.0140402
0.0141593
0.0142895
0.0144314
0.0145848
0.0147504
0.0149282
0.0151192
0.0153235
0.015542
0.0157749
0.0160235
0.0162883
0.0165708
0.0168723
0.0171936
0.0175362
0.0179013
0.0182903
0.0187051
0.0191477
0.0196201
0.0201262
0.020895
0.0217336
0.0226448
0.0236271
0.0246716
0.0257531
0.0268252
0.0278008
0.0285471
0.028908
0.0287238
0.0279608
0.0265611
0.0246426
0.0224446
0.0202724
0.0183543
0.0170161
0.0165502
0.0171674
0.0189193
0.0219319
0.0272161
0.0334789
0.0342215
0.0346131
0.0317214
0.0327533
0.0289249
0.0294115
0.0257899
0.0257824
0.0227124
0.0213042
0.0197125
0.0196307
0.0194055
0.0194677
0.0207703
0.0222168
0.0227014
0.0230523
0.0234995
0.0240816
0.0247438
0.0255245
0.0259533
0.0237225
0.0202804
0.0202107
0.0232196
0.0274623
0.0476222
0.0700052
0.0670666
0.0658038
0.053242
0.0492558
0.0537779
0.0500329
0.0538411
0.0542469
0.06033
0.0647233
0.0726807
0.0790184
0.086867
0.0931052
0.0973257
0.0977887
0.0967481
0.096193
0.0177783
0.0178718
0.0179882
0.018125
0.0182826
0.0184609
0.01866
0.0188801
0.0191215
0.0193846
0.0196701
0.0199784
0.0203103
0.0206663
0.0210473
0.0214537
0.0218864
0.0223456
0.022832
0.0233459
0.0238878
0.0244576
0.0250561
0.0256833
0.0263386
0.0270193
0.0277208
0.0284363
0.0293866
0.0303183
0.0311549
0.0318502
0.0323067
0.0324544
0.032257
0.0316659
0.030659
0.0292661
0.0275579
0.0257551
0.0239141
0.0222255
0.0208049
0.0198437
0.019522
0.0200296
0.0214605
0.0237976
0.0270606
0.0296541
0.0360643
0.0376665
0.0388587
0.0384143
0.0369934
0.0370498
0.034373
0.034254
0.0313471
0.0309451
0.0283845
0.0268428
0.0254699
0.0255596
0.0266852
0.0261878
0.0291694
0.0302674
0.0330638
0.0342477
0.0360682
0.0369096
0.0370512
0.0357787
0.0327115
0.028688
0.0254249
0.0256161
0.0263287
0.0347237
0.0534029
0.0654451
0.0693551
0.0465564
0.0433945
0.0444597
0.0465761
0.0467117
0.0523062
0.0547498
0.0625049
0.0677413
0.0772265
0.0851345
0.095418
0.101606
0.103965
0.105308
0.106898
0.10803
0.025078
0.0251881
0.0253442
0.0255388
0.025773
0.026043
0.02635
0.0266913
0.0270681
0.0274782
0.0279227
0.0283998
0.0289102
0.029452
0.0300248
0.0306253
0.0312506
0.0318931
0.0325442
0.0331943
0.0338302
0.034437
0.0349962
0.0354909
0.0359031
0.0362185
0.0364248
0.0365192
0.0364065
0.0360941
0.0355032
0.0346811
0.0335875
0.0322968
0.030865
0.0293684
0.0278435
0.0263766
0.025028
0.0238814
0.0230179
0.0225571
0.0226106
0.0233035
0.0247243
0.0269011
0.0297591
0.0332658
0.0326664
0.03497
0.0395274
0.0408265
0.0425767
0.0428529
0.0422887
0.0412482
0.0399837
0.038658
0.0368357
0.0355084
0.0337719
0.0321891
0.031672
0.032449
0.0348338
0.0342304
0.0383857
0.0391555
0.0435121
0.0439154
0.0470507
0.0458748
0.0457181
0.0417834
0.0373013
0.031993
0.0294644
0.0303146
0.0323704
0.0409913
0.0529832
0.060289
0.0606647
0.048341
0.0496819
0.0489255
0.0509915
0.0516477
0.0560504
0.0590665
0.0657659
0.0706939
0.078945
0.0865636
0.0966383
0.105553
0.110598
0.113772
0.116131
0.117678
0.0366395
0.0366407
0.0367174
0.0368547
0.0370545
0.0373022
0.0375963
0.037922
0.038275
0.0386405
0.039013
0.0393769
0.039724
0.0400378
0.0403082
0.0405195
0.0406632
0.0407282
0.0407092
0.0405936
0.0403788
0.0400584
0.0396345
0.0391078
0.0384857
0.0377777
0.0369991
0.0361698
0.0350382
0.0338627
0.032645
0.0314319
0.030237
0.0291119
0.0280685
0.0271607
0.0264216
0.0259132
0.0256864
0.0258158
0.0263762
0.027441
0.0290651
0.0312697
0.0340318
0.0372626
0.040921
0.04015
0.0381804
0.0408377
0.0430942
0.0437596
0.045572
0.0460217
0.045393
0.0442748
0.0431342
0.041758
0.0401291
0.0387969
0.0375496
0.0366812
0.0369687
0.038761
0.0416363
0.0415589
0.045704
0.0467007
0.0509331
0.0515927
0.0545735
0.0529753
0.0521252
0.0469553
0.0418265
0.0365259
0.0345857
0.0347568
0.037383
0.0451311
0.0515651
0.0557938
0.0536869
0.0491198
0.0515683
0.0516652
0.0541806
0.055791
0.0602668
0.0640525
0.0707667
0.0772785
0.0868282
0.0964079
0.105904
0.113517
0.118266
0.122237
0.124853
0.126588
0.04939
0.0489478
0.0485355
0.0481657
0.047821
0.0474923
0.0471635
0.0468216
0.0464544
0.0460515
0.0456068
0.0451135
0.0445696
0.0439709
0.0433186
0.0426128
0.0418598
0.041066
0.0402442
0.0393957
0.0385313
0.0376552
0.0367779
0.0359051
0.0350463
0.0342075
0.0333963
0.0326186
0.0318271
0.031107
0.0304832
0.0299662
0.0295901
0.0293699
0.0293409
0.0295323
0.0299882
0.0307445
0.0318535
0.0333493
0.0352585
0.0375797
0.0402989
0.0433572
0.0467083
0.0503239
0.0494218
0.0443642
0.0435173
0.0453539
0.0457609
0.0460196
0.0481972
0.0488093
0.0478953
0.0467914
0.0455482
0.0440502
0.0424493
0.0409371
0.0401075
0.0397939
0.0409944
0.0435509
0.0468254
0.0476737
0.0514126
0.0526873
0.0566338
0.0579713
0.0603713
0.0588784
0.0566935
0.0507441
0.0449813
0.0402554
0.0389459
0.0393033
0.0422549
0.0479878
0.0517122
0.0557898
0.0542205
0.0536096
0.0553422
0.0563126
0.0583805
0.0607351
0.0647918
0.0693925
0.0760314
0.0835723
0.0931476
0.103501
0.113949
0.121914
0.127002
0.131214
0.134059
0.135943
0.0527414
0.0517354
0.0507179
0.0497451
0.0487871
0.0478586
0.0469385
0.0460355
0.0451376
0.0442523
0.0433751
0.0425135
0.0416671
0.0408416
0.0400386
0.0392627
0.0385165
0.0378035
0.0371264
0.0364917
0.0359047
0.0353725
0.0349028
0.0345046
0.0341881
0.0339652
0.0338505
0.0338612
0.0339491
0.0341605
0.0345245
0.0350371
0.0357197
0.0365718
0.0376396
0.0389374
0.0404842
0.0422912
0.0443651
0.0467023
0.0492814
0.0520758
0.0550517
0.0581876
0.0614854
0.0600576
0.0528329
0.0492171
0.0482692
0.0490782
0.0480502
0.0480701
0.0502953
0.0507621
0.049546
0.0484003
0.0468864
0.0454087
0.0436282
0.0421439
0.0415345
0.0417442
0.0434934
0.0465579
0.0502082
0.0520442
0.0550421
0.056501
0.0601036
0.0618341
0.0636464
0.0624111
0.0594144
0.0537532
0.0483469
0.0445648
0.0433208
0.0435993
0.0461913
0.0497717
0.0519614
0.0557347
0.0553888
0.0567529
0.0584131
0.0600305
0.0621884
0.0652834
0.0696379
0.0751531
0.0823876
0.0909448
0.101397
0.112126
0.122576
0.130579
0.13619
0.140434
0.143575
0.145575
0.0475774
0.0466749
0.0457879
0.0449567
0.0441633
0.0434161
0.0427028
0.0420309
0.0413943
0.0408006
0.0402482
0.0397446
0.0392907
0.0388929
0.0385537
0.0382798
0.0380762
0.0379512
0.0379133
0.0379742
0.0381464
0.0384459
0.0388904
0.0395015
0.0403042
0.0413284
0.0426092
0.0441798
0.0451932
0.0463078
0.0475431
0.0488807
0.0503108
0.0518232
0.0534808
0.0552881
0.057235
0.0593234
0.0615374
0.0638727
0.0663069
0.0688343
0.0714419
0.0741384
0.0708366
0.0625794
0.056874
0.0534459
0.0521705
0.0519775
0.0499524
0.0497473
0.0517665
0.0520316
0.0505543
0.0493081
0.0475309
0.0460281
0.0440382
0.0425601
0.0420806
0.0426261
0.0446751
0.04801
0.0520246
0.0546514
0.0569832
0.0585876
0.0619089
0.0639236
0.0656029
0.0647514
0.0616208
0.0565433
0.0517499
0.0487561
0.0475349
0.0476448
0.0492282
0.051257
0.0528919
0.057096
0.0579378
0.0602937
0.0620337
0.0639803
0.0663923
0.0699568
0.0748803
0.0810219
0.0892078
0.0985735
0.110123
0.121196
0.132125
0.139679
0.145741
0.149777
0.153302
0.155376
0.0435628
0.043131
0.0427333
0.0423857
0.0420839
0.0418297
0.0416223
0.041466
0.0413637
0.041322
0.0413467
0.0414458
0.0416265
0.0418974
0.0422676
0.0427482
0.0433512
0.0440912
0.0449845
0.04605
0.0473083
0.0487829
0.0504985
0.052483
0.0547649
0.0573743
0.0603414
0.0636693
0.0650618
0.0664498
0.0678731
0.0693009
0.070724
0.0721254
0.073601
0.0751449
0.076749
0.078407
0.0801093
0.0818507
0.0836292
0.0854483
0.0873126
0.0795901
0.0723373
0.0653606
0.0603919
0.0567805
0.0551902
0.0541212
0.05151
0.0510611
0.0526646
0.0526703
0.0509298
0.0495256
0.0475415
0.0459833
0.0438146
0.0423598
0.0419347
0.0426512
0.0447436
0.0481611
0.0523988
0.0555771
0.0575471
0.0593499
0.0623754
0.0647579
0.0666472
0.0664822
0.0639111
0.0598416
0.0558315
0.0532245
0.0515442
0.0510856
0.0515826
0.0524836
0.0539216
0.0584693
0.0603635
0.0634621
0.0655929
0.0678665
0.07072
0.0748058
0.0805538
0.0874109
0.0968403
0.106933
0.119707
0.130692
0.142121
0.149141
0.155622
0.159372
0.163267
0.165404
0.0448213
0.0448747
0.0449782
0.0451328
0.0453428
0.0456101
0.0459412
0.0463417
0.0468207
0.047387
0.0480517
0.0488254
0.0497202
0.0507459
0.0519144
0.0532379
0.0547316
0.0564094
0.0582879
0.060382
0.0627073
0.0652758
0.0681015
0.0711912
0.0745474
0.0781619
0.0820175
0.0860483
0.0871161
0.0880937
0.0890535
0.0899675
0.0908398
0.0916472
0.0924912
0.0933579
0.0942444
0.0951393
0.096042
0.0944619
0.0921661
0.088687
0.0847402
0.0792496
0.0736544
0.0675555
0.0628322
0.059275
0.0572292
0.0555256
0.0525741
0.0520312
0.0530173
0.0527468
0.0507457
0.0491722
0.0470588
0.0454317
0.0431553
0.0417243
0.0413242
0.0420776
0.044055
0.0473862
0.051688
0.0552657
0.0573748
0.0594083
0.0622084
0.0651816
0.0675898
0.0684875
0.0668821
0.0639007
0.0604541
0.0577975
0.0553432
0.0540929
0.0535289
0.0537011
0.0551624
0.060146
0.0629416
0.0667334
0.0693724
0.0719737
0.0752921
0.079995
0.0866556
0.094392
0.105131
0.115989
0.129892
0.140755
0.15242
0.158951
0.165685
0.169262
0.173401
0.17562
0.0514096
0.0519152
0.0524872
0.0531146
0.0538044
0.0545602
0.0553906
0.0563026
0.0573071
0.0584141
0.0596364
0.0609854
0.0624736
0.0641091
0.0658983
0.0678465
0.0699575
0.0722328
0.074675
0.0772808
0.0800452
0.0829572
0.0860006
0.0891432
0.092347
0.0955595
0.0987235
0.101761
0.102247
0.101868
0.0999063
0.0961626
0.0943093
0.09201
0.0903939
0.088734
0.0873373
0.0856865
0.0843501
0.0828522
0.0816525
0.0801198
0.0785429
0.0760311
0.0726222
0.0684828
0.064632
0.0609477
0.0584929
0.056306
0.0532076
0.0528087
0.0529642
0.0523513
0.0500578
0.0483148
0.046142
0.0444603
0.0421479
0.0407548
0.0403808
0.0410982
0.0428634
0.045972
0.0501842
0.0541326
0.0567963
0.0590584
0.0617214
0.0654741
0.0686344
0.0710204
0.0707446
0.0689237
0.0656642
0.0623833
0.0589683
0.0567684
0.0552007
0.0548405
0.0563158
0.0616576
0.065317
0.0698694
0.0732295
0.0762798
0.0801099
0.0856175
0.093288
0.102155
0.114205
0.125901
0.140623
0.151412
0.16299
0.169096
0.175819
0.179323
0.183574
0.185896
0.0613997
0.0622916
0.0632577
0.0642725
0.0653414
0.0664658
0.0676509
0.0688999
0.0702184
0.0716119
0.0730878
0.0746532
0.0763155
0.078079
0.0799411
0.0818906
0.0839093
0.085979
0.0880762
0.0901738
0.0922385
0.0942305
0.0960979
0.0977837
0.0992259
0.100363
0.0982327
0.094573
0.0941015
0.0885144
0.0876743
0.0843164
0.0831417
0.0808737
0.0795191
0.0780345
0.0767844
0.0756283
0.0743437
0.0732004
0.0719994
0.0708889
0.0698139
0.0687974
0.0678631
0.0665087
0.0643397
0.0615758
0.0592418
0.0567411
0.0537822
0.0533888
0.0525887
0.0514976
0.0488897
0.0470057
0.0448479
0.0431812
0.0409409
0.0396259
0.0392754
0.0399105
0.0413956
0.044175
0.0481622
0.0524196
0.0558801
0.0584462
0.0610826
0.0657917
0.0699579
0.074265
0.0756003
0.0747982
0.0711605
0.0667397
0.0622837
0.0590541
0.0566966
0.0558644
0.0573446
0.0629498
0.0673919
0.0728442
0.0771723
0.0808037
0.0852155
0.0917261
0.100529
0.11077
0.124128
0.136775
0.152
0.16267
0.17383
0.179511
0.185938
0.189419
0.193655
0.196083
0.0715648
0.072649
0.0737951
0.0749669
0.0761654
0.0773872
0.0786315
0.0798931
0.081168
0.0824499
0.0837334
0.0850136
0.0862871
0.0875508
0.0888001
0.0900204
0.0911834
0.0922535
0.0931921
0.0939591
0.0932413
0.0915322
0.090122
0.0885919
0.0869026
0.084864
0.083176
0.0811601
0.0812134
0.0767933
0.0769131
0.0740485
0.073741
0.0719109
0.0712421
0.0702523
0.069303
0.0687028
0.0676794
0.0668046
0.0658094
0.0649384
0.0640027
0.0632491
0.0625753
0.061954
0.0613457
0.0607764
0.0593344
0.0575345
0.0546655
0.0540563
0.0522749
0.0504253
0.0473354
0.0452479
0.0431303
0.0415296
0.0394109
0.0381929
0.0379012
0.0384859
0.0397149
0.0421581
0.0458359
0.0502431
0.0543727
0.0574302
0.0604887
0.0659768
0.07157
0.0780559
0.0813424
0.0812609
0.0766276
0.0707437
0.0651224
0.0609224
0.0579822
0.0567147
0.0581367
0.0638536
0.0690346
0.0755938
0.0810251
0.0856315
0.0908417
0.098471
0.108635
0.120435
0.135131
0.148644
0.164042
0.174447
0.18494
0.190125
0.195958
0.199364
0.203475
0.205992
0.0784182
0.0793776
0.080364
0.0813418
0.0823088
0.0832589
0.0841867
0.0850829
0.0859366
0.0867333
0.0874564
0.0880874
0.0886089
0.0890066
0.0892706
0.089395
0.0880788
0.0852217
0.0818577
0.078668
0.0758176
0.0735501
0.0718262
0.0705695
0.0695401
0.0685581
0.0678979
0.0673954
0.0679227
0.0648342
0.0658423
0.0634152
0.0639903
0.0626613
0.0627308
0.0621869
0.0616791
0.0613967
0.0607914
0.0604954
0.0601428
0.0599576
0.059692
0.0594085
0.05898
0.0585491
0.0583661
0.0583179
0.058192
0.0578231
0.0556748
0.0545971
0.0517039
0.0487659
0.0451667
0.0429426
0.0409781
0.0396092
0.0378223
0.036804
0.0365877
0.0371124
0.0380471
0.0400856
0.0432545
0.0475213
0.0519371
0.0558539
0.0601268
0.065724
0.0734177
0.0819704
0.0875569
0.0877071
0.0815245
0.0741808
0.0675707
0.0626033
0.0591773
0.0575405
0.0588052
0.0645359
0.0705212
0.0782742
0.0849828
0.0912991
0.0976451
0.106393
0.118286
0.131694
0.147771
0.161719
0.176716
0.186422
0.196021
0.200696
0.205694
0.20884
0.212705
0.215285
0.0796601
0.0801989
0.0807198
0.0812016
0.0816408
0.0820325
0.0823718
0.0826505
0.0828579
0.0829805
0.0830014
0.0828989
0.0826476
0.0822222
0.0816008
0.075783
0.0721614
0.0699978
0.0673623
0.064058
0.0607346
0.0578482
0.055552
0.0539725
0.0530275
0.0525679
0.0526527
0.0532441
0.05449
0.0535127
0.0556696
0.053647
0.0550171
0.0539746
0.0546561
0.0541945
0.0542396
0.0538411
0.0537404
0.0537581
0.0538401
0.0539641
0.0543204
0.0546348
0.0551602
0.0554759
0.0558001
0.0559071
0.0563939
0.0569808
0.0568267
0.0557062
0.05238
0.0479128
0.04308
0.0402044
0.0382534
0.0371108
0.0356782
0.0348137
0.034701
0.0352805
0.0360153
0.0378162
0.0404577
0.0445038
0.0489412
0.0537622
0.059402
0.0649843
0.0749703
0.0854433
0.0933399
0.0932565
0.0854842
0.0768102
0.0694862
0.0640721
0.0602796
0.0583585
0.0593646
0.0650316
0.0719112
0.0809812
0.0896235
0.098636
0.106684
0.116882
0.131049
0.146033
0.163247
0.176659
0.19004
0.197996
0.20626
0.210675
0.214905
0.217522
0.220806
0.223363
0.0749538
0.0749438
0.0748813
0.0747658
0.0745943
0.074365
0.0740754
0.0737217
0.0732969
0.072793
0.072201
0.0715078
0.070695
0.0697404
0.068618
0.0673035
0.0642312
0.0586913
0.0554953
0.0524557
0.0487868
0.0450252
0.0419563
0.0396922
0.0384404
0.0380303
0.0382619
0.0363313
0.0376106
0.0389098
0.0400804
0.0414114
0.0427444
0.0443057
0.0458499
0.0469592
0.0477266
0.047548
0.0480494
0.0481704
0.0485702
0.0486863
0.0491868
0.0494656
0.0501859
0.0509063
0.0519485
0.0528651
0.0539149
0.0551736
0.0559493
0.0556114
0.0510492
0.0450491
0.0395848
0.0364089
0.0346429
0.0340327
0.0334869
0.0331851
0.0331459
0.0339936
0.034368
0.035941
0.0376904
0.0411924
0.0453516
0.0505432
0.0568625
0.0645166
0.0750139
0.0881165
0.0974143
0.0966721
0.087704
0.0784077
0.070861
0.0653826
0.0614591
0.0593589
0.0600305
0.0654664
0.0729303
0.0833959
0.0946442
0.107328
0.118492
0.131597
0.148739
0.165597
0.182691
0.193976
0.20394
0.209254
0.215416
0.219883
0.22379
0.225751
0.227642
0.229737
0.0656203
0.065133
0.0645807
0.0639812
0.0633327
0.0626356
0.0618877
0.0610874
0.060233
0.0593233
0.0583545
0.0573228
0.0562208
0.0550379
0.0537579
0.0523593
0.0508166
0.0491081
0.0472242
0.0427642
0.0390762
0.0352492
0.0316137
0.0287448
0.0268306
0.0258459
0.0256753
0.0233412
0.0243673
0.0254426
0.026361
0.0274615
0.0285394
0.0298446
0.0311368
0.032553
0.0340172
0.0356016
0.03728
0.0390885
0.0410188
0.0430992
0.0439429
0.0442479
0.0449573
0.0457833
0.0471756
0.0487626
0.0508854
0.0534318
0.0560183
0.0598449
0.0580346
0.0495008
0.0397797
0.034007
0.0311708
0.0303784
0.0299885
0.0304733
0.0302272
0.0315502
0.0315406
0.0332997
0.0344455
0.0379764
0.0419482
0.0471305
0.0530802
0.0634933
0.0741486
0.0896422
0.0997501
0.0978524
0.088225
0.0788288
0.0713948
0.0659745
0.0620938
0.0597647
0.059741
0.0639897
0.0720829
0.0836252
0.0974321
0.114094
0.130628
0.14742
0.166615
0.185199
0.196283
0.20202
0.207858
0.213679
0.219356
0.224694
0.229458
0.232232
0.233246
0.234507
0.0537418
0.0529745
0.0521488
0.0512925
0.0504042
0.0494848
0.0485324
0.0475475
0.0465298
0.0454806
0.0443988
0.0432843
0.0421347
0.0409476
0.0397173
0.0384351
0.0370865
0.0356517
0.0341061
0.0324263
0.0306106
0.0286628
0.0261434
0.0216884
0.0184984
0.0167891
0.0166439
0.0149829
0.0155862
0.0162905
0.0168437
0.0175617
0.0182515
0.0191323
0.0200063
0.0210068
0.0220519
0.0232212
0.0244659
0.025843
0.0273356
0.0289931
0.0307994
0.0327916
0.0349552
0.0372958
0.039768
0.0418789
0.0442971
0.0471141
0.0495072
0.0513736
0.0523222
0.0454783
0.0346434
0.0302397
0.028654
0.0280902
0.0280494
0.0296637
0.029139
0.0308603
0.0306478
0.0324056
0.0328231
0.0354883
0.0379072
0.0424933
0.0479743
0.0569068
0.0704141
0.0820361
0.0913031
0.0897933
0.0829575
0.0754124
0.0695461
0.0650773
0.0615945
0.0592378
0.0588196
0.0626952
0.0701145
0.0806918
0.0953363
0.112734
0.133137
0.145019
0.150518
0.156501
0.163005
0.17007
0.177735
0.186001
0.194796
0.203997
0.213314
0.222261
0.23007
0.235744
0.0413984
0.0405714
0.0397011
0.0388171
0.0379178
0.0370047
0.0360762
0.035134
0.0341775
0.033208
0.0322246
0.0312285
0.0302188
0.0291962
0.0281597
0.0271092
0.0260419
0.0249532
0.023832
0.0226602
0.0214126
0.0200638
0.0186076
0.0170633
0.014219
0.0115049
0.0109087
0.0105058
0.0106927
0.011018
0.0112432
0.0115892
0.011916
0.0123676
0.0128119
0.0133523
0.01392
0.0145857
0.0152987
0.0161184
0.0170137
0.0180356
0.019196
0.0205234
0.0220164
0.0236886
0.0255163
0.0274712
0.029481
0.0314638
0.0332905
0.0348473
0.0353701
0.0355941
0.035923
0.0366457
0.0319097
0.028428
0.0272963
0.0297431
0.0283723
0.0307587
0.0302105
0.0311192
0.0314684
0.0326869
0.0365952
0.0421147
0.0490708
0.0566019
0.0752287
0.0800313
0.0798662
0.0801343
0.0789528
0.0705844
0.0645097
0.060555
0.0576747
0.0556749
0.0541596
0.0545658
0.0588202
0.0680754
0.0825822
0.0919064
0.095379
0.0997968
0.104418
0.109674
0.115654
0.122495
0.130303
0.139309
0.149718
0.161835
0.175875
0.19193
0.209495
0.226687
0.0303843
0.0296738
0.0289358
0.0281958
0.0274522
0.0267067
0.0259577
0.025207
0.0244534
0.0236985
0.0229409
0.0221822
0.0214212
0.0206591
0.0198952
0.0191309
0.0183656
0.0176001
0.0168326
0.0160601
0.0152728
0.0144529
0.0135769
0.012632
0.0116263
0.00958211
0.00762628
0.00832901
0.0084061
0.00850966
0.00854331
0.00865132
0.00874487
0.00890224
0.00905448
0.00925751
0.00947078
0.00973649
0.0100211
0.0103625
0.0107359
0.0111705
0.0116728
0.0122732
0.012977
0.0138007
0.014738
0.0157897
0.0169163
0.0180793
0.0192089
0.0202571
0.020602
0.020703
0.0207501
0.0208929
0.0164422
0.0162
0.0240157
0.0328405
0.0351316
0.0391144
0.0397673
0.0416754
0.0426486
0.0422233
0.0442638
0.0415801
0.0406002
0.0407117
0.0445391
0.0471141
0.0466663
0.0465097
0.0465086
0.0465531
0.0465927
0.0466072
0.046138
0.0444395
0.0431201
0.0441377
0.0462535
0.0471922
0.0480031
0.0489809
0.0506838
0.0532521
0.055972
0.0591642
0.0628774
0.0672546
0.0723855
0.0786091
0.086254
0.0960039
0.108788
0.126318
0.151393
0.188861
0.0221708
0.0216802
0.021174
0.0206699
0.0201667
0.0196655
0.019165
0.0186663
0.0181679
0.0176713
0.0171746
0.0166791
0.0161827
0.0156865
0.0151889
0.0146917
0.0141941
0.0136985
0.0132043
0.0127132
0.0122224
0.0117284
0.0112073
0.0106164
0.00991138
0.00872246
0.00534295
0.0062501
0.00730642
0.00739836
0.00736098
0.00739662
0.00738505
0.00742463
0.00743502
0.00747824
0.00750647
0.00755892
0.00760176
0.00766591
0.0077318
0.00782004
0.00792092
0.00805663
0.00822363
0.00844051
0.00870693
0.00902683
0.00938989
0.00977547
0.0101522
0.0104844
0.0105454
0.0104711
0.0103014
0.0101339
0.010063
0.0106928
0.0142099
0.0175778
0.0179771
0.0184354
0.0192697
0.0202531
0.0209661
0.0220393
0.0228509
0.0233919
0.0238991
0.0236737
0.0216247
0.0221235
0.0218065
0.0209337
0.0205318
0.0202122
0.0199376
0.0197615
0.0194348
0.0191964
0.0189196
0.0190584
0.0194444
0.0195905
0.0193645
0.0192294
0.0196063
0.0203409
0.0210565
0.0219502
0.0230493
0.0243856
0.0259353
0.0278435
0.0301933
0.0332951
0.0375688
0.0440668
0.0552452
0.0812582
0.0165797
0.0162792
0.0159648
0.015647
0.0153267
0.0150028
0.0146758
0.0143447
0.0140097
0.0136697
0.0133244
0.0129727
0.0126142
0.0122479
0.0118728
0.0114877
0.0110901
0.0106776
0.0102471
0.00979682
0.00932619
0.00883584
0.00832214
0.00777129
0.00715668
0.00644457
0.00564136
0.00136635
0.00133186
0.00134949
0.00135183
0.00136904
0.00138008
0.00139943
0.0014123
0.00142809
0.00143818
0.00144856
0.00145178
0.0014525
0.00144609
0.00143759
0.00142323
0.00140827
0.00139098
0.00137434
0.00135867
0.00134599
0.0013372
0.0013331
0.00133296
0.00132949
0.00131632
0.00129846
0.00128123
0.00126936
0.00124563
0.00117906
0.00117231
0.0012155
0.00125863
0.00130211
0.00133372
0.00136414
0.00138789
0.00141132
0.00142663
0.00145676
0.00148839
0.00154432
0.00161663
0.00166885
0.00171853
0.00175956
0.00178073
0.00178984
0.0017889
0.001777
0.00175672
0.00173073
0.00170301
0.00169629
0.00168842
0.00167366
0.00165309
0.00162448
0.00158921
0.00155717
0.0015287
0.00150332
0.00147919
0.00145638
0.00143179
0.00140412
0.0013715
0.0013324
0.00128522
0.00122861
0.00116124
0.00108165
0.00130256
0.0679658
0.0773994
0.0777068
0.0777171
0.0777157
0.077714
0.0777117
0.0777096
0.0777077
0.0777064
0.0777062
0.0777069
0.0777087
0.0777106
0.0777124
0.0777141
0.0777152
0.0777164
0.0777173
0.00139301
0.0609074
0.0767771
0.0776252
0.0776614
0.0776612
0.0776596
0.0776574
0.0776555
0.0776536
0.077653
0.0776539
0.0776572
0.0776624
0.0776677
0.0776727
0.077677
0.0776802
0.0776831
0.0776849
0.00147883
0.0557099
0.0759945
0.0775245
0.0776061
0.0776086
0.077607
0.0776049
0.0776031
0.0776013
0.0776013
0.0776035
0.0776093
0.0776177
0.0776264
0.0776345
0.0776415
0.0776469
0.0776513
0.0776542
0.00155982
0.0516901
0.075101
0.0774029
0.0775505
0.0775574
0.0775562
0.0775541
0.0775523
0.0775508
0.0775511
0.0775547
0.0775629
0.0775745
0.0775867
0.0775978
0.0776073
0.0776149
0.0776209
0.0776249
0.001636
0.0484503
0.07413
0.0772589
0.0774934
0.077507
0.0775064
0.0775043
0.0775026
0.0775013
0.077502
0.0775071
0.0775176
0.0775324
0.0775481
0.0775622
0.0775742
0.077584
0.0775913
0.0775965
0.00170764
0.0456488
0.0730926
0.0770915
0.0774341
0.077457
0.0774572
0.0774552
0.0774536
0.0774525
0.0774538
0.0774603
0.0774731
0.077491
0.0775101
0.0775273
0.077542
0.0775537
0.0775626
0.0775687
0.00177476
0.0430439
0.0719862
0.0768999
0.0773719
0.0774074
0.0774085
0.0774067
0.0774053
0.0774046
0.0774064
0.0774142
0.0774294
0.0774504
0.0774727
0.077493
0.0775102
0.0775241
0.0775346
0.0775414
0.00183773
0.04059
0.0708164
0.0766837
0.0773062
0.0773581
0.0773604
0.077359
0.0773577
0.0773573
0.0773597
0.0773687
0.0773864
0.0774105
0.077436
0.0774594
0.0774791
0.0774952
0.0775073
0.0775149
0.00189662
0.0383214
0.0695981
0.0764432
0.0772367
0.0773088
0.0773131
0.077312
0.0773108
0.0773107
0.0773137
0.0773241
0.0773443
0.0773714
0.0774002
0.0774264
0.0774488
0.0774669
0.0774806
0.0774891
0.00195184
0.0362648
0.0683466
0.0761787
0.0771631
0.0772596
0.0772665
0.0772657
0.0772647
0.0772648
0.0772685
0.0772803
0.077303
0.0773331
0.0773651
0.0773943
0.0774193
0.0774395
0.0774546
0.077464
0.00200339
0.034424
0.0670796
0.0758914
0.0770853
0.0772106
0.0772206
0.0772202
0.0772194
0.0772199
0.0772243
0.0772376
0.0772625
0.0772956
0.0773309
0.0773632
0.0773907
0.0774129
0.0774296
0.0774399
0.00205168
0.0327866
0.0658123
0.0755828
0.0770031
0.0771618
0.0771757
0.0771756
0.0771751
0.0771761
0.0771811
0.0771959
0.077223
0.0772591
0.0772976
0.0773329
0.077363
0.0773872
0.0774055
0.0774167
0.00209664
0.0313348
0.0645578
0.0752548
0.0769163
0.0771132
0.0771317
0.0771321
0.0771318
0.0771333
0.0771391
0.0771553
0.0771847
0.0772238
0.0772653
0.0773035
0.0773362
0.0773626
0.0773825
0.0773946
0.00213867
0.0300478
0.0633267
0.0749096
0.0768252
0.0770649
0.0770887
0.0770897
0.0770897
0.0770917
0.0770984
0.0771159
0.0771476
0.0771896
0.0772342
0.0772755
0.0773108
0.0773391
0.0773608
0.0773737
0.0021776
0.0289027
0.0621278
0.07455
0.0767299
0.0770169
0.077047
0.0770488
0.077049
0.0770514
0.0770589
0.077078
0.0771119
0.0771569
0.0772045
0.0772488
0.0772867
0.0773171
0.0773404
0.0773541
0.00221359
0.0278666
0.0609672
0.0741788
0.076631
0.0769696
0.0770069
0.0770094
0.07701
0.0770128
0.0770211
0.0770416
0.0770778
0.0771257
0.0771765
0.0772237
0.0772642
0.0772967
0.0773216
0.0773361
0.00224646
0.0269293
0.0598502
0.0737991
0.0765291
0.0769234
0.0769686
0.0769718
0.076973
0.0769761
0.0769852
0.0770072
0.0770456
0.0770964
0.0771505
0.0772006
0.0772437
0.0772782
0.0773046
0.0773201
0.00227641
0.0260811
0.0587813
0.0734143
0.0764249
0.0768788
0.0769325
0.0769367
0.0769383
0.0769418
0.0769517
0.076975
0.0770158
0.0770695
0.0771267
0.0771797
0.0772254
0.077262
0.0772899
0.0773063
0.00230296
0.0253143
0.057765
0.0730284
0.0763196
0.0768361
0.076899
0.0769044
0.0769063
0.0769104
0.076921
0.0769457
0.0769886
0.0770452
0.0771055
0.0771616
0.0772098
0.0772484
0.0772781
0.0772953
0.00232701
0.0246225
0.0568055
0.0726455
0.0762146
0.0767962
0.0768688
0.0768759
0.0768779
0.0768822
0.0768936
0.0769197
0.0769647
0.0770242
0.0770876
0.0771466
0.0771974
0.0772381
0.0772695
0.0772875
0.00234688
0.0240006
0.0559077
0.0722707
0.0761115
0.07676
0.076843
0.0768519
0.0768538
0.0768582
0.0768702
0.0768975
0.0769448
0.0770069
0.0770734
0.0771355
0.0771888
0.0772316
0.0772648
0.0772836
0.00236417
0.0234451
0.0550771
0.0719097
0.076012
0.076729
0.0768227
0.0768334
0.076835
0.0768393
0.0768516
0.07688
0.0769295
0.0769943
0.0770638
0.0771289
0.0771848
0.0772297
0.0772644
0.0772842
0.00237821
0.0229526
0.0543188
0.0715689
0.0759182
0.0767047
0.0768098
0.0768221
0.0768228
0.0768267
0.076839
0.0768683
0.0769198
0.0769873
0.0770597
0.0771277
0.0771862
0.0772331
0.0772694
0.0772902
0.00238743
0.022498
0.0536124
0.0712479
0.0758309
0.0766894
0.0768065
0.0768196
0.0768187
0.0768217
0.0768335
0.0768634
0.0769166
0.0769867
0.077062
0.0771328
0.077194
0.0772428
0.0772808
0.0773027
0.00240078
0.0220232
0.0528892
0.0709302
0.075749
0.0766859
0.0768154
0.0768282
0.0768247
0.0768258
0.0768366
0.0768667
0.0769211
0.0769936
0.0770718
0.0771454
0.077209
0.0772598
0.0772995
0.0773225
0.00242594
0.0215262
0.0521315
0.0697026
0.0756753
0.0766979
0.0768395
0.0768504
0.0768428
0.0768409
0.0768498
0.0768793
0.0769345
0.0770092
0.0770901
0.0771664
0.0772325
0.0772854
0.0773266
0.0773509
0.00245682
0.0209749
0.0513287
0.0630718
0.0756182
0.0767291
0.0768818
0.0768892
0.0768753
0.0768691
0.0768748
0.0769029
0.0769584
0.0770348
0.0771183
0.0771972
0.0772656
0.0773204
0.0773633
0.0773889
0.00248801
0.0204025
0.0503528
0.0590123
0.073617
0.0750786
0.0769448
0.0769473
0.0769252
0.0769125
0.0769135
0.0769392
0.0769943
0.077072
0.0771578
0.077239
0.0773097
0.0773662