/*--------------------------------*- C++ -*----------------------------------*\
  =========                 |
  \\      /  F ield         | OpenFOAM: The Open Source CFD Toolbox
   \\    /   O peration     | Website:  https://openfoam.org
    \\  /    A nd           | Version:  7
     \\/     M anipulation  |
\*---------------------------------------------------------------------------*/
FoamFile
{
    version     2.0;
    format      ascii;
    class       volVectorField;
    location    "0.1125";
    object      U;
}
// * * * * * * * * * * * * * * * * * * * * * * * * * * * * * * * * * * * * * //

dimensions      [0 1 -1 0 0 0 0];

internalField   nonuniform List<vector> 
48560
(
(221.943 -5.36764 -4.91038e-11)
(221.751 -6.19682 -5.89522e-11)
(221.581 -7.02821 -7.82099e-11)
(221.434 -7.84023 -1.00128e-10)
(221.302 -8.63313 -1.31199e-10)
(221.182 -9.40109 -1.65862e-10)
(221.07 -10.1469 -2.09046e-10)
(220.965 -10.8663 -2.55656e-10)
(220.863 -11.5637 -3.09263e-10)
(220.762 -12.2365 -3.65412e-10)
(220.663 -12.8901 -4.25899e-10)
(220.562 -13.5231 -4.87113e-10)
(220.459 -14.1405 -5.49371e-10)
(220.352 -14.741 -6.09661e-10)
(220.24 -15.3282 -6.66082e-10)
(220.12 -15.9003 -7.16843e-10)
(219.993 -16.4601 -7.58663e-10)
(219.853 -17.0059 -7.89677e-10)
(219.701 -17.5397 -8.06619e-10)
(219.531 -18.0607 -8.07622e-10)
(219.343 -18.5704 -7.89776e-10)
(219.131 -19.0682 -7.51002e-10)
(218.891 -19.5548 -6.89596e-10)
(218.618 -20.0295 -6.02781e-10)
(218.309 -20.4913 -4.92891e-10)
(217.956 -20.9394 -3.5681e-10)
(217.555 -21.3723 -1.98143e-10)
(217.037 -21.8647 1.68608e-11)
(216.284 -22.4137 3.11287e-10)
(215.391 -22.9119 5.95714e-10)
(214.304 -23.3846 8.81797e-10)
(212.961 -23.8068 1.15949e-09)
(211.279 -24.1917 1.37774e-09)
(209.079 -24.5152 1.53827e-09)
(206.056 -24.7617 1.44251e-09)
(202.49 -24.8965 1.19418e-09)
(198.251 -24.8759 5.65251e-10)
(193.601 -24.7463 -1.39994e-10)
(188.787 -24.4534 -1.37738e-09)
(184.853 -24.0507 -2.53989e-09)
(180.809 -23.2558 -4.16434e-09)
(176.732 -22.6202 -4.54915e-09)
(172.875 -21.4536 -5.91198e-09)
(169.145 -20.0224 -6.40331e-09)
(165.801 -18.7135 -7.02574e-09)
(165.079 -16.0976 -9.50255e-09)
(171.766 -12.2482 -1.25201e-08)
(191.384 -6.8851 -1.71139e-08)
(221.306 -4.08097 -2.21771e-08)
(250.053 -7.78912 -2.61553e-08)
(271.684 -31.468 -2.92544e-08)
(263.863 -74.1591 -3.08561e-08)
(229.269 -57.6498 -2.97206e-08)
(214.68 -60.7853 -2.98068e-08)
(195.662 -51.6233 -2.92014e-08)
(183.877 -51.0944 -2.92407e-08)
(165.482 -43.5363 -2.86382e-08)
(153.749 -41.3576 -2.86528e-08)
(133.696 -34.3429 -2.79954e-08)
(121.443 -31.2415 -2.80335e-08)
(99.3232 -24.1238 -2.73047e-08)
(85.6829 -20.4169 -2.73003e-08)
(66.076 -11.0083 -2.64178e-08)
(66.3462 -8.54303 -2.67522e-08)
(55.7816 -5.57973 -2.62805e-08)
(52.6455 1.12772 -2.60668e-08)
(56.5749 2.22471 -2.63108e-08)
(58.8231 4.44238 -2.65285e-08)
(60.5569 6.50873 -2.67341e-08)
(63.5758 8.64366 -2.70183e-08)
(67.9238 11.4707 -2.74279e-08)
(73.4448 14.9745 -2.78767e-08)
(80.3088 19.2409 -2.83801e-08)
(88.7298 24.4694 -2.89208e-08)
(98.9289 30.8337 -2.95037e-08)
(111.36 38.4928 -3.01138e-08)
(127.426 48.2364 -3.07893e-08)
(149.438 61.6846 -3.15006e-08)
(182.284 78.9861 -3.22138e-08)
(220.44 84.7195 -3.28623e-08)
(259.688 66.4918 -3.37658e-08)
(254.786 60.4471 -3.40134e-08)
(246.368 53.3834 -3.43789e-08)
(251.803 56.0632 -3.4388e-08)
(256.211 56.6905 -3.46324e-08)
(267.566 53.7092 -3.5378e-08)
(271.758 43.0844 -3.55479e-08)
(275.782 36.6796 -3.59158e-08)
(275.789 26.9354 -3.60836e-08)
(275.43 19.8337 -3.63686e-08)
(273.263 14.3846 -3.64692e-08)
(270.017 8.44321 -3.66466e-08)
(266.52 3.74695 -3.67955e-08)
(263.136 -0.00115987 -3.69357e-08)
(260.007 -3.0481 -3.70422e-08)
(257.305 -5.5127 -3.71475e-08)
(255.074 -7.47893 -3.72274e-08)
(253.41 -8.90355 -3.72908e-08)
(252.353 -9.71775 -3.73365e-08)
(252.112 -9.95822 -3.73602e-08)
(221.188 -5.08782 -5.89597e-10)
(221.005 -5.94563 -6.17859e-10)
(220.837 -6.80018 -6.46689e-10)
(220.702 -7.64497 -6.73258e-10)
(220.574 -8.46244 -6.98885e-10)
(220.463 -9.26005 -7.18435e-10)
(220.352 -10.0281 -7.35613e-10)
(220.247 -10.7747 -7.42927e-10)
(220.137 -11.4971 -7.4551e-10)
(220.023 -12.2041 -7.34388e-10)
(219.904 -12.8956 -7.18401e-10)
(219.779 -13.5729 -6.87664e-10)
(219.643 -14.2348 -6.47479e-10)
(219.495 -14.8796 -5.90126e-10)
(219.331 -15.5069 -5.19755e-10)
(219.151 -16.1139 -4.31287e-10)
(218.949 -16.7019 -3.28247e-10)
(218.725 -17.2692 -2.08823e-10)
(218.474 -17.819 -7.69613e-11)
(218.194 -18.3514 6.59223e-11)
(217.879 -18.8696 2.22041e-10)
(217.525 -19.371 3.85687e-10)
(217.124 -19.8551 5.59602e-10)
(216.668 -20.3191 7.3509e-10)
(216.143 -20.7627 9.17022e-10)
(215.534 -21.184 1.09011e-09)
(214.823 -21.5813 1.25701e-09)
(213.846 -22.0214 1.41435e-09)
(212.232 -22.4904 1.51249e-09)
(210.276 -22.9014 1.40439e-09)
(208.017 -23.2593 1.20289e-09)
(205.366 -23.539 6.84876e-10)
(202.469 -23.7667 1.11551e-10)
(199.343 -23.9088 -9.00953e-10)
(196.469 -23.969 -1.93567e-09)
(193.653 -23.8486 -3.3405e-09)
(191.143 -23.768 -3.79413e-09)
(188.654 -23.5228 -5.07208e-09)
(186.65 -23.2638 -5.89649e-09)
(184.842 -22.727 -6.76833e-09)
(183.403 -22.2539 -7.20501e-09)
(183.038 -21.7389 -8.15258e-09)
(184.912 -20.8176 -1.09383e-08)
(190.621 -20.8878 -1.25609e-08)
(204.541 -21.4823 -1.69119e-08)
(229.829 -22.8106 -2.20551e-08)
(255.632 -23.8673 -2.63417e-08)
(277.804 -24.7601 -2.96178e-08)
(288.942 -26.5147 -3.0992e-08)
(295.839 -34.663 -3.23844e-08)
(287.448 -53.5421 -3.27455e-08)
(275.13 -72.0735 -3.3237e-08)
(246.996 -67.1274 -3.2676e-08)
(235.293 -67.3319 -3.25928e-08)
(216.33 -61.4721 -3.22276e-08)
(206.915 -58.3937 -3.20909e-08)
(189.502 -52.6491 -3.1779e-08)
(179.974 -48.5888 -3.1574e-08)
(162.664 -42.4783 -3.12884e-08)
(152.775 -37.7517 -3.1028e-08)
(136.166 -31.2762 -3.07702e-08)
(125.728 -26.0559 -3.03857e-08)
(113.384 -16.8047 -3.00625e-08)
(111.847 -12.2643 -2.9843e-08)
(107.957 -6.68262 -2.98481e-08)
(105.468 1.30449 -2.9364e-08)
(111.121 3.49159 -2.98128e-08)
(113.938 8.65579 -2.98939e-08)
(116.835 11.7532 -3.01415e-08)
(121.023 15.5199 -3.03169e-08)
(124.798 18.9556 -3.06207e-08)
(130.436 23.1842 -3.08676e-08)
(135.908 27.5026 -3.12214e-08)
(143.594 32.9526 -3.1533e-08)
(151.845 39.109 -3.19389e-08)
(163.024 46.9509 -3.23188e-08)
(176.867 56.9036 -3.27979e-08)
(197.309 71.4787 -3.32681e-08)
(221.3 90.2729 -3.3845e-08)
(241.907 94.658 -3.44494e-08)
(258.387 73.9816 -3.50203e-08)
(263.721 63.9364 -3.54978e-08)
(266.056 61.5184 -3.56962e-08)
(270.263 62.6655 -3.61523e-08)
(272.857 63.4659 -3.5934e-08)
(275.839 59.6064 -3.69318e-08)
(277.532 51.035 -3.65037e-08)
(279.533 43.401 -3.72299e-08)
(278.85 33.3396 -3.68437e-08)
(278.004 24.7954 -3.7563e-08)
(274.97 16.7012 -3.7143e-08)
(272.278 10.845 -3.76861e-08)
(268.296 5.71673 -3.73579e-08)
(265.214 1.9854 -3.7751e-08)
(261.551 -1.19582 -3.74812e-08)
(258.96 -3.59793 -3.77544e-08)
(256.277 -5.67089 -3.75407e-08)
(254.711 -7.14223 -3.77008e-08)
(253.724 -7.74747 -3.7592e-08)
(253.359 -7.93815 -3.76144e-08)
(219.984 -4.79945 -1.82384e-10)
(219.789 -5.71112 -1.57278e-10)
(219.573 -6.62083 -1.04147e-10)
(219.421 -7.52515 -6.29382e-11)
(219.243 -8.39278 3.65991e-12)
(219.104 -9.24187 6.15397e-11)
(218.935 -10.0542 1.41534e-10)
(218.785 -10.8539 2.16245e-10)
(218.601 -11.6302 3.09e-10)
(218.421 -12.3958 3.98664e-10)
(218.204 -13.1354 5.04282e-10)
(217.978 -13.8553 6.10228e-10)
(217.714 -14.5412 7.26134e-10)
(217.426 -15.1989 8.40652e-10)
(217.091 -15.819 9.56327e-10)
(216.71 -16.4094 1.0643e-09)
(216.26 -16.9671 1.1596e-09)
(215.73 -17.5019 1.23252e-09)
(215.084 -18.0148 1.26571e-09)
(214.394 -18.5117 1.2824e-09)
(213.609 -18.9918 1.25202e-09)
(212.767 -19.4573 1.18875e-09)
(211.831 -19.9045 1.0624e-09)
(210.827 -20.3305 9.2014e-10)
(209.727 -20.7365 6.76394e-10)
(208.557 -21.1165 4.14001e-10)
(207.314 -21.4731 2.76093e-11)
(205.83 -21.8558 -4.54715e-10)
(203.891 -22.2596 -1.32074e-09)
(202.306 -22.6013 -2.15567e-09)
(200.517 -22.8638 -3.27114e-09)
(199.022 -23.0901 -3.59724e-09)
(197.411 -23.2614 -4.62209e-09)
(196.134 -23.3988 -5.19635e-09)
(194.942 -23.4175 -5.94991e-09)
(193.886 -23.338 -6.42523e-09)
(193.27 -23.171 -7.12656e-09)
(193.113 -22.9857 -8.07387e-09)
(194.526 -22.8287 -1.00586e-08)
(197.55 -23.0409 -1.12191e-08)
(204.15 -23.6032 -1.3757e-08)
(215.877 -24.703 -1.69541e-08)
(233.739 -26.1255 -2.12519e-08)
(253.351 -27.6658 -2.46719e-08)
(273.408 -28.0499 -2.86226e-08)
(287.782 -27.1187 -3.03286e-08)
(299.47 -26.4197 -3.21721e-08)
(305.305 -27.0866 -3.26671e-08)
(307.592 -31.1724 -3.32076e-08)
(303.597 -41.4131 -3.32734e-08)
(292.417 -57.7443 -3.32379e-08)
(276.517 -68.0655 -3.30773e-08)
(256.591 -61.9596 -3.29001e-08)
(244.506 -65.35 -3.26461e-08)
(227.862 -57.558 -3.2488e-08)
(217.675 -57.0995 -3.21996e-08)
(202.676 -49.8135 -3.20787e-08)
(192.626 -47.5255 -3.17675e-08)
(178.162 -40.7119 -3.16845e-08)
(168.183 -37.2399 -3.13517e-08)
(155.111 -30.7832 -3.13023e-08)
(145.973 -26.3742 -3.09507e-08)
(137.71 -18.2056 -3.09101e-08)
(136.059 -13.8374 -3.0639e-08)
(135.386 -5.90473 -3.07333e-08)
(132.908 0.995021 -3.04385e-08)
(138.64 4.5793 -3.07893e-08)
(139.529 10.9696 -3.07312e-08)
(143.233 14.6249 -3.10184e-08)
(145.455 19.6312 -3.1062e-08)
(149.132 23.9291 -3.13728e-08)
(152.45 28.994 -3.15013e-08)
(156.904 34.149 -3.18437e-08)
(162.028 40.1 -3.20556e-08)
(168.645 46.7088 -3.24463e-08)
(177.393 54.5427 -3.27525e-08)
(189.892 64.2624 -3.32226e-08)
(208.609 76.2669 -3.3653e-08)
(232.074 84.8541 -3.42069e-08)
(250.995 79.6588 -3.46601e-08)
(260.316 67.7102 -3.50102e-08)
(265.185 63.5583 -3.52791e-08)
(267.593 61.0894 -3.55753e-08)
(272.03 59.6338 -3.60953e-08)
(274.945 55.1726 -3.59185e-08)
(277.792 48.5679 -3.67437e-08)
(278.732 41.195 -3.62478e-08)
(280.055 33.9935 -3.69589e-08)
(278.899 26.4906 -3.65687e-08)
(277.592 20.1403 -3.70922e-08)
(274.455 14.266 -3.68219e-08)
(271.703 9.30766 -3.71872e-08)
(267.974 5.10045 -3.69723e-08)
(264.962 1.73823 -3.72293e-08)
(261.556 -1.00203 -3.705e-08)
(258.987 -3.07319 -3.72237e-08)
(256.461 -4.57347 -3.7074e-08)
(254.88 -5.47511 -3.7177e-08)
(253.926 -5.7758 -3.71019e-08)
(253.57 -5.88514 -3.71141e-08)
(216.94 -4.51596 6.05446e-10)
(216.664 -5.45243 6.62037e-10)
(216.268 -6.37362 6.72235e-10)
(216.009 -7.2928 7.05388e-10)
(215.629 -8.16721 7.03467e-10)
(215.34 -9.0274 7.07119e-10)
(214.926 -9.84943 6.84961e-10)
(214.565 -10.6651 6.52276e-10)
(214.09 -11.4556 5.99311e-10)
(213.654 -12.2356 5.21056e-10)
(213.121 -12.9852 4.23502e-10)
(212.615 -13.7171 2.87684e-10)
(212.025 -14.4178 1.30057e-10)
(211.451 -15.0983 -7.59507e-11)
(210.808 -15.7498 -3.07707e-10)
(210.177 -16.3813 -5.93358e-10)
(209.502 -16.9858 -9.05066e-10)
(208.855 -17.5685 -1.26605e-09)
(208.22 -18.1217 -1.63934e-09)
(207.581 -18.6475 -2.07099e-09)
(206.948 -19.1412 -2.52509e-09)
(206.335 -19.6068 -3.03056e-09)
(205.71 -20.0194 -3.16282e-09)
(205.1 -20.4333 -3.64018e-09)
(204.49 -20.8071 -3.87557e-09)
(203.906 -21.1732 -4.33624e-09)
(203.339 -21.5008 -4.63761e-09)
(202.734 -21.8597 -5.14493e-09)
(202.04 -22.2178 -5.65195e-09)
(201.51 -22.5039 -6.11575e-09)
(200.989 -22.6712 -6.40092e-09)
(200.715 -22.7676 -6.94075e-09)
(200.617 -22.8608 -7.69806e-09)
(201.331 -23.0651 -9.16247e-09)
(202.714 -23.2559 -9.88796e-09)
(205.356 -23.7413 -1.14553e-08)
(209.95 -24.5068 -1.31871e-08)
(217.054 -25.7163 -1.55792e-08)
(229.123 -27.4873 -1.8736e-08)
(242.028 -29.375 -2.15322e-08)
(258.04 -31.3144 -2.5087e-08)
(272.296 -32.6024 -2.75486e-08)
(285.715 -33.2323 -2.99875e-08)
(296.948 -33.4723 -3.14293e-08)
(305.752 -33.1016 -3.28199e-08)
(311.078 -32.9136 -3.30242e-08)
(314.257 -33.5229 -3.36121e-08)
(315.307 -35.9817 -3.34094e-08)
(312.887 -41.2709 -3.35891e-08)
(306.175 -50.7482 -3.32234e-08)
(294.205 -61.8915 -3.31059e-08)
(279.335 -67.2206 -3.25892e-08)
(262.274 -65.1721 -3.28024e-08)
(249.867 -65.1663 -3.22558e-08)
(235.469 -59.8277 -3.24017e-08)
(224.748 -57.4533 -3.19049e-08)
(211.732 -51.4211 -3.20241e-08)
(201.411 -47.8926 -3.15848e-08)
(189.023 -41.7754 -3.16994e-08)
(179.179 -37.4836 -3.12912e-08)
(168.459 -31.2252 -3.13948e-08)
(160.276 -25.9413 -3.10424e-08)
(154.009 -18.3002 -3.11518e-08)
(152.301 -12.9599 -3.08613e-08)
(152.212 -5.03762 -3.10124e-08)
(150.306 0.596228 -3.0817e-08)
(154.921 5.91015 -3.1053e-08)
(154.343 11.8018 -3.0973e-08)
(158.262 16.0943 -3.12302e-08)
(158.94 21.0267 -3.12388e-08)
(162.825 25.4655 -3.15217e-08)
(164.794 30.3337 -3.16141e-08)
(169.395 35.4427 -3.19291e-08)
(173.53 41.0822 -3.21084e-08)
(180.515 47.6157 -3.2472e-08)
(189.029 55.3922 -3.275e-08)
(202.267 65.3121 -3.31863e-08)
(219.259 76.253 -3.35702e-08)
(237.754 81.7572 -3.40694e-08)
(252.198 74.5073 -3.44115e-08)
(260.429 66.6994 -3.46137e-08)
(265.765 64.327 -3.48147e-08)
(269.16 61.9004 -3.53249e-08)
(272.983 59.8101 -3.54025e-08)
(274.784 54.6561 -3.56336e-08)
(276.835 47.8172 -3.59716e-08)
(277.627 41.2825 -3.58882e-08)
(278.354 34.4167 -3.62034e-08)
(277.297 27.5109 -3.61178e-08)
(275.953 21.1935 -3.6367e-08)
(273.186 15.3352 -3.6238e-08)
(270.511 10.5055 -3.64901e-08)
(267.076 6.3556 -3.63494e-08)
(264.133 3.06836 -3.65237e-08)
(260.949 0.376969 -3.63987e-08)
(258.488 -1.65743 -3.65166e-08)
(256.192 -3.03842 -3.64076e-08)
(254.762 -3.74219 -3.64728e-08)
(253.938 -3.90569 -3.6413e-08)
(253.624 -3.94777 -3.64278e-08)
(212.155 -3.91957 -2.46522e-09)
(211.784 -4.85668 -2.474e-09)
(211.381 -5.76173 -2.76068e-09)
(211.089 -6.73341 -2.68476e-09)
(210.748 -7.63215 -2.94828e-09)
(210.484 -8.56912 -2.94834e-09)
(210.156 -9.44499 -3.2029e-09)
(209.884 -10.3465 -3.26774e-09)
(209.557 -11.1984 -3.52289e-09)
(209.289 -12.0652 -3.64285e-09)
(208.98 -12.8884 -3.90451e-09)
(208.729 -13.7156 -4.0701e-09)
(208.446 -14.5007 -4.33867e-09)
(208.217 -15.2775 -4.53831e-09)
(207.964 -16.0083 -4.80907e-09)
(207.762 -16.7152 -5.02733e-09)
(207.542 -17.3659 -5.28888e-09)
(207.366 -17.9733 -5.50565e-09)
(207.173 -18.5127 -5.74115e-09)
(207.005 -18.9998 -5.9332e-09)
(206.818 -19.423 -6.11684e-09)
(206.636 -19.8027 -6.24745e-09)
(206.511 -20.1634 -6.73474e-09)
(206.482 -20.488 -7.04541e-09)
(206.549 -20.7975 -7.51015e-09)
(206.752 -21.0909 -7.94133e-09)
(207.097 -21.3865 -8.43206e-09)
(207.712 -21.7475 -9.04274e-09)
(208.709 -22.1502 -9.80903e-09)
(210.379 -22.6403 -1.07284e-08)
(212.686 -23.2254 -1.18343e-08)
(216.158 -24.0192 -1.32821e-08)
(220.88 -25.0408 -1.49494e-08)
(227.908 -26.4071 -1.70843e-08)
(236.374 -28.0215 -1.91993e-08)
(246.393 -29.9167 -2.18061e-08)
(257.463 -31.8509 -2.41502e-08)
(268.774 -33.6123 -2.65961e-08)
(278.799 -34.7608 -2.83463e-08)
(289.191 -35.8191 -3.02235e-08)
(298.052 -36.4029 -3.15699e-08)
(305.608 -36.7811 -3.25746e-08)
(311.612 -36.7862 -3.33055e-08)
(315.955 -36.6585 -3.35913e-08)
(318.796 -36.5522 -3.38447e-08)
(320.295 -37.0866 -3.36803e-08)
(320.669 -38.504 -3.37635e-08)
(319.1 -41.533 -3.33889e-08)
(314.898 -47.3943 -3.33814e-08)
(307.005 -55.6095 -3.28734e-08)
(295.351 -63.4394 -3.26841e-08)
(281.701 -66.2216 -3.20136e-08)
(266.446 -64.8272 -3.23793e-08)
(254.173 -64.1399 -3.17376e-08)
(241.132 -59.1636 -3.20032e-08)
(230.154 -56.7095 -3.14518e-08)
(218.416 -50.6663 -3.16617e-08)
(207.93 -47.1977 -3.12127e-08)
(196.803 -40.9442 -3.13987e-08)
(187.068 -36.6866 -3.10025e-08)
(177.685 -30.2191 -3.11503e-08)
(170.217 -24.9366 -3.08514e-08)
(165.121 -17.4567 -3.10101e-08)
(163.387 -11.6318 -3.07524e-08)
(163.21 -4.12555 -3.09047e-08)
(162.016 1.01011 -3.07917e-08)
(165.116 7.60495 -3.0899e-08)
(164.316 12.9173 -3.08677e-08)
(167.5 18.063 -3.10306e-08)
(167.695 23.0784 -3.10617e-08)
(171.112 27.9677 -3.1271e-08)
(172.538 33.0225 -3.13757e-08)
(176.899 38.3654 -3.16413e-08)
(180.617 44.1486 -3.18299e-08)
(187.629 50.8063 -3.21592e-08)
(196.041 58.4526 -3.2441e-08)
(209.38 67.3723 -3.2851e-08)
(225.222 75.0109 -3.32253e-08)
(241.656 76.2748 -3.36413e-08)
(252.95 70.3994 -3.38882e-08)
(260.63 65.5228 -3.40095e-08)
(266.073 62.6766 -3.40825e-08)
(269.842 59.9256 -3.49552e-08)
(273.194 55.7458 -3.47248e-08)
(274.783 49.937 -3.51882e-08)
(276.233 43.6947 -3.53579e-08)
(276.769 37.6641 -3.53525e-08)
(276.969 31.1404 -3.54276e-08)
(275.795 25.2207 -3.54754e-08)
(274.214 19.5076 -3.55906e-08)
(271.655 14.5162 -3.55132e-08)
(269.065 10.0867 -3.56909e-08)
(265.979 6.44387 -3.56068e-08)
(263.178 3.43753 -3.57262e-08)
(260.286 1.14875 -3.56376e-08)
(257.947 -0.526144 -3.57073e-08)
(255.908 -1.57927 -3.56278e-08)
(254.633 -2.11048 -3.56677e-08)
(253.925 -2.22351 -3.5624e-08)
(253.651 -2.25171 -3.56404e-08)
(212.219 -3.32305 -5.77293e-09)
(211.791 -4.30979 -5.80811e-09)
(211.47 -5.3379 -5.79865e-09)
(211.193 -6.35637 -5.96886e-09)
(210.982 -7.37005 -6.05112e-09)
(210.799 -8.36653 -6.21151e-09)
(210.644 -9.33729 -6.3611e-09)
(210.516 -10.2985 -6.5322e-09)
(210.41 -11.2225 -6.73494e-09)
(210.356 -12.1289 -6.93014e-09)
(210.336 -12.9858 -7.17802e-09)
(210.39 -13.8154 -7.40686e-09)
(210.489 -14.5883 -7.69692e-09)
(210.683 -15.3296 -7.96775e-09)
(210.938 -16.0176 -8.30208e-09)
(211.307 -16.6797 -8.62401e-09)
(211.76 -17.3017 -9.01042e-09)
(212.346 -17.9083 -9.3971e-09)
(213.042 -18.4854 -9.85333e-09)
(213.916 -19.0595 -1.03371e-08)
(214.966 -19.627 -1.09113e-08)
(216.288 -20.2147 -1.15584e-08)
(217.89 -20.8256 -1.23143e-08)
(219.853 -21.4754 -1.30779e-08)
(222.265 -22.1795 -1.40045e-08)
(225.249 -22.9598 -1.49862e-08)
(228.952 -23.849 -1.61732e-08)
(234.322 -25.0544 -1.77067e-08)
(239.47 -26.2798 -1.91823e-08)
(246.599 -27.8676 -2.10377e-08)
(253.435 -29.4133 -2.27477e-08)
(261.418 -31.1289 -2.4611e-08)
(269 -32.7204 -2.62539e-08)
(276.476 -34.1686 -2.77742e-08)
(283.808 -35.4974 -2.91538e-08)
(291.066 -36.6868 -3.04775e-08)
(297.832 -37.6767 -3.15265e-08)
(303.975 -38.4627 -3.24769e-08)
(309.349 -39.064 -3.30936e-08)
(314.004 -39.4962 -3.36785e-08)
(317.65 -39.7209 -3.38963e-08)
(320.567 -39.7989 -3.41076e-08)
(322.601 -39.8212 -3.40582e-08)
(323.957 -39.9846 -3.4002e-08)
(324.643 -40.4558 -3.38331e-08)
(324.611 -41.51 -3.36236e-08)
(323.562 -43.486 -3.34335e-08)
(320.757 -47.1882 -3.3104e-08)
(315.551 -52.7774 -3.28927e-08)
(307.17 -59.4737 -3.24009e-08)
(296.054 -64.9363 -3.20938e-08)
(283.196 -66.6851 -3.14081e-08)
(269.205 -65.3299 -3.17913e-08)
(257.357 -63.9533 -3.1161e-08)
(245.12 -59.4787 -3.14393e-08)
(234.335 -56.3246 -3.09129e-08)
(223.217 -50.6289 -3.11357e-08)
(212.947 -46.5935 -3.07324e-08)
(202.441 -40.4926 -3.09305e-08)
(193.062 -35.7298 -3.05742e-08)
(184.39 -29.1379 -3.07242e-08)
(177.554 -23.4467 -3.04824e-08)
(173.002 -16.144 -3.06566e-08)
(171.225 -10.0297 -3.04414e-08)
(170.781 -3.05354 -3.05853e-08)
(170.086 1.94695 -3.05262e-08)
(171.929 8.86139 -3.05433e-08)
(171.411 13.8274 -3.05617e-08)
(173.663 19.3879 -3.0641e-08)
(174.019 24.2364 -3.07052e-08)
(176.894 29.2859 -3.08485e-08)
(178.493 34.2403 -3.09805e-08)
(182.679 39.5729 -3.12008e-08)
(186.688 45.274 -3.14074e-08)
(193.906 51.8486 -3.17045e-08)
(202.676 59.2859 -3.1997e-08)
(215.655 67.3319 -3.2372e-08)
(229.616 72.9246 -3.27322e-08)
(243.462 72.4296 -3.30878e-08)
(253.075 67.8682 -3.32826e-08)
(260.509 64.4319 -3.33757e-08)
(265.841 61.2142 -3.33722e-08)
(269.456 58.3606 -3.41426e-08)
(271.889 53.3211 -3.41667e-08)
(273.242 47.8194 -3.4399e-08)
(274.316 41.8415 -3.46476e-08)
(274.81 36.1821 -3.44892e-08)
(274.785 30.1199 -3.46274e-08)
(273.787 24.6457 -3.46502e-08)
(272.263 19.2628 -3.47677e-08)
(270.005 14.7102 -3.47231e-08)
(267.548 10.5605 -3.48323e-08)
(264.763 7.1985 -3.47924e-08)
(262.126 4.35519 -3.48686e-08)
(259.548 2.23241 -3.48092e-08)
(257.419 0.699575 -3.48471e-08)
(255.656 -0.170948 -3.47896e-08)
(254.53 -0.600806 -3.48114e-08)
(253.913 -0.688072 -3.47812e-08)
(253.672 -0.71108 -3.47888e-08)
(218.377 -2.39073 -1.01335e-08)
(217.826 -3.40158 -1.01152e-08)
(217.741 -4.42386 -1.03027e-08)
(217.56 -5.50708 -1.04e-08)
(217.724 -6.56635 -1.06287e-08)
(217.836 -7.6476 -1.08212e-08)
(218.195 -8.69247 -1.1107e-08)
(218.558 -9.73697 -1.13832e-08)
(219.148 -10.7425 -1.17364e-08)
(219.82 -11.7525 -1.20965e-08)
(220.725 -12.7414 -1.25318e-08)
(221.788 -13.7441 -1.2989e-08)
(223.113 -14.7409 -1.35297e-08)
(224.681 -15.7621 -1.41121e-08)
(226.582 -16.7937 -1.47953e-08)
(228.851 -17.8652 -1.55499e-08)
(231.596 -18.9728 -1.64354e-08)
(234.838 -20.1426 -1.74138e-08)
(238.329 -21.3338 -1.84491e-08)
(242.275 -22.5852 -1.95574e-08)
(246.494 -23.8589 -2.07168e-08)
(251.099 -25.171 -2.19193e-08)
(255.922 -26.4827 -2.3142e-08)
(261.011 -27.7992 -2.43674e-08)
(266.196 -29.09 -2.55852e-08)
(271.43 -30.3491 -2.67455e-08)
(276.495 -31.5358 -2.78402e-08)
(281.872 -32.7973 -2.89227e-08)
(285.998 -33.8529 -2.97258e-08)
(291.783 -35.1752 -3.07984e-08)
(295.874 -36.175 -3.14818e-08)
(301.102 -37.3516 -3.23432e-08)
(304.792 -38.2308 -3.28435e-08)
(309.208 -39.2079 -3.34587e-08)
(312.466 -39.9357 -3.37956e-08)
(316.085 -40.6619 -3.41871e-08)
(318.647 -41.1462 -3.43276e-08)
(321.344 -41.6148 -3.45061e-08)
(323.153 -41.9231 -3.44699e-08)
(324.985 -42.2219 -3.44808e-08)
(326.059 -42.3782 -3.42993e-08)
(327.086 -42.5998 -3.4201e-08)
(327.595 -42.8716 -3.39271e-08)
(327.884 -43.3564 -3.37618e-08)
(327.663 -44.1662 -3.34556e-08)
(326.852 -45.5841 -3.32363e-08)
(324.905 -48.0607 -3.29173e-08)
(321.355 -51.8981 -3.26188e-08)
(315.523 -56.9776 -3.22676e-08)
(307.161 -62.2505 -3.1827e-08)
(296.621 -66.1266 -3.13988e-08)
(284.466 -67.1611 -3.07736e-08)
(271.435 -65.654 -3.11024e-08)
(260.081 -63.7116 -3.05365e-08)
(248.426 -59.3752 -3.07765e-08)
(237.904 -55.8014 -3.03122e-08)
(227.219 -50.1568 -3.05123e-08)
(217.161 -45.7939 -3.01727e-08)
(207.084 -39.635 -3.03629e-08)
(197.995 -34.5527 -3.00538e-08)
(189.819 -27.7669 -3.01923e-08)
(183.399 -21.8492 -3.00027e-08)
(179.156 -14.5953 -3.01768e-08)
(177.254 -8.41462 -3.00021e-08)
(176.594 -1.71458 -3.01329e-08)
(176.13 3.37492 -3.01087e-08)
(177.208 10.2514 -3.00717e-08)
(176.89 15.1669 -3.0116e-08)
(178.457 20.9976 -3.01393e-08)
(179.007 25.8185 -3.02199e-08)
(181.385 31.0636 -3.03136e-08)
(183.2 36.0228 -3.04617e-08)
(187.104 41.428 -3.06453e-08)
(191.373 47.1251 -3.08659e-08)
(198.512 53.5572 -3.11359e-08)
(207.437 60.4397 -3.14389e-08)
(219.772 66.9484 -3.17844e-08)
(232.429 70.3368 -3.21243e-08)
(244.363 69.0948 -3.24107e-08)
(252.934 65.7132 -3.25638e-08)
(260.126 62.6198 -3.26266e-08)
(265.225 58.8997 -3.27773e-08)
(268.566 55.6923 -3.32919e-08)
(270.583 50.187 -3.35494e-08)
(271.735 45.2234 -3.36051e-08)
(272.61 39.4471 -3.38219e-08)
(273.04 34.272 -3.36858e-08)
(272.882 28.5951 -3.38469e-08)
(271.969 23.6549 -3.37873e-08)
(270.49 18.6671 -3.39367e-08)
(268.446 14.5368 -3.38754e-08)
(266.143 10.6729 -3.39744e-08)
(263.632 7.64464 -3.39443e-08)
(261.204 5.06235 -3.39996e-08)
(258.896 3.23522 -3.39557e-08)
(256.975 1.89502 -3.39763e-08)
(255.442 1.17733 -3.39345e-08)
(254.444 0.809602 -3.39418e-08)
(253.9 0.740279 -3.39218e-08)
(253.686 0.720376 -3.3924e-08)
(237.347 -1.01988 -1.73447e-08)
(237.219 -2.14008 -1.74665e-08)
(237.792 -3.32656 -1.77924e-08)
(238.316 -4.63338 -1.80533e-08)
(239.452 -5.97128 -1.84938e-08)
(240.616 -7.38452 -1.89011e-08)
(242.313 -8.80133 -1.94642e-08)
(244.097 -10.2523 -2.00178e-08)
(246.347 -11.7007 -2.07029e-08)
(248.727 -13.1873 -2.13903e-08)
(251.527 -14.6956 -2.21839e-08)
(254.487 -16.2528 -2.29822e-08)
(257.806 -17.8366 -2.38597e-08)
(261.271 -19.4559 -2.47325e-08)
(264.995 -21.0807 -2.56498e-08)
(268.779 -22.7053 -2.65374e-08)
(272.647 -24.2945 -2.7421e-08)
(276.446 -25.8433 -2.82457e-08)
(280.433 -27.3626 -2.90988e-08)
(284.341 -28.8282 -2.98904e-08)
(288.316 -30.2403 -3.06783e-08)
(292.174 -31.5862 -3.13978e-08)
(295.994 -32.8639 -3.20886e-08)
(299.653 -34.0699 -3.2705e-08)
(303.19 -35.203 -3.32766e-08)
(306.528 -36.2652 -3.377e-08)
(309.689 -37.2548 -3.42118e-08)
(313.01 -38.3084 -3.46251e-08)
(314.429 -38.9683 -3.47049e-08)
(317.501 -39.9328 -3.50316e-08)
(318.998 -40.6044 -3.50442e-08)
(321.395 -41.3659 -3.52296e-08)
(322.616 -41.9439 -3.51445e-08)
(324.49 -42.5527 -3.52184e-08)
(325.482 -43.0421 -3.50564e-08)
(326.904 -43.5122 -3.50395e-08)
(327.641 -43.9003 -3.48088e-08)
(328.641 -44.2417 -3.47202e-08)
(329.138 -44.551 -3.44339e-08)
(329.775 -44.8108 -3.42972e-08)
(330.041 -45.1158 -3.39671e-08)
(330.353 -45.4449 -3.37963e-08)
(330.276 -45.9166 -3.34507e-08)
(330.099 -46.6007 -3.32513e-08)
(329.315 -47.7136 -3.28968e-08)
(327.962 -49.5091 -3.26649e-08)
(325.393 -52.2425 -3.22901e-08)
(321.344 -56.0129 -3.19941e-08)
(315.231 -60.4104 -3.157e-08)
(307.108 -64.5992 -3.11603e-08)
(297.089 -67.4305 -3.06576e-08)
(285.514 -68.0527 -3.01064e-08)
(273.314 -66.1855 -3.03623e-08)
(262.446 -63.8997 -2.98684e-08)
(251.303 -59.4768 -3.00568e-08)
(241.082 -55.5222 -2.96607e-08)
(230.744 -49.8382 -2.98293e-08)
(220.923 -45.0868 -2.95554e-08)
(211.178 -38.8391 -2.97329e-08)
(202.372 -33.333 -2.94673e-08)
(194.561 -26.3599 -2.95919e-08)
(188.421 -20.1497 -2.94453e-08)
(184.308 -12.9555 -2.96175e-08)
(182.245 -6.74022 -2.94741e-08)
(181.403 -0.235381 -2.95945e-08)
(181.002 4.92906 -2.95932e-08)
(181.619 11.6001 -2.95255e-08)
(181.381 16.5628 -2.95801e-08)
(182.499 22.4551 -2.95694e-08)
(183.138 27.2373 -2.9653e-08)
(185.175 32.5479 -2.97141e-08)
(187.154 37.4158 -2.98691e-08)
(190.904 42.7937 -3.00288e-08)
(195.461 48.3361 -3.02593e-08)
(202.597 54.5003 -3.05111e-08)
(211.553 60.7101 -3.0818e-08)
(222.992 65.9066 -3.11353e-08)
(234.305 67.8766 -3.14488e-08)
(244.773 66.5143 -3.16871e-08)
(252.777 63.8006 -3.18301e-08)
(259.642 60.703 -3.18888e-08)
(264.421 56.7394 -3.20573e-08)
(267.37 53.3142 -3.2613e-08)
(269.121 47.8472 -3.25826e-08)
(270.098 43.2519 -3.30036e-08)
(270.897 37.7109 -3.27427e-08)
(271.243 32.923 -3.30304e-08)
(271.06 27.5763 -3.29401e-08)
(270.208 23.0284 -3.30073e-08)
(268.832 18.3666 -3.308e-08)
(266.969 14.5701 -3.30478e-08)
(264.86 10.9693 -3.31202e-08)
(262.582 8.21681 -3.31009e-08)
(260.377 5.83524 -3.31405e-08)
(258.314 4.22167 -3.3108e-08)
(256.6 3.04658 -3.31088e-08)
(255.255 2.44728 -3.30856e-08)
(254.369 2.12521 -3.30787e-08)
(253.886 2.06956 -3.30688e-08)
(253.693 2.05184 -3.30652e-08)
(268.091 -0.223126 -2.62482e-08)
(268.883 -1.5933 -2.65849e-08)
(270.052 -3.10169 -2.69922e-08)
(271.409 -4.76332 -2.74069e-08)
(273.116 -6.49599 -2.78883e-08)
(274.972 -8.31317 -2.837e-08)
(277.129 -10.1491 -2.8911e-08)
(279.377 -12.013 -2.9442e-08)
(281.857 -13.8599 -3.0018e-08)
(284.366 -15.7023 -3.0572e-08)
(287.041 -17.5207 -3.11539e-08)
(289.707 -19.3378 -3.17018e-08)
(292.489 -21.136 -3.22615e-08)
(295.227 -22.9268 -3.27767e-08)
(298.029 -24.6916 -3.32891e-08)
(300.754 -26.4349 -3.37491e-08)
(303.495 -28.138 -3.41949e-08)
(306.136 -29.799 -3.45858e-08)
(308.758 -31.3962 -3.49565e-08)
(311.241 -32.9248 -3.5266e-08)
(313.667 -34.3715 -3.55498e-08)
(315.927 -35.7326 -3.57705e-08)
(318.1 -37.0018 -3.59632e-08)
(320.093 -38.1781 -3.60937e-08)
(321.976 -39.2605 -3.61957e-08)
(323.678 -40.2504 -3.62409e-08)
(325.256 -41.1501 -3.62586e-08)
(326.795 -42.0695 -3.62189e-08)
(327.009 -42.5528 -3.60491e-08)
(328.313 -43.2841 -3.59813e-08)
(328.765 -43.857 -3.57364e-08)
(329.644 -44.3269 -3.56418e-08)
(329.967 -44.8193 -3.53517e-08)
(330.644 -45.1952 -3.52292e-08)
(330.879 -45.645 -3.49109e-08)
(331.431 -45.9864 -3.47637e-08)
(331.587 -46.3983 -3.44261e-08)
(332.007 -46.6978 -3.42604e-08)
(332.076 -47.0675 -3.39065e-08)
(332.341 -47.3548 -3.37223e-08)
(332.258 -47.7479 -3.33652e-08)
(332.276 -48.171 -3.31633e-08)
(331.873 -48.819 -3.28046e-08)
(331.353 -49.7338 -3.25839e-08)
(330.159 -51.1374 -3.22195e-08)
(328.384 -53.1815 -3.1967e-08)
(325.362 -56.0312 -3.15765e-08)
(321.018 -59.541 -3.12688e-08)
(314.862 -63.3277 -3.08248e-08)
(307.045 -66.7144 -3.04251e-08)
(297.525 -68.8539 -2.99004e-08)
(286.489 -69.164 -2.94047e-08)
(275.047 -66.8607 -2.95991e-08)
(264.64 -64.2934 -2.91624e-08)
(253.98 -59.6652 -2.93057e-08)
(244.061 -55.3762 -2.89658e-08)
(234.041 -49.5431 -2.91071e-08)
(224.451 -44.4372 -2.88903e-08)
(214.999 -38.017 -2.90582e-08)
(206.454 -32.1189 -2.88291e-08)
(198.935 -24.9273 -2.89421e-08)
(192.979 -18.444 -2.88289e-08)
(188.897 -11.2325 -2.89976e-08)
(186.642 -4.95885 -2.88818e-08)
(185.605 1.45407 -2.89934e-08)
(185.163 6.63188 -2.90092e-08)
(185.494 13.1276 -2.89228e-08)
(185.25 18.1801 -2.89814e-08)
(186.056 24.0661 -2.89492e-08)
(186.696 28.8656 -2.90302e-08)
(188.504 34.2121 -2.90705e-08)
(190.567 39.0194 -2.92291e-08)
(194.232 44.3622 -2.93742e-08)
(198.96 49.7068 -2.96113e-08)
(206.019 55.4743 -2.98519e-08)
(214.783 60.7951 -3.01601e-08)
(225.356 64.6672 -3.0452e-08)
(235.624 65.6197 -3.0746e-08)
(245.023 64.3444 -3.09593e-08)
(252.601 61.8379 -3.10984e-08)
(259.062 58.5644 -3.11563e-08)
(263.509 54.3917 -3.13182e-08)
(266.148 50.8361 -3.18341e-08)
(267.724 45.5751 -3.16758e-08)
(268.565 41.2758 -3.23831e-08)
(269.303 36.0339 -3.17766e-08)
(269.563 31.5861 -3.23261e-08)
(269.388 26.5825 -3.196e-08)
(268.574 22.392 -3.23253e-08)
(267.319 18.0625 -3.21403e-08)
(265.606 14.5821 -3.23105e-08)
(263.692 11.263 -3.22409e-08)
(261.622 8.76869 -3.23086e-08)
(259.639 6.61221 -3.2272e-08)
(257.794 5.19044 -3.22944e-08)
(256.274 4.15092 -3.2254e-08)
(255.088 3.64014 -3.22573e-08)
(254.301 3.35389 -3.22418e-08)
(253.869 3.30823 -3.22351e-08)
(253.695 3.29226 -3.2232e-08)
(296.213 0.022939 -3.31161e-08)
(297.106 -1.45624 -3.34344e-08)
(297.948 -3.11008 -3.37146e-08)
(299.159 -4.93841 -3.40387e-08)
(300.366 -6.86493 -3.43329e-08)
(301.845 -8.88986 -3.46525e-08)
(303.33 -10.9467 -3.49476e-08)
(304.981 -13.0323 -3.52505e-08)
(306.619 -15.0987 -3.55305e-08)
(308.325 -17.1501 -3.5803e-08)
(309.989 -19.1589 -3.60518e-08)
(311.659 -21.145 -3.62809e-08)
(313.294 -23.0983 -3.64854e-08)
(314.907 -25.0271 -3.66624e-08)
(316.491 -26.9161 -3.68135e-08)
(318.032 -28.7659 -3.69313e-08)
(319.542 -30.5595 -3.70249e-08)
(320.99 -32.2948 -3.70811e-08)
(322.4 -33.9556 -3.71131e-08)
(323.731 -35.5406 -3.7108e-08)
(325.018 -37.0366 -3.70802e-08)
(326.213 -38.4438 -3.70165e-08)
(327.357 -39.7524 -3.69317e-08)
(328.402 -40.9661 -3.68136e-08)
(329.393 -42.0784 -3.66784e-08)
(330.283 -43.0964 -3.65108e-08)
(331.111 -44.0165 -3.63305e-08)
(331.868 -44.9473 -3.6096e-08)
(331.879 -45.3688 -3.58941e-08)
(332.53 -46.0989 -3.56597e-08)
(332.639 -46.5742 -3.53677e-08)
(333.069 -47.0425 -3.51572e-08)
(333.111 -47.4284 -3.48409e-08)
(333.432 -47.7895 -3.46256e-08)
(333.433 -48.1326 -3.43025e-08)