/*--------------------------------*- C++ -*----------------------------------*\
  =========                 |
  \\      /  F ield         | OpenFOAM: The Open Source CFD Toolbox
   \\    /   O peration     | Website:  https://openfoam.org
    \\  /    A nd           | Version:  7
     \\/     M anipulation  |
\*---------------------------------------------------------------------------*/
FoamFile
{
    version     2.0;
    format      ascii;
    class       volScalarField;
    location    "0.1475";
    object      nut;
}
// * * * * * * * * * * * * * * * * * * * * * * * * * * * * * * * * * * * * * //

dimensions      [0 2 -1 0 0 0 0];

internalField   nonuniform List<scalar> 
48560
(
0.0109737
0.0108591
0.0107428
0.0106293
0.0105199
0.0104152
0.0103164
0.0102242
0.0101392
0.0100622
0.00999376
0.00993445
0.00988481
0.00984534
0.00981655
0.00979891
0.00979293
0.00979909
0.00981794
0.00985001
0.00989589
0.00995622
0.0100317
0.0101231
0.0102312
0.010357
0.0105014
0.0106656
0.0109097
0.011187
0.0114957
0.0118335
0.0121954
0.0125761
0.0129685
0.0133742
0.0137934
0.014233
0.0147002
0.0152163
0.0158008
0.0164517
0.0171728
0.0179348
0.0186576
0.0190399
0.0182837
0.0159676
0.0125075
0.00882589
0.0027288
0.000930471
0.000976961
0.000968109
0.000996071
0.000993329
0.00103448
0.00104539
0.00111906
0.00117795
0.00133461
0.00141797
0.00147704
0.00134195
0.00147459
0.00116008
0.00117267
0.001222
0.00130549
0.00140813
0.0015377
0.00167393
0.00182742
0.00197027
0.0021075
0.00220703
0.00224949
0.00218694
0.00202247
0.0018236
0.00160592
0.00163222
0.00174761
0.00175033
0.00173291
0.00166658
0.00160078
0.00153269
0.00148619
0.00144006
0.00141113
0.00138601
0.00136374
0.00133895
0.00131369
0.00128166
0.00124375
0.00119479
0.00113398
0.00105896
0.0104091
0.0103744
0.0103419
0.0103136
0.0102905
0.0102733
0.0102629
0.0102597
0.0102646
0.010278
0.0103004
0.0103324
0.0103745
0.0104271
0.0104907
0.0105659
0.0106532
0.0107528
0.0108653
0.0109906
0.0111293
0.0112816
0.0114477
0.0116277
0.0118218
0.0120299
0.0122516
0.0124871
0.012832
0.0131973
0.0135867
0.0139978
0.0144355
0.014903
0.0154153
0.0159906
0.0166401
0.017377
0.0182058
0.019126
0.020134
0.021161
0.0220253
0.0223329
0.0217185
0.0199047
0.0171451
0.0139664
0.0113517
0.00999881
0.0104304
0.016789
0.0167868
0.0166464
0.016696
0.0165327
0.0155165
0.0153022
0.0139815
0.0139171
0.0124219
0.0118381
0.0105567
0.0111026
0.00970121
0.00967826
0.00942962
0.00948675
0.00922807
0.00919241
0.00917851
0.00931144
0.00947373
0.00972371
0.00999408
0.0101931
0.0101336
0.00967515
0.010505
0.0103687
0.0114339
0.0162505
0.0148503
0.0140152
0.0136373
0.0136112
0.0142586
0.0159081
0.0176915
0.0198597
0.0220432
0.0241474
0.0263964
0.0289674
0.0318087
0.0351617
0.0392933
0.0454352
0.0557386
0.0795714
0.0112002
0.0112295
0.0112663
0.0113097
0.011361
0.0114201
0.011488
0.0115643
0.0116498
0.0117441
0.0118481
0.0119613
0.0120846
0.0122177
0.0123611
0.0125146
0.0126786
0.0128528
0.0130375
0.013233
0.0134397
0.0136578
0.013888
0.0141308
0.0143871
0.0146576
0.0149435
0.0152475
0.0157159
0.0162311
0.0168027
0.0174365
0.0181418
0.0189255
0.0197988
0.020765
0.021823
0.0229502
0.0240795
0.0250318
0.0256201
0.0255091
0.0245739
0.0227741
0.0203055
0.0175607
0.015238
0.0137253
0.0134538
0.0146103
0.0178898
0.0263048
0.0259034
0.0254525
0.0240057
0.0247609
0.0224105
0.0236589
0.0202966
0.0210282
0.0181476
0.0172709
0.0154706
0.0156265
0.0140941
0.0145018
0.0146367
0.0154652
0.015214
0.0160481
0.0159416
0.0158821
0.0159223
0.0160211
0.0162259
0.0165007
0.0168834
0.0171806
0.0177248
0.016366
0.0234447
0.0373359
0.0346863
0.0332347
0.0328947
0.0274273
0.0316573
0.0323292
0.0425923
0.0518704
0.062314
0.0684964
0.0749958
0.0825782
0.091528
0.102933
0.106043
0.0962001
0.0892948
0.0874465
0.0136173
0.0136787
0.0137525
0.0138369
0.013933
0.0140402
0.0141593
0.0142895
0.0144314
0.0145848
0.0147504
0.0149282
0.0151192
0.0153235
0.015542
0.0157749
0.0160235
0.0162883
0.0165708
0.0168723
0.0171936
0.0175362
0.0179013
0.0182903
0.0187051
0.0191477
0.0196201
0.0201262
0.020895
0.0217336
0.0226448
0.0236271
0.0246716
0.0257531
0.0268252
0.0278008
0.0285471
0.028908
0.0287238
0.0279608
0.0265611
0.0246426
0.0224446
0.0202724
0.0183543
0.0170161
0.0165502
0.0171674
0.0189193
0.0219313
0.0272161
0.0334785
0.0342213
0.034613
0.0317212
0.0327532
0.0289248
0.0294114
0.0257898
0.0257823
0.0227124
0.0213041
0.0197125
0.0196306
0.0194055
0.0194676
0.0207702
0.0222167
0.0227014
0.0230523
0.0234995
0.0240816
0.0247438
0.0255245
0.0259532
0.0237223
0.0202803
0.0202106
0.0232196
0.0274624
0.0476222
0.0700052
0.0670666
0.0658038
0.0532417
0.0492557
0.0537777
0.0500327
0.0538409
0.0542467
0.0603297
0.0647231
0.0726804
0.0790181
0.0868668
0.093105
0.0973255
0.0977886
0.096748
0.096193
0.0177783
0.0178718
0.0179882
0.018125
0.0182826
0.0184609
0.01866
0.0188801
0.0191215
0.0193846
0.0196701
0.0199784
0.0203103
0.0206663
0.0210473
0.0214537
0.0218864
0.0223456
0.022832
0.0233459
0.0238878
0.0244576
0.0250561
0.0256833
0.0263386
0.0270193
0.0277208
0.0284363
0.0293866
0.0303183
0.0311549
0.0318502
0.0323067
0.0324544
0.032257
0.0316659
0.030659
0.0292661
0.0275579
0.0257551
0.0239141
0.0222255
0.0208049
0.0198437
0.019522
0.0200296
0.0214605
0.0237976
0.0270606
0.0296532
0.0360633
0.0376658
0.0388583
0.038414
0.0369933
0.0370496
0.0343729
0.0342538
0.031347
0.030945
0.0283845
0.0268427
0.0254698
0.0255595
0.0266852
0.0261876
0.0291693
0.0302673
0.0330636
0.0342475
0.0360682
0.0369094
0.037051
0.0357785
0.0327113
0.0286877
0.0254247
0.025616
0.0263286
0.0347238
0.053403
0.065445
0.0693547
0.0465561
0.0433944
0.0444596
0.0465759
0.0467116
0.052306
0.0547496
0.0625046
0.0677411
0.0772262
0.0851342
0.0954177
0.101606
0.103965
0.105308
0.106898
0.10803
0.025078
0.0251881
0.0253442
0.0255388
0.025773
0.026043
0.02635
0.0266913
0.0270681
0.0274782
0.0279227
0.0283998
0.0289102
0.029452
0.0300248
0.0306253
0.0312506
0.0318931
0.0325442
0.0331943
0.0338302
0.034437
0.0349962
0.0354909
0.0359031
0.0362185
0.0364248
0.0365192
0.0364065
0.0360941
0.0355032
0.0346811
0.0335875
0.0322968
0.030865
0.0293684
0.0278435
0.0263766
0.025028
0.0238814
0.0230179
0.0225571
0.0226106
0.0233035
0.0247243
0.0269011
0.0297591
0.0332658
0.0326653
0.0349688
0.0395264
0.0408257
0.0425762
0.0428526
0.0422884
0.041248
0.0399835
0.0386579
0.0368355
0.0355083
0.0337718
0.032189
0.0316719
0.0324489
0.0348337
0.0342303
0.0383856
0.0391553
0.0435119
0.0439153
0.0470504
0.0458746
0.0457179
0.0417831
0.0373011
0.0319927
0.0294642
0.0303145
0.0323704
0.0409914
0.0529833
0.0602888
0.0606643
0.0483408
0.0496818
0.0489254
0.0509913
0.0516476
0.0560503
0.0590663
0.0657657
0.0706937
0.0789448
0.0865633
0.0966381
0.105553
0.110597
0.113772
0.116131
0.117678
0.0366395
0.0366407
0.0367174
0.0368547
0.0370545
0.0373022
0.0375963
0.037922
0.038275
0.0386405
0.039013
0.0393769
0.039724
0.0400378
0.0403082
0.0405195
0.0406632
0.0407282
0.0407092
0.0405936
0.0403788
0.0400584
0.0396345
0.0391078
0.0384857
0.0377777
0.0369991
0.0361698
0.0350382
0.0338627
0.032645
0.0314319
0.030237
0.0291119
0.0280685
0.0271607
0.0264216
0.0259132
0.0256864
0.0258158
0.0263762
0.027441
0.0290651
0.0312697
0.0340318
0.0372626
0.040921
0.0401483
0.0381791
0.0408364
0.0430932
0.0437588
0.0455714
0.0460212
0.0453927
0.0442746
0.043134
0.0417579
0.040129
0.0387968
0.0375495
0.0366811
0.0369686
0.0387609
0.0416362
0.0415588
0.0457039
0.0467006
0.0509329
0.0515925
0.0545733
0.052975
0.0521249
0.0469549
0.0418262
0.0365256
0.0345855
0.0347567
0.0373831
0.0451312
0.0515652
0.0557936
0.0536867
0.0491197
0.0515682
0.051665
0.0541805
0.0557908
0.0602666
0.0640523
0.0707665
0.0772782
0.0868279
0.0964076
0.105904
0.113517
0.118266
0.122237
0.124853
0.126588
0.04939
0.0489478
0.0485355
0.0481657
0.047821
0.0474923
0.0471635
0.0468216
0.0464544
0.0460515
0.0456068
0.0451135
0.0445696
0.0439709
0.0433186
0.0426128
0.0418598
0.041066
0.0402442
0.0393957
0.0385313
0.0376552
0.0367779
0.0359051
0.0350463
0.0342075
0.0333963
0.0326186
0.0318271
0.031107
0.0304832
0.0299662
0.0295901
0.0293699
0.0293409
0.0295323
0.0299882
0.0307445
0.0318535
0.0333493
0.0352585
0.0375797
0.0402989
0.0433572
0.0467083
0.0503239
0.0494198
0.0443625
0.0435159
0.0453526
0.0457598
0.0460188
0.0481966
0.0488088
0.0478949
0.0467912
0.045548
0.04405
0.0424491
0.040937
0.0401074
0.0397939
0.0409943
0.0435508
0.0468253
0.0476735
0.0514125
0.0526872
0.0566336
0.0579711
0.060371
0.0588781
0.0566931
0.0507437
0.0449808
0.040255
0.0389457
0.0393032
0.0422549
0.0479879
0.0517122
0.0557897
0.0542203
0.0536095
0.055342
0.0563124
0.0583803
0.060735
0.0647916
0.0693923
0.0760312
0.083572
0.0931473
0.103501
0.113948
0.121913
0.127001
0.131214
0.134059
0.135943
0.0527414
0.0517354
0.0507179
0.0497451
0.0487871
0.0478586
0.0469385
0.0460355
0.0451376
0.0442523
0.0433751
0.0425135
0.0416671
0.0408416
0.0400386
0.0392627
0.0385165
0.0378035
0.0371264
0.0364917
0.0359047
0.0353725
0.0349028
0.0345046
0.0341881
0.0339652
0.0338505
0.0338612
0.0339491
0.0341605
0.0345245
0.0350371
0.0357197
0.0365718
0.0376396
0.0389374
0.0404842
0.0422912
0.0443651
0.0467023
0.0492814
0.0520758
0.0550517
0.0581876
0.0614854
0.0600552
0.0528309
0.0492154
0.0482676
0.0490769
0.0480491
0.0480693
0.0502947
0.0507616
0.0495456
0.0484
0.0468862
0.0454085
0.0436281
0.0421438
0.0415344
0.0417442
0.0434934
0.0465578
0.050208
0.0520441
0.0550419
0.0565009
0.0601034
0.0618338
0.0636461
0.0624107
0.059414
0.0537528
0.0483465
0.0445644
0.0433206
0.0435992
0.0461914
0.0497718
0.0519614
0.0557346
0.0553887
0.0567528
0.0584129
0.0600303
0.0621882
0.0652832
0.0696376
0.0751529
0.0823873
0.0909444
0.101397
0.112125
0.122576
0.130579
0.136189
0.140434
0.143575
0.145575
0.0475774
0.0466749
0.0457879
0.0449567
0.0441633
0.0434161
0.0427028
0.0420309
0.0413943
0.0408006
0.0402482
0.0397446
0.0392907
0.0388929
0.0385537
0.0382798
0.0380762
0.0379512
0.0379133
0.0379742
0.0381464
0.0384459
0.0388904
0.0395015
0.0403042
0.0413284
0.0426092
0.0441798
0.0451932
0.0463078
0.0475431
0.0488807
0.0503108
0.0518232
0.0534808
0.0552881
0.057235
0.0593234
0.0615374
0.0638727
0.0663069
0.0688343
0.0714419
0.0741384
0.0708339
0.062577
0.0568719
0.0534441
0.0521689
0.0519761
0.0499513
0.0497465
0.0517658
0.0520311
0.050554
0.0493078
0.0475307
0.0460279
0.044038
0.04256
0.0420805
0.042626
0.044675
0.04801
0.0520244
0.0546513
0.056983
0.0585874
0.0619087
0.0639233
0.0656026
0.064751
0.0616203
0.0565428
0.0517494
0.0487557
0.0475346
0.0476447
0.0492283
0.0512571
0.052892
0.057096
0.0579377
0.0602935
0.0620335
0.0639801
0.0663922
0.0699566
0.0748801
0.0810216
0.0892074
0.0985731
0.110123
0.121195
0.132124
0.139678
0.145741
0.149777
0.153302
0.155375
0.0435628
0.043131
0.0427333
0.0423857
0.0420839
0.0418297
0.0416223
0.041466
0.0413637
0.041322
0.0413467
0.0414458
0.0416265
0.0418974
0.0422676
0.0427482
0.0433512
0.0440912
0.0449845
0.04605
0.0473083
0.0487829
0.0504985
0.052483
0.0547649
0.0573743
0.0603414
0.0636693
0.0650618
0.0664498
0.0678731
0.0693009
0.070724
0.0721254
0.073601
0.0751449
0.076749
0.078407
0.0801093
0.0818507
0.0836292
0.0854483
0.0873126
0.0795877
0.0723349
0.0653584
0.0603898
0.0567786
0.0551884
0.0541197
0.0515088
0.0510602
0.0526639
0.0526698
0.0509295
0.0495253
0.0475413
0.0459831
0.0438145
0.0423596
0.0419346
0.0426511
0.0447435
0.048161
0.0523987
0.055577
0.0575469
0.0593497
0.0623751
0.0647576
0.0666468
0.0664817
0.0639105
0.059841
0.055831
0.0532241
0.0515439
0.0510855
0.0515826
0.0524837
0.0539216
0.0584693
0.0603635
0.063462
0.0655928
0.0678663
0.0707198
0.0748056
0.0805535
0.0874106
0.0968399
0.106932
0.119706
0.130691
0.142121
0.14914
0.155622
0.159372
0.163267
0.165404
0.0448213
0.0448747
0.0449782
0.0451328
0.0453428
0.0456101
0.0459412
0.0463417
0.0468207
0.047387
0.0480517
0.0488254
0.0497202
0.0507459
0.0519144
0.0532379
0.0547316
0.0564094
0.0582879
0.060382
0.0627073
0.0652758
0.0681015
0.0711912
0.0745474
0.0781619
0.0820175
0.0860483
0.0871161
0.0880937
0.0890535
0.0899675
0.0908398
0.0916472
0.0924912
0.0933579
0.0942444
0.0951393
0.096042
0.0944595
0.0921638
0.0886846
0.0847378
0.0792471
0.0736521
0.0675531
0.0628299
0.0592729
0.0572272
0.055524
0.0525728
0.0520301
0.0530165
0.0527462
0.0507453
0.049172
0.0470585
0.0454315
0.0431551
0.0417242
0.0413241
0.0420775
0.0440549
0.0473861
0.0516878
0.0552655
0.0573746
0.059408
0.0622082
0.0651813
0.0675894
0.068487
0.0668815
0.0639001
0.0604536
0.0577971
0.0553429
0.0540928
0.0535289
0.0537012
0.0551625
0.0601461
0.0629415
0.0667333
0.0693722
0.0719735
0.0752919
0.0799947
0.0866553
0.0943916
0.10513
0.115988
0.129891
0.140754
0.15242
0.15895
0.165685
0.169261
0.173401
0.17562
0.0514096
0.0519152
0.0524872
0.0531146
0.0538044
0.0545602
0.0553906
0.0563026
0.0573071
0.0584141
0.0596364
0.0609854
0.0624736
0.0641091
0.0658983
0.0678465
0.0699575
0.0722328
0.074675
0.0772808
0.0800452
0.0829572
0.0860006
0.0891432
0.092347
0.0955595
0.0987235
0.101761
0.102247
0.101866
0.0999034
0.0961598
0.0943065
0.0920073
0.0903911
0.0887313
0.0873345
0.0856836
0.0843471
0.0828491
0.0816494
0.0801167
0.0785397
0.0760281
0.0726193
0.0684799
0.0646294
0.0609453
0.0584908
0.0563043
0.0532062
0.0528075
0.0529633
0.0523507
0.0500574
0.0483145
0.0461418
0.0444602
0.0421477
0.0407546
0.0403807
0.0410981
0.0428633
0.0459719
0.0501841
0.0541325
0.0567961
0.0590582
0.0617211
0.0654737
0.0686339
0.0710198
0.070744
0.068923
0.0656636
0.0623829
0.058968
0.0567683
0.0552007
0.0548406
0.0563159
0.0616576
0.065317
0.0698693
0.0732293
0.0762795
0.0801096
0.0856172
0.0932876
0.102154
0.114204
0.125901
0.140622
0.151411
0.16299
0.169095
0.175819
0.179323
0.183573
0.185895
0.0613997
0.0622916
0.0632577
0.0642725
0.0653414
0.0664658
0.0676509
0.0688999
0.0702184
0.0716119
0.0730878
0.0746532
0.0763155
0.078079
0.0799411
0.0818906
0.0839093
0.085979
0.0880762
0.0901738
0.0922385
0.0942305
0.0960979
0.0977837
0.0992259
0.100363
0.0982312
0.0945713
0.0940998
0.0885127
0.0876725
0.0843146
0.0831398
0.0808719
0.0795172
0.0780326
0.0767824
0.0756263
0.0743416
0.0731983
0.0719971
0.0708865
0.0698112
0.0687945
0.0678598
0.0665057
0.0643369
0.0615732
0.0592397
0.0567394
0.053781
0.0533878
0.0525879
0.051497
0.0488893
0.0470054
0.0448477
0.043181
0.0409408
0.0396258
0.0392753
0.0399104
0.0413955
0.044175
0.0481621
0.0524195
0.0558799
0.0584459
0.0610823
0.0657913
0.0699575
0.0742644
0.0755995
0.0747975
0.07116
0.0667393
0.0622834
0.059054
0.0566966
0.0558644
0.0573447
0.0629499
0.0673919
0.0728441
0.077172
0.0808034
0.0852152
0.0917258
0.100528
0.11077
0.124127
0.136775
0.151999
0.162669
0.17383
0.17951
0.185937
0.189419
0.193655
0.196082
0.0715648
0.072649
0.0737951
0.0749669
0.0761654
0.0773872
0.0786315
0.0798931
0.081168
0.0824499
0.0837334
0.0850136
0.0862871
0.0875508
0.0888001
0.0900204
0.0911834
0.0922535
0.0931921
0.0939591
0.0932393
0.0915306
0.0901207
0.0885909
0.0869017
0.0848632
0.083175
0.0811589
0.0812121
0.076792
0.0769117
0.0740472
0.0737396
0.0719096
0.0712407
0.070251
0.0693017
0.0687014
0.0676779
0.0668029
0.0658076
0.0649364
0.0640006
0.0632467
0.0625727
0.0619513
0.061343
0.0607743
0.0593326
0.0575333
0.0546645
0.0540556
0.0522744
0.0504248
0.047335
0.0452475
0.0431301
0.0415294
0.0394107
0.0381928
0.0379011
0.0384858
0.0397149
0.0421581
0.0458358
0.0502429
0.0543725
0.0574299
0.0604883
0.0659764
0.0715695
0.0780553
0.0813417
0.0812602
0.0766271
0.0707433
0.0651221
0.0609222
0.0579821
0.0567147
0.0581368
0.0638537
0.0690346
0.0755937
0.0810249
0.0856312
0.0908413
0.0984707
0.108635
0.120434
0.13513
0.148644
0.164041
0.174446
0.184939
0.190124
0.195957
0.199363
0.203475
0.205992
0.0784182
0.0793776
0.080364
0.0813418
0.0823088
0.0832589
0.0841867
0.0850829
0.0859366
0.0867333
0.0874564
0.0880874
0.0886089
0.0890066
0.0892706
0.089395
0.0880762
0.0852191
0.0818551
0.0786656
0.0758154
0.0735483
0.0718247
0.0705683
0.0695392
0.0685573
0.0678971
0.0673943
0.0679215
0.0648329
0.0658409
0.0634139
0.0639888
0.0626601
0.0627295
0.0621857
0.0616777
0.0613951
0.0607899
0.0604936
0.0601411
0.0599558
0.0596902
0.0594066
0.0589782
0.0585472
0.0583643
0.0583165
0.0581908
0.0578223
0.0556742
0.0545967
0.0517036
0.0487656
0.0451664
0.0429423
0.0409778
0.039609
0.0378222
0.0368039
0.0365876
0.0371123
0.038047
0.0400855
0.0432545
0.0475212
0.051937
0.0558536
0.0601264
0.0657236
0.0734172
0.0819698
0.0875561
0.0877064
0.0815239
0.0741804
0.0675704
0.0626032
0.0591772
0.0575405
0.0588053
0.064536
0.0705213
0.0782741
0.0849827
0.0912987
0.0976446
0.106393
0.118286
0.131693
0.14777
0.161719
0.176715
0.186421
0.19602
0.200695
0.205694
0.20884
0.212705
0.215284
0.0796601
0.0801989
0.0807198
0.0812016
0.0816408
0.0820325
0.0823718
0.0826505
0.0828579
0.0829805
0.0830014
0.0828989
0.0826476
0.0822222
0.0816008
0.0757802
0.0721592
0.0699957
0.06736
0.0640557
0.0607325
0.0578464
0.0555505
0.0539713
0.0530266
0.0525672
0.0526522
0.0532435
0.05449
0.0535117
0.0556686
0.053646
0.0550159
0.0539735
0.0546549
0.0541933
0.054238
0.0538395
0.0537389
0.0537565
0.0538385
0.0539625
0.0543188
0.0546332
0.0551586
0.0554745
0.0557988
0.055906
0.056393
0.05698
0.0568259
0.0557056
0.0523795
0.0479124
0.0430796
0.0402041
0.0382532
0.0371107
0.0356781
0.0348136
0.0347009
0.0352805
0.0360152
0.0378162
0.0404576
0.0445037
0.048941
0.053762
0.0594016
0.064984
0.0749698
0.0854427
0.0933391
0.0932558
0.0854836
0.0768098
0.0694859
0.0640719
0.0602795
0.0583585
0.0593647
0.0650317
0.0719113
0.0809812
0.0896233
0.0986354
0.106683
0.116881
0.131048
0.146032
0.163246
0.176657
0.190039
0.197995
0.206258
0.210674
0.214904
0.217521
0.220806
0.223362
0.0749538
0.0749438
0.0748813
0.0747658
0.0745943
0.074365
0.0740754
0.0737217
0.0732969
0.072793
0.072201
0.0715078
0.070695
0.0697404
0.068618
0.0673035
0.0642288
0.0586895
0.0554937
0.052454
0.0487851
0.0450236
0.0419549
0.0396911
0.0384395
0.0380297
0.0382615
0.0363313
0.0376106
0.0389098
0.0400804
0.0414114
0.0427444
0.0443057
0.0458499
0.046958
0.0477254
0.0475468
0.048048
0.048169
0.0485687
0.0486849
0.0491853
0.0494641
0.0501843
0.0509048
0.0519471
0.0528637
0.0539136
0.0551722
0.0559478
0.05561
0.051048
0.0450482
0.0395842
0.0364085
0.0346427
0.0340326
0.0334869
0.0331851
0.0331459
0.0339935
0.0343679
0.035941
0.0376903
0.0411922
0.0453514
0.050543
0.0568622
0.0645162
0.0750135
0.0881159
0.0974136
0.0966714
0.0877035
0.0784073
0.0708607
0.0653825
0.061459
0.0593589
0.0600306
0.0654666
0.0729304
0.0833959
0.094644
0.107327
0.118492
0.131596
0.148738
0.165596
0.18269
0.193974
0.203938
0.209252
0.215415
0.219882
0.223788
0.225751
0.227642
0.229737
0.0656203
0.065133
0.0645807
0.0639812
0.0633327
0.0626356
0.0618877
0.0610874
0.060233
0.0593233
0.0583545
0.0573228
0.0562208
0.0550379
0.0537579
0.0523593
0.0508166
0.0491081
0.0472242
0.0427629
0.0390749
0.035248
0.0316125
0.0287439
0.0268299
0.0258453
0.025675
0.0233412
0.0243673
0.0254426
0.026361
0.0274615
0.0285394
0.0298446
0.0311368
0.032553
0.0340172
0.0356016
0.03728
0.0390885
0.0410188
0.0430992
0.0439414
0.0442466
0.0449558
0.0457819
0.0471741
0.048761
0.0508837
0.0534299
0.0560165
0.059843
0.0580328
0.0494996
0.039779
0.0340066
0.0311705
0.0303784
0.0299885
0.0304732
0.030227
0.0315501
0.0315405
0.0332996
0.0344454
0.0379763
0.0419481
0.0471303
0.0530799
0.063493
0.0741483
0.0896418
0.0997495
0.0978517
0.0882245
0.0788285
0.0713945
0.0659744
0.0620937
0.0597647
0.0597411
0.0639898
0.072083
0.0836254
0.0974321
0.114094
0.130628
0.147419
0.166614
0.185198
0.196283
0.20202
0.207858
0.213679
0.219356
0.224694
0.229458
0.232231
0.233245
0.234507
0.0537418
0.0529745
0.0521488
0.0512925
0.0504042
0.0494848
0.0485324
0.0475475
0.0465298
0.0454806
0.0443988
0.0432843
0.0421347
0.0409476
0.0397173
0.0384351
0.0370865
0.0356517
0.0341061
0.0324263
0.0306106
0.0286628
0.0261425
0.0216877
0.0184979
0.0167887
0.0166437
0.0149829
0.0155862
0.0162905
0.0168437
0.0175617
0.0182515
0.0191323
0.0200063
0.0210068
0.0220519
0.0232212
0.0244659
0.025843
0.0273356
0.0289931
0.0307994
0.0327916
0.0349552
0.0372958
0.039768
0.0418776
0.0442958
0.0471127
0.0495072
0.0513736
0.0523222
0.0454775
0.0346428
0.0302393
0.0286537
0.0280901
0.0280492
0.0296635
0.0291388
0.0308601
0.0306476
0.0324056
0.032823
0.0354882
0.037907
0.0424932
0.0479741
0.0569066
0.0704138
0.0820358
0.0913026
0.0897928
0.0829571
0.0754121
0.0695459
0.0650771
0.0615944
0.0592378
0.0588197
0.0626954
0.0701147
0.080692
0.0953364
0.112734
0.133137
0.145019
0.150518
0.156501
0.163005
0.17007
0.177735
0.186001
0.194796
0.203997
0.213314
0.222261
0.23007
0.235744
0.0413984
0.0405714
0.0397011
0.0388171
0.0379178
0.0370047
0.0360762
0.035134
0.0341775
0.033208
0.0322246
0.0312285
0.0302188
0.0291962
0.0281597
0.0271092
0.0260419
0.0249532
0.023832
0.0226602
0.0214126
0.0200638
0.0186076
0.0170633
0.0142186
0.0115047
0.0109086
0.0105058
0.0106927
0.011018
0.0112432
0.0115892
0.011916
0.0123676
0.0128119
0.0133523
0.01392
0.0145857
0.0152987
0.0161184
0.0170137
0.0180356
0.019196
0.0205234
0.0220164
0.0236886
0.0255163
0.0274712
0.029481
0.0314638
0.0332905
0.0348473
0.0353701
0.0355941
0.035923
0.0366457
0.0319096
0.0284277
0.0272958
0.0297423
0.0283709
0.0307587
0.0302104
0.0311191
0.0314682
0.0326868
0.0365951
0.0421146
0.0490706
0.0566017
0.0752285
0.0800313
0.0798662
0.0801343
0.0789524
0.0705842
0.0645096
0.0605549
0.0576746
0.0556749
0.0541596
0.0545659
0.0588204
0.0680756
0.0825823
0.0919064
0.095379
0.0997968
0.104418
0.109674
0.115654
0.122495
0.130303
0.139309
0.149718
0.161835
0.175875
0.19193
0.209495
0.226687
0.0303843
0.0296738
0.0289358
0.0281958
0.0274522
0.0267067
0.0259577
0.025207
0.0244534
0.0236985
0.0229409
0.0221822
0.0214212
0.0206591
0.0198952
0.0191309
0.0183656
0.0176001
0.0168326
0.0160601
0.0152728
0.0144529
0.0135769
0.012632
0.0116263
0.00958192
0.00762617
0.00832897
0.0084061
0.00850966
0.00854331
0.00865132
0.00874487
0.00890224
0.00905448
0.00925751
0.00947078
0.00973649
0.0100211
0.0103625
0.0107359
0.0111705
0.0116728
0.0122732
0.012977
0.0138007
0.014738
0.0157897
0.0169163
0.0180793
0.0192089
0.0202571
0.020602
0.020703
0.0207501
0.0208929
0.0164428
0.0162005
0.0240155
0.032838
0.0351325
0.0391174
0.0397668
0.0416753
0.0426482
0.0422231
0.0442637
0.0415799
0.0406
0.0407116
0.044539
0.0471141
0.0466663
0.0465097
0.0465086
0.0465531
0.0465927
0.0466072
0.0461379
0.0444395
0.0431201
0.0441377
0.0462535
0.0471922
0.0480031
0.0489809
0.0506838
0.0532521
0.055972
0.0591642
0.0628774
0.0672546
0.0723855
0.0786091
0.086254
0.0960039
0.108788
0.126318
0.151393
0.188861
0.0221708
0.0216802
0.021174
0.0206699
0.0201667
0.0196655
0.019165
0.0186663
0.0181679
0.0176713
0.0171746
0.0166791
0.0161827
0.0156865
0.0151889
0.0146917
0.0141941
0.0136985
0.0132043
0.0127132
0.0122224
0.0117284
0.0112073
0.0106164
0.00991138
0.0087223
0.00534287
0.00625005
0.00730642
0.00739836
0.00736098
0.00739662
0.00738505
0.00742463
0.00743502
0.00747824
0.00750647
0.00755892
0.00760176
0.00766591
0.0077318
0.00782004
0.00792092
0.00805663
0.00822363
0.00844051
0.00870693
0.00902683
0.00938989
0.00977547
0.0101522
0.0104844
0.0105454
0.0104711
0.0103014
0.0101339
0.010063
0.0106928
0.0142099
0.0175778
0.0179771
0.0184354
0.0192697
0.0202531
0.0209661
0.0220393
0.0228509
0.0233919
0.0238991
0.0236737
0.0216247
0.0221235
0.0218065
0.0209336
0.0205318
0.0202121
0.0199376
0.0197615
0.0194348
0.0191964
0.0189196
0.0190584
0.0194444
0.0195905
0.0193645
0.0192294
0.0196063
0.0203409
0.0210565
0.0219502
0.0230493
0.0243856
0.0259353
0.0278435
0.0301933
0.0332951
0.0375688
0.0440668
0.0552452
0.0812582
0.0165797
0.0162792
0.0159648
0.015647
0.0153267
0.0150028
0.0146758
0.0143447
0.0140097
0.0136697
0.0133244
0.0129727
0.0126142
0.0122479
0.0118728
0.0114877
0.0110901
0.0106776
0.0102471
0.00979682
0.00932619
0.00883584
0.00832214
0.00777129
0.00715668
0.00644457
0.00564136
0.00136632
0.00133183
0.00134946
0.0013518
0.00136902
0.00138006
0.0013994
0.00141228
0.00142807
0.00143816
0.00144854
0.00145176
0.00145248
0.00144607
0.00143757
0.00142322
0.00140826
0.00139097
0.00137432
0.00135866
0.00134598
0.00133719
0.00133309
0.00133295
0.00132949
0.00131631
0.00129846
0.00128123
0.00126935
0.00124563
0.00117905
0.0011723
0.00121549
0.00125863
0.00130211
0.00133372
0.00136414
0.00138789
0.00141132
0.00142663
0.00145676
0.00148839
0.00154432
0.00161663
0.00166884
0.00171852
0.00175955
0.00178072
0.00178983
0.00178889
0.00177699
0.00175672
0.00173072
0.001703
0.00169628
0.00168842
0.00167366
0.00165308
0.00162448
0.0015892
0.00155716
0.0015287
0.00150332
0.00147919
0.00145638
0.00143178
0.00140412
0.0013715
0.0013324
0.00128522
0.00122861
0.00116124
0.00108165
0.00130254
0.0679658
0.0773994
0.0777068
0.0777171
0.0777157
0.077714
0.0777117
0.0777096
0.0777077
0.0777064
0.0777062
0.0777069
0.0777087
0.0777106
0.0777124
0.0777141
0.0777152
0.0777164
0.0777173
0.00139299
0.0609074
0.0767771
0.0776252
0.0776614
0.0776612
0.0776596
0.0776574
0.0776555
0.0776536
0.077653
0.0776539
0.0776572
0.0776624
0.0776677
0.0776727
0.077677
0.0776802
0.0776831
0.0776849
0.00147881
0.0557099
0.0759945
0.0775245
0.0776061
0.0776086
0.077607
0.0776049
0.0776031
0.0776013
0.0776013
0.0776035
0.0776093
0.0776177
0.0776264
0.0776345
0.0776415
0.0776469
0.0776513
0.0776542
0.0015598
0.0516901
0.075101
0.0774029
0.0775505
0.0775574
0.0775562
0.0775541
0.0775523
0.0775508
0.0775511
0.0775547
0.0775629
0.0775745
0.0775867
0.0775978
0.0776073
0.0776149
0.0776209
0.0776249
0.00163597
0.0484503
0.07413
0.0772589
0.0774934
0.077507
0.0775064
0.0775043
0.0775026
0.0775013
0.077502
0.0775071
0.0775176
0.0775324
0.0775481
0.0775622
0.0775742
0.077584
0.0775913
0.0775965
0.00170761
0.0456488
0.0730926
0.0770915
0.0774341
0.077457
0.0774572
0.0774552
0.0774536
0.0774525
0.0774538
0.0774603
0.0774731
0.077491
0.0775101
0.0775273
0.077542
0.0775537
0.0775626
0.0775687
0.00177473
0.0430439
0.0719862
0.0768999
0.0773719
0.0774074
0.0774085
0.0774067
0.0774053
0.0774046
0.0774064
0.0774142
0.0774294
0.0774504
0.0774727
0.077493
0.0775102
0.0775241
0.0775346
0.0775414
0.0018377
0.04059
0.0708164
0.0766837
0.0773062
0.0773581
0.0773604
0.077359
0.0773577
0.0773573
0.0773597
0.0773687
0.0773864
0.0774105
0.077436
0.0774594
0.0774791
0.0774952
0.0775073
0.0775149
0.00189659
0.0383214
0.0695981
0.0764432
0.0772367
0.0773088
0.0773131
0.077312
0.0773108
0.0773107
0.0773137
0.0773241
0.0773443
0.0773714
0.0774002
0.0774264
0.0774488
0.0774669
0.0774806
0.0774891
0.00195181
0.0362648
0.0683466
0.0761787
0.0771631
0.0772596
0.0772665
0.0772657
0.0772647
0.0772648
0.0772685
0.0772803
0.077303
0.0773331
0.0773651
0.0773943
0.0774193
0.0774395
0.0774546
0.077464
0.00200336
0.034424
0.0670796
0.0758914
0.0770853
0.0772106
0.0772206
0.0772202
0.0772194
0.0772199
0.0772243
0.0772376
0.0772625
0.0772956
0.0773309
0.0773632
0.0773907
0.0774129
0.0774296
0.0774399
0.00205164
0.0327866
0.0658123
0.0755828
0.0770031
0.0771618
0.0771757
0.0771756
0.0771751
0.0771761
0.0771811
0.0771959
0.077223
0.0772591
0.0772976
0.0773329
0.077363
0.0773872
0.0774055
0.0774167
0.00209661
0.0313348
0.0645578
0.0752548
0.0769163
0.0771132
0.0771317
0.0771321
0.0771318
0.0771333
0.0771391
0.0771553
0.0771847
0.0772238
0.0772653
0.0773035
0.0773362
0.0773626
0.0773825
0.0773946
0.00213863
0.0300478
0.0633267
0.0749096
0.0768252
0.0770649
0.0770887
0.0770897
0.0770897
0.0770917
0.0770984
0.0771159
0.0771476
0.0771896
0.0772342
0.0772755
0.0773108
0.0773391
0.0773608
0.0773737
0.00217756
0.0289027
0.0621278
0.07455
0.0767299
0.0770169
0.077047
0.0770488
0.077049
0.0770514
0.0770589
0.077078
0.0771119
0.0771569
0.0772045
0.0772488
0.0772867
0.0773171
0.0773404
0.0773541
0.00221356
0.0278666
0.0609672
0.0741788
0.076631
0.0769696
0.0770069
0.0770094
0.07701
0.0770128
0.0770211
0.0770416
0.0770778
0.0771257
0.0771765
0.0772237
0.0772642
0.0772967
0.0773216
0.0773361
0.00224642
0.0269293
0.0598502
0.0737991
0.0765291
0.0769234
0.0769686
0.0769718
0.076973
0.0769761
0.0769852
0.0770072
0.0770456
0.0770964
0.0771505
0.0772006
0.0772437
0.0772782
0.0773046
0.0773201
0.00227637
0.0260811
0.0587813
0.0734143
0.0764249
0.0768788
0.0769325
0.0769367
0.0769383
0.0769418
0.0769517
0.076975
0.0770158
0.0770695
0.0771267
0.0771797
0.0772254
0.077262
0.0772899
0.0773063
0.00230292
0.0253143
0.057765
0.0730284
0.0763196
0.0768361
0.076899
0.0769044
0.0769063
0.0769104
0.076921
0.0769457
0.0769886
0.0770452
0.0771055
0.0771616
0.0772098
0.0772484
0.0772781
0.0772953
0.00232697
0.0246225
0.0568055
0.0726455
0.0762146
0.0767962
0.0768688
0.0768759
0.0768779
0.0768822
0.0768936
0.0769197
0.0769647
0.0770242
0.0770876
0.0771466
0.0771974
0.0772381
0.0772695
0.0772875
0.00234684
0.0240006
0.0559077
0.0722707
0.0761115
0.07676
0.076843
0.0768519
0.0768538
0.0768582
0.0768702
0.0768975
0.0769448
0.0770069
0.0770734
0.0771355
0.0771888
0.0772316
0.0772648
0.0772836
0.00236413
0.0234451
0.0550771
0.0719097
0.076012
0.076729
0.0768227
0.0768334
0.076835
0.0768393
0.0768516
0.07688
0.0769295
0.0769943
0.0770638
0.0771289
0.0771848
0.0772297
0.0772644
0.0772842
0.00237817
0.0229526
0.0543188
0.0715689
0.0759182
0.0767047
0.0768098
0.0768221
0.0768228
0.0768267
0.076839
0.0768683
0.0769198
0.0769873
0.0770597
0.0771277
0.0771862
0.0772331
0.0772694
0.0772902
0.00238738
0.022498
0.0536124
0.0712479
0.0758309
0.0766894
0.0768065
0.0768196
0.0768187
0.0768217
0.0768335
0.0768634
0.0769166
0.0769867
0.077062
0.0771328
0.077194
0.0772428
0.0772808
0.0773027
0.00240074
0.0220232
0.0528892
0.0709302
0.075749
0.0766859
0.0768154
0.0768282
0.0768247
0.0768258
0.0768366
0.0768667
0.0769211
0.0769936
0.0770718
0.0771454
0.077209
0.0772598
0.0772995
0.0773225
0.00242589
0.0215262
0.0521315
0.0697013
0.0756753
0.0766979
0.0768395
0.0768504
0.0768428
0.0768409
0.0768498
0.0768793
0.0769345
0.0770092
0.0770901
0.0771664
0.0772325
0.0772854
0.0773266
0.0773509
0.00245678
0.0209749
0.0513287
0.0630705
0.0756182
0.0767291
0.0768818
0.0768892
0.0768753
0.0768691
0.0768748
0.0769029
0.0769584
0.0770348
0.0771183
0.0771972
0.0772656
0.0773204
0.0773633
0.0773889
0.00248797
0.0204025
0.0503528
0.0590111
0.0736161
0.0750777
0.0769448
0.0769473
0.0769252
0.0769125
0.0769135
0.0769392
0.0769943
0.077072
0.0771578
0.077239
0.0773097
0.0773662
0.077411