/*--------------------------------*- C++ -*----------------------------------*\
  =========                 |
  \\      /  F ield         | OpenFOAM: The Open Source CFD Toolbox
   \\    /   O peration     | Website:  https://openfoam.org
    \\  /    A nd           | Version:  7
     \\/     M anipulation  |
\*---------------------------------------------------------------------------*/
FoamFile
{
    version     2.0;
    format      ascii;
    class       volVectorField;
    location    "0.1475";
    object      U;
}
// * * * * * * * * * * * * * * * * * * * * * * * * * * * * * * * * * * * * * //

dimensions      [0 1 -1 0 0 0 0];

internalField   nonuniform List<vector> 
48560
(
(221.949 -5.36778 -4.90412e-11)
(221.757 -6.19697 -5.8908e-11)
(221.587 -7.02838 -7.8182e-11)
(221.44 -7.84039 -1.00114e-10)
(221.308 -8.6333 -1.31238e-10)
(221.188 -9.40125 -1.65911e-10)
(221.076 -10.147 -2.09142e-10)
(220.971 -10.8665 -2.55756e-10)
(220.869 -11.5639 -3.09359e-10)
(220.768 -12.2366 -3.65541e-10)
(220.669 -12.8903 -4.26063e-10)
(220.568 -13.5233 -4.873e-10)
(220.465 -14.1408 -5.49551e-10)
(220.358 -14.7412 -6.09862e-10)
(220.246 -15.3284 -6.66284e-10)
(220.126 -15.9006 -7.17065e-10)
(219.998 -16.4603 -7.58915e-10)
(219.859 -17.0061 -7.89879e-10)
(219.706 -17.5399 -8.06825e-10)
(219.537 -18.0609 -8.07818e-10)
(219.349 -18.5706 -7.89956e-10)
(219.136 -19.0684 -7.51131e-10)
(218.897 -19.555 -6.89692e-10)
(218.624 -20.0296 -6.02819e-10)
(218.315 -20.4915 -4.92866e-10)
(217.961 -20.9396 -3.56735e-10)
(217.561 -21.3724 -1.98007e-10)
(217.043 -21.8648 1.70402e-11)
(216.289 -22.4138 3.11565e-10)
(215.396 -22.9119 5.96101e-10)
(214.309 -23.3846 8.82281e-10)
(212.966 -23.8067 1.16003e-09)
(211.284 -24.1916 1.37834e-09)
(209.083 -24.5151 1.53884e-09)
(206.06 -24.7615 1.44294e-09)
(202.494 -24.8963 1.19457e-09)
(198.255 -24.8756 5.65312e-10)
(193.605 -24.7459 -1.40171e-10)
(188.791 -24.4531 -1.37806e-09)
(184.857 -24.0504 -2.54085e-09)
(180.814 -23.2554 -4.16587e-09)
(176.737 -22.6197 -4.55078e-09)
(172.88 -21.453 -5.914e-09)
(169.151 -20.0218 -6.40547e-09)
(165.807 -18.7129 -7.02801e-09)
(165.085 -16.0969 -9.50572e-09)
(171.773 -12.2475 -1.25241e-08)
(191.391 -6.88449 -1.71193e-08)
(221.311 -4.08031 -2.21836e-08)
(250.056 -7.78867 -2.61627e-08)
(271.686 -31.4682 -2.92625e-08)
(263.864 -74.157 -3.08644e-08)
(229.269 -57.6507 -2.97288e-08)
(214.681 -60.785 -2.9815e-08)
(195.662 -51.6236 -2.92094e-08)
(183.878 -51.0943 -2.92488e-08)
(165.481 -43.5363 -2.86461e-08)
(153.75 -41.3576 -2.86606e-08)
(133.696 -34.3428 -2.80031e-08)
(121.444 -31.2416 -2.80412e-08)
(99.3226 -24.1236 -2.73122e-08)
(85.6832 -20.417 -2.73079e-08)
(66.0752 -11.0081 -2.64252e-08)
(66.3464 -8.54313 -2.67595e-08)
(55.7813 -5.57965 -2.62878e-08)
(52.6452 1.12768 -2.60739e-08)
(56.5746 2.22469 -2.6318e-08)
(58.8228 4.44236 -2.65357e-08)
(60.5567 6.50868 -2.67413e-08)
(63.5756 8.64361 -2.70255e-08)
(67.9237 11.4707 -2.74352e-08)
(73.4448 14.9745 -2.7884e-08)
(80.3088 19.2409 -2.83875e-08)
(88.73 24.4694 -2.89283e-08)
(98.9292 30.8338 -2.95113e-08)
(111.36 38.4929 -3.01214e-08)
(127.427 48.2366 -3.07972e-08)
(149.439 61.6849 -3.15086e-08)
(182.285 78.9865 -3.22219e-08)
(220.441 84.7198 -3.28705e-08)
(259.689 66.492 -3.37743e-08)
(254.786 60.4473 -3.40219e-08)
(246.368 53.3836 -3.43875e-08)
(251.804 56.0634 -3.43966e-08)
(256.212 56.6906 -3.46411e-08)
(267.566 53.7093 -3.53869e-08)
(271.759 43.0845 -3.55568e-08)
(275.783 36.6797 -3.59249e-08)
(275.79 26.9355 -3.60926e-08)
(275.43 19.8337 -3.63777e-08)
(273.263 14.3847 -3.64783e-08)
(270.017 8.44321 -3.66557e-08)
(266.521 3.74695 -3.68047e-08)
(263.136 -0.00116681 -3.69449e-08)
(260.008 -3.04811 -3.70515e-08)
(257.305 -5.51271 -3.71567e-08)
(255.075 -7.47895 -3.72367e-08)
(253.411 -8.90356 -3.73001e-08)
(252.353 -9.71777 -3.73459e-08)
(252.112 -9.95824 -3.73696e-08)
(221.194 -5.08795 -5.89764e-10)
(221.011 -5.94578 -6.17999e-10)
(220.843 -6.80034 -6.46908e-10)
(220.708 -7.64515 -6.73462e-10)
(220.58 -8.46263 -6.99094e-10)
(220.469 -9.26025 -7.18656e-10)
(220.358 -10.0284 -7.35823e-10)
(220.253 -10.7749 -7.43132e-10)
(220.143 -11.4973 -7.45689e-10)
(220.029 -12.2044 -7.34565e-10)
(219.91 -12.8958 -7.18502e-10)
(219.785 -13.5731 -6.87794e-10)
(219.648 -14.235 -6.47569e-10)
(219.501 -14.8798 -5.90199e-10)
(219.337 -15.507 -5.19779e-10)
(219.156 -16.1141 -4.31263e-10)
(218.955 -16.7021 -3.28182e-10)
(218.73 -17.2693 -2.08702e-10)
(218.479 -17.8192 -7.67951e-11)
(218.2 -18.3516 6.61488e-11)
(217.885 -18.8698 2.22319e-10)
(217.531 -19.3712 3.86023e-10)
(217.129 -19.8553 5.60026e-10)
(216.673 -20.3193 7.35547e-10)
(216.149 -20.7628 9.17546e-10)
(215.54 -21.1841 1.09069e-09)
(214.828 -21.5814 1.25761e-09)
(213.85 -22.0214 1.41493e-09)
(212.236 -22.4905 1.51304e-09)
(210.281 -22.9014 1.40492e-09)
(208.021 -23.2593 1.20329e-09)
(205.37 -23.5389 6.85018e-10)
(202.473 -23.7666 1.1144e-10)
(199.348 -23.9086 -9.01473e-10)
(196.474 -23.9688 -1.93653e-09)
(193.658 -23.8484 -3.34183e-09)
(191.148 -23.7678 -3.79562e-09)
(188.659 -23.5226 -5.07399e-09)
(186.655 -23.2635 -5.89865e-09)
(184.848 -22.7267 -6.77076e-09)
(183.409 -22.2536 -7.20748e-09)
(183.044 -21.7385 -8.15542e-09)
(184.92 -20.8172 -1.0942e-08)
(190.63 -20.8876 -1.25652e-08)
(204.551 -21.4822 -1.69178e-08)
(229.838 -22.8102 -2.20619e-08)
(255.639 -23.8667 -2.63495e-08)
(277.808 -24.7592 -2.96261e-08)
(288.945 -26.5141 -3.10005e-08)
(295.841 -34.6625 -3.23932e-08)
(287.45 -53.5423 -3.27543e-08)
(275.131 -72.0741 -3.32458e-08)
(246.997 -67.1274 -3.26847e-08)
(235.294 -67.3323 -3.26014e-08)
(216.33 -61.472 -3.22362e-08)
(206.916 -58.394 -3.20995e-08)
(189.502 -52.649 -3.17875e-08)
(179.974 -48.589 -3.15824e-08)
(162.665 -42.4782 -3.12968e-08)
(152.775 -37.7518 -3.10362e-08)
(136.166 -31.2762 -3.07785e-08)
(125.728 -26.056 -3.03938e-08)
(113.384 -16.8047 -3.00706e-08)
(111.847 -12.2644 -2.98509e-08)
(107.958 -6.68251 -2.9856e-08)
(105.468 1.30448 -2.93718e-08)
(111.121 3.49158 -2.98207e-08)
(113.938 8.65579 -2.99017e-08)
(116.835 11.7532 -3.01493e-08)
(121.023 15.5199 -3.03247e-08)
(124.798 18.9556 -3.06286e-08)
(130.436 23.1842 -3.08754e-08)
(135.909 27.5026 -3.12293e-08)
(143.594 32.9526 -3.15409e-08)
(151.846 39.1091 -3.19469e-08)
(163.024 46.9511 -3.23269e-08)
(176.868 56.9038 -3.28061e-08)
(197.31 71.479 -3.32764e-08)
(221.301 90.2734 -3.38533e-08)
(241.908 94.6582 -3.44579e-08)
(258.388 73.9818 -3.50289e-08)
(263.721 63.9367 -3.55065e-08)
(266.057 61.5187 -3.5705e-08)
(270.263 62.6657 -3.61611e-08)
(272.857 63.4661 -3.59429e-08)
(275.839 59.6065 -3.69407e-08)
(277.533 51.0351 -3.65127e-08)
(279.534 43.4012 -3.72389e-08)
(278.851 33.3397 -3.68528e-08)
(278.005 24.7954 -3.75721e-08)
(274.971 16.7012 -3.71522e-08)
(272.279 10.845 -3.76953e-08)
(268.296 5.71674 -3.73671e-08)
(265.215 1.9854 -3.77602e-08)
(261.552 -1.19583 -3.74904e-08)
(258.961 -3.59794 -3.77636e-08)
(256.277 -5.6709 -3.75499e-08)
(254.712 -7.14225 -3.771e-08)
(253.724 -7.74749 -3.76012e-08)
(253.359 -7.93817 -3.76235e-08)
(219.99 -4.7996 -1.82237e-10)
(219.795 -5.71131 -1.57162e-10)
(219.579 -6.62106 -1.03996e-10)
(219.427 -7.52541 -6.27956e-11)
(219.249 -8.39307 3.85579e-12)
(219.11 -9.24218 6.17369e-11)
(218.941 -10.0545 1.41791e-10)
(218.791 -10.8542 2.16524e-10)
(218.607 -11.6305 3.09353e-10)
(218.426 -12.3961 3.99028e-10)
(218.21 -13.1356 5.04707e-10)
(217.984 -13.8555 6.10667e-10)
(217.72 -14.5414 7.26626e-10)
(217.432 -15.199 8.41188e-10)
(217.096 -15.8191 9.56884e-10)
(216.716 -16.4094 1.06487e-09)
(216.265 -16.9672 1.16019e-09)
(215.735 -17.502 1.23308e-09)
(215.089 -18.0149 1.26623e-09)
(214.399 -18.5117 1.28296e-09)
(213.613 -18.9919 1.25254e-09)
(212.772 -19.4574 1.18924e-09)
(211.836 -19.9046 1.06282e-09)
(210.831 -20.3305 9.20489e-10)
(209.732 -20.7366 6.76596e-10)
(208.562 -21.1166 4.14097e-10)
(207.319 -21.4732 2.75161e-11)
(205.835 -21.8559 -4.55007e-10)
(203.896 -22.2597 -1.32138e-09)
(202.311 -22.6013 -2.15659e-09)
(200.523 -22.8638 -3.27243e-09)
(199.027 -23.0901 -3.59868e-09)
(197.417 -23.2614 -4.6239e-09)
(196.14 -23.3987 -5.19833e-09)
(194.948 -23.4173 -5.95213e-09)
(193.891 -23.3377 -6.42757e-09)
(193.276 -23.1708 -7.12898e-09)
(193.119 -22.9855 -8.07678e-09)
(194.534 -22.8286 -1.00622e-08)
(197.557 -23.0408 -1.12231e-08)
(204.159 -23.6031 -1.37619e-08)
(215.888 -24.7031 -1.69601e-08)
(233.749 -26.1254 -2.12588e-08)
(253.36 -27.6655 -2.46795e-08)
(273.414 -28.0492 -2.86309e-08)
(287.788 -27.1178 -3.03371e-08)
(299.474 -26.4187 -3.21809e-08)
(305.309 -27.0855 -3.26759e-08)
(307.594 -31.1716 -3.32164e-08)
(303.599 -41.4126 -3.32822e-08)
(292.419 -57.7442 -3.32466e-08)
(276.518 -68.0654 -3.30858e-08)
(256.592 -61.96 -3.29087e-08)
(244.507 -65.3499 -3.26545e-08)
(227.863 -57.5583 -3.24964e-08)
(217.675 -57.0995 -3.2208e-08)
(202.677 -49.8137 -3.20871e-08)
(192.626 -47.5255 -3.17757e-08)
(178.162 -40.712 -3.16928e-08)
(168.183 -37.2399 -3.13599e-08)
(155.111 -30.7833 -3.13105e-08)
(145.973 -26.3742 -3.09588e-08)
(137.71 -18.2056 -3.09182e-08)
(136.059 -13.8375 -3.06469e-08)
(135.387 -5.90468 -3.07413e-08)
(132.909 0.995014 -3.04463e-08)
(138.64 4.57927 -3.07972e-08)
(139.529 10.9696 -3.07391e-08)
(143.233 14.6249 -3.10263e-08)
(145.455 19.6312 -3.10699e-08)
(149.132 23.9291 -3.13808e-08)
(152.45 28.994 -3.15092e-08)
(156.904 34.1491 -3.18517e-08)
(162.029 40.1001 -3.20636e-08)
(168.646 46.709 -3.24544e-08)
(177.393 54.5429 -3.27606e-08)
(189.893 64.2627 -3.32308e-08)
(208.61 76.2673 -3.36612e-08)
(232.075 84.8544 -3.42153e-08)
(250.996 79.6591 -3.46686e-08)
(260.317 67.7104 -3.50187e-08)
(265.186 63.5586 -3.52876e-08)
(267.593 61.0896 -3.5584e-08)
(272.031 59.634 -3.6104e-08)
(274.946 55.1727 -3.59273e-08)
(277.793 48.568 -3.67525e-08)
(278.733 41.1951 -3.62567e-08)
(280.056 33.9935 -3.69677e-08)
(278.899 26.4906 -3.65776e-08)
(277.593 20.1403 -3.71011e-08)
(274.456 14.266 -3.68308e-08)
(271.704 9.30767 -3.71961e-08)
(267.975 5.10045 -3.69813e-08)
(264.962 1.73823 -3.72382e-08)
(261.557 -1.00204 -3.7059e-08)
(258.988 -3.0732 -3.72326e-08)
(256.461 -4.57348 -3.70829e-08)
(254.881 -5.47513 -3.71859e-08)
(253.926 -5.77582 -3.71109e-08)
(253.57 -5.88516 -3.71231e-08)
(216.945 -4.51611 6.05834e-10)
(216.67 -5.45262 6.62458e-10)
(216.273 -6.37383 6.72655e-10)
(216.014 -7.29304 7.05791e-10)
(215.634 -8.16746 7.03861e-10)
(215.345 -9.02766 7.07508e-10)
(214.931 -9.84968 6.85302e-10)
(214.571 -10.6653 6.52585e-10)
(214.095 -11.4558 5.99613e-10)
(213.66 -12.2358 5.21323e-10)
(213.126 -12.9854 4.23723e-10)
(212.62 -13.7173 2.87792e-10)
(212.03 -14.4179 1.30063e-10)
(211.456 -15.0985 -7.60345e-11)
(210.813 -15.75 -3.07854e-10)
(210.182 -16.3815 -5.93654e-10)
(209.507 -16.9859 -9.05493e-10)
(208.861 -17.5686 -1.26666e-09)
(208.225 -18.1218 -1.64002e-09)
(207.586 -18.6475 -2.07187e-09)
(206.954 -19.1413 -2.52614e-09)
(206.341 -19.6068 -3.03176e-09)
(205.715 -20.0195 -3.16408e-09)
(205.106 -20.4334 -3.64161e-09)
(204.495 -20.8072 -3.87711e-09)
(203.912 -21.1732 -4.33795e-09)
(203.345 -21.5008 -4.63944e-09)
(202.74 -21.8598 -5.14692e-09)
(202.046 -22.2178 -5.65412e-09)
(201.516 -22.5038 -6.11807e-09)
(200.995 -22.6711 -6.4032e-09)
(200.721 -22.7675 -6.94307e-09)
(200.623 -22.8607 -7.70091e-09)
(201.338 -23.065 -9.16585e-09)
(202.721 -23.2559 -9.89159e-09)
(205.364 -23.7415 -1.14596e-08)
(209.96 -24.5071 -1.31919e-08)
(217.065 -25.7167 -1.5585e-08)
(229.134 -27.4876 -1.87425e-08)
(242.039 -29.3752 -2.15394e-08)
(258.05 -31.3144 -2.50949e-08)
(272.304 -32.602 -2.75567e-08)
(285.723 -33.2319 -2.99963e-08)
(296.954 -33.4716 -3.14381e-08)
(305.757 -33.1008 -3.28288e-08)
(311.082 -32.9127 -3.3033e-08)
(314.261 -33.522 -3.36209e-08)
(315.31 -35.9809 -3.34181e-08)
(312.89 -41.2704 -3.35978e-08)
(306.177 -50.7481 -3.32319e-08)
(294.206 -61.8916 -3.31143e-08)
(279.336 -67.2207 -3.25975e-08)
(262.275 -65.1723 -3.28108e-08)
(249.867 -65.1665 -3.22639e-08)
(235.469 -59.8278 -3.241e-08)
(224.749 -57.4534 -3.1913e-08)
(211.732 -51.4211 -3.20323e-08)
(201.411 -47.8927 -3.15929e-08)
(189.023 -41.7755 -3.17075e-08)
(179.179 -37.4837 -3.12992e-08)
(168.46 -31.2252 -3.14029e-08)
(160.276 -25.9414 -3.10503e-08)
(154.009 -18.3002 -3.11598e-08)
(152.301 -12.9599 -3.08691e-08)
(152.213 -5.03759 -3.10204e-08)
(150.306 0.59622 -3.08248e-08)
(154.922 5.91014 -3.10609e-08)
(154.343 11.8018 -3.09808e-08)
(158.262 16.0943 -3.12381e-08)
(158.94 21.0267 -3.12466e-08)
(162.825 25.4656 -3.15296e-08)
(164.794 30.3338 -3.16219e-08)
(169.395 35.4427 -3.19369e-08)
(173.531 41.0823 -3.21163e-08)
(180.515 47.6158 -3.24799e-08)
(189.03 55.3924 -3.2758e-08)
(202.267 65.3124 -3.31944e-08)
(219.26 76.2534 -3.35783e-08)
(237.755 81.7576 -3.40777e-08)
(252.199 74.5075 -3.44198e-08)
(260.429 66.6997 -3.4622e-08)
(265.766 64.3273 -3.4823e-08)
(269.16 61.9006 -3.53333e-08)
(272.983 59.8103 -3.54109e-08)
(274.784 54.6562 -3.56422e-08)
(276.836 47.8173 -3.59802e-08)
(277.628 41.2826 -3.58969e-08)
(278.355 34.4167 -3.6212e-08)
(277.297 27.511 -3.61265e-08)
(275.953 21.1935 -3.63756e-08)
(273.187 15.3353 -3.62467e-08)
(270.512 10.5055 -3.64987e-08)
(267.077 6.3556 -3.63581e-08)
(264.134 3.06835 -3.65324e-08)
(260.949 0.37696 -3.64074e-08)
(258.489 -1.65744 -3.65252e-08)
(256.193 -3.03843 -3.64162e-08)
(254.762 -3.74221 -3.64814e-08)
(253.939 -3.9057 -3.64216e-08)
(253.624 -3.94779 -3.64364e-08)
(212.161 -3.91966 -2.46632e-09)
(211.789 -4.85689 -2.47465e-09)
(211.387 -5.7619 -2.76184e-09)
(211.095 -6.73366 -2.6856e-09)
(210.754 -7.63237 -2.94951e-09)
(210.49 -8.56938 -2.94935e-09)
(210.161 -9.44523 -3.20421e-09)
(209.89 -10.3468 -3.2689e-09)
(209.562 -11.1987 -3.5243e-09)
(209.295 -12.0655 -3.64421e-09)
(208.986 -12.8887 -3.90605e-09)
(208.735 -13.7159 -4.07162e-09)
(208.452 -14.501 -4.34038e-09)
(208.223 -15.2778 -4.54003e-09)
(207.97 -16.0086 -4.81092e-09)
(207.768 -16.7155 -5.02924e-09)
(207.548 -17.3661 -5.29088e-09)
(207.372 -17.9735 -5.50775e-09)
(207.179 -18.5128 -5.74332e-09)
(207.011 -18.9999 -5.93542e-09)
(206.824 -19.423 -6.11911e-09)
(206.642 -19.8027 -6.24973e-09)
(206.517 -20.1634 -6.73723e-09)
(206.489 -20.488 -7.048e-09)
(206.555 -20.7975 -7.51295e-09)
(206.758 -21.0909 -7.94429e-09)
(207.103 -21.3865 -8.43518e-09)
(207.719 -21.7475 -9.04609e-09)
(208.717 -22.1503 -9.81263e-09)
(210.386 -22.6404 -1.07324e-08)
(212.695 -23.2256 -1.18387e-08)
(216.167 -24.0196 -1.32869e-08)
(220.89 -25.0414 -1.4955e-08)
(227.919 -26.4078 -1.70906e-08)
(236.385 -28.0221 -1.92061e-08)
(246.405 -29.9173 -2.18135e-08)
(257.474 -31.8513 -2.4158e-08)
(268.784 -33.6124 -2.66043e-08)
(278.807 -34.7607 -2.83548e-08)
(289.199 -35.8188 -3.02322e-08)
(298.058 -36.4025 -3.15787e-08)
(305.614 -36.7805 -3.25836e-08)
(311.617 -36.7855 -3.33145e-08)
(315.959 -36.6576 -3.36002e-08)
(318.8 -36.5513 -3.38536e-08)
(320.299 -37.0857 -3.36891e-08)
(320.672 -38.5032 -3.37722e-08)
(319.102 -41.5322 -3.33975e-08)
(314.9 -47.394 -3.33899e-08)
(307.007 -55.6093 -3.28817e-08)
(295.353 -63.4395 -3.26923e-08)
(281.702 -66.2217 -3.20216e-08)
(266.447 -64.8274 -3.23874e-08)
(254.173 -64.14 -3.17455e-08)
(241.133 -59.1637 -3.20113e-08)
(230.155 -56.7096 -3.14597e-08)
(218.416 -50.6664 -3.16697e-08)
(207.931 -47.1978 -3.12205e-08)
(196.804 -40.9443 -3.14066e-08)
(187.069 -36.6866 -3.10103e-08)
(177.686 -30.2192 -3.11582e-08)
(170.218 -24.9366 -3.08592e-08)
(165.122 -17.4567 -3.10179e-08)
(163.387 -11.6318 -3.07601e-08)
(163.211 -4.12556 -3.09125e-08)
(162.016 1.01011 -3.07995e-08)
(165.117 7.60495 -3.09067e-08)
(164.316 12.9174 -3.08754e-08)
(167.501 18.063 -3.10383e-08)
(167.696 23.0784 -3.10693e-08)
(171.112 27.9678 -3.12787e-08)
(172.539 33.0226 -3.13834e-08)
(176.9 38.3655 -3.1649e-08)
(180.617 44.1488 -3.18376e-08)
(187.63 50.8065 -3.2167e-08)
(196.042 58.4528 -3.24488e-08)
(209.381 67.3726 -3.28589e-08)
(225.223 75.0112 -3.32333e-08)
(241.657 76.2751 -3.36493e-08)
(252.951 70.3997 -3.38963e-08)
(260.631 65.5231 -3.40175e-08)
(266.074 62.6769 -3.40905e-08)
(269.843 59.9258 -3.49634e-08)
(273.195 55.7459 -3.4733e-08)
(274.783 49.9371 -3.51966e-08)
(276.234 43.6948 -3.53662e-08)
(276.77 37.6642 -3.53609e-08)
(276.97 31.1405 -3.54359e-08)
(275.795 25.2207 -3.54837e-08)
(274.215 19.5076 -3.55989e-08)
(271.656 14.5163 -3.55215e-08)
(269.066 10.0867 -3.56992e-08)
(265.979 6.44387 -3.56151e-08)
(263.178 3.43752 -3.57345e-08)
(260.286 1.14874 -3.56459e-08)
(257.948 -0.526157 -3.57156e-08)
(255.909 -1.57928 -3.5636e-08)
(254.634 -2.1105 -3.5676e-08)
(253.925 -2.22352 -3.56323e-08)
(253.652 -2.25173 -3.56487e-08)
(212.225 -3.32323 -5.77467e-09)
(211.797 -4.30994 -5.81036e-09)
(211.476 -5.33816 -5.80052e-09)
(211.199 -6.35661 -5.97113e-09)
(210.988 -7.37033 -6.05319e-09)
(210.805 -8.36679 -6.21382e-09)
(210.65 -9.33757 -6.36335e-09)
(210.522 -10.2987 -6.5346e-09)
(210.416 -11.2227 -6.73738e-09)
(210.363 -12.1292 -6.93269e-09)
(210.342 -12.986 -7.18066e-09)
(210.397 -13.8156 -7.40959e-09)
(210.496 -14.5885 -7.69979e-09)
(210.69 -15.3298 -7.9707e-09)
(210.945 -16.0178 -8.30516e-09)
(211.314 -16.6799 -8.6272e-09)
(211.767 -17.3019 -9.01376e-09)
(212.353 -17.9085 -9.40059e-09)
(213.049 -18.4856 -9.85702e-09)
(213.924 -19.0597 -1.0341e-08)
(214.973 -19.6272 -1.09154e-08)
(216.296 -20.2149 -1.15627e-08)
(217.898 -20.8259 -1.23189e-08)
(219.862 -21.4757 -1.30827e-08)
(222.274 -22.1799 -1.40097e-08)
(225.259 -22.9603 -1.49918e-08)
(228.962 -23.8496 -1.61793e-08)
(234.333 -25.0551 -1.77133e-08)
(239.481 -26.2805 -1.91892e-08)
(246.611 -27.8684 -2.10452e-08)
(253.446 -29.414 -2.27554e-08)
(261.429 -31.1296 -2.46192e-08)
(269.01 -32.7209 -2.62623e-08)
(276.485 -34.1689 -2.77827e-08)
(283.817 -35.4976 -2.91626e-08)
(291.075 -36.6868 -3.04864e-08)
(297.84 -37.6765 -3.15355e-08)
(303.982 -38.4624 -3.24859e-08)
(309.355 -39.0636 -3.31027e-08)
(314.009 -39.4956 -3.36876e-08)
(317.655 -39.7202 -3.39053e-08)
(320.572 -39.7982 -3.41165e-08)
(322.605 -39.8203 -3.40671e-08)
(323.961 -39.9837 -3.40107e-08)
(324.647 -40.455 -3.38418e-08)
(324.614 -41.5091 -3.36322e-08)
(323.565 -43.4853 -3.3442e-08)
(320.76 -47.1876 -3.31123e-08)
(315.553 -52.7772 -3.29009e-08)
(307.172 -59.4736 -3.24089e-08)
(296.055 -64.9363 -3.21017e-08)
(283.197 -66.6853 -3.14158e-08)
(269.206 -65.33 -3.17991e-08)
(257.357 -63.9534 -3.11687e-08)
(245.121 -59.4789 -3.14471e-08)
(234.335 -56.3247 -3.09205e-08)
(223.218 -50.629 -3.11435e-08)
(212.948 -46.5936 -3.074e-08)
(202.441 -40.4926 -3.09381e-08)
(193.063 -35.7298 -3.05817e-08)
(184.39 -29.138 -3.07318e-08)
(177.555 -23.4467 -3.049e-08)
(173.002 -16.144 -3.06643e-08)
(171.225 -10.0297 -3.0449e-08)
(170.781 -3.05354 -3.05929e-08)
(170.086 1.94695 -3.05338e-08)
(171.929 8.8614 -3.05508e-08)
(171.411 13.8274 -3.05692e-08)
(173.663 19.3879 -3.06484e-08)
(174.019 24.2364 -3.07127e-08)
(176.894 29.286 -3.08559e-08)
(178.494 34.2404 -3.09879e-08)
(182.68 39.573 -3.12083e-08)
(186.689 45.2741 -3.14149e-08)
(193.906 51.8487 -3.1712e-08)
(202.677 59.2861 -3.20046e-08)
(215.656 67.3322 -3.23796e-08)
(229.617 72.925 -3.27399e-08)
(243.463 72.4298 -3.30956e-08)
(253.076 67.8685 -3.32904e-08)
(260.51 64.4322 -3.33835e-08)
(265.842 61.2144 -3.33799e-08)
(269.457 58.3608 -3.41506e-08)
(271.89 53.3212 -3.41745e-08)
(273.243 47.8195 -3.4407e-08)
(274.317 41.8416 -3.46556e-08)
(274.811 36.1822 -3.44972e-08)
(274.786 30.12 -3.46354e-08)
(273.788 24.6458 -3.46582e-08)
(272.263 19.2628 -3.47756e-08)
(270.006 14.7102 -3.47311e-08)
(267.549 10.5605 -3.48402e-08)
(264.764 7.1985 -3.48004e-08)
(262.126 4.35519 -3.48766e-08)
(259.549 2.23241 -3.48172e-08)
(257.42 0.699562 -3.4855e-08)
(255.657 -0.170962 -3.47975e-08)
(254.53 -0.600825 -3.48194e-08)
(253.913 -0.688089 -3.47891e-08)
(253.673 -0.711098 -3.47967e-08)
(218.384 -2.39077 -1.01372e-08)
(217.833 -3.40169 -1.01189e-08)
(217.748 -4.42401 -1.03064e-08)
(217.567 -5.50726 -1.04038e-08)
(217.731 -6.56658 -1.06326e-08)
(217.843 -7.64784 -1.08252e-08)
(218.203 -8.69275 -1.1111e-08)
(218.566 -9.73727 -1.13874e-08)
(219.155 -10.7428 -1.17407e-08)
(219.828 -11.7529 -1.2101e-08)
(220.734 -12.7418 -1.25364e-08)
(221.796 -13.7446 -1.29939e-08)
(223.122 -14.7414 -1.35347e-08)
(224.69 -15.7627 -1.41174e-08)
(226.591 -16.7943 -1.48009e-08)
(228.861 -17.8659 -1.55558e-08)
(231.607 -18.9736 -1.64416e-08)
(234.848 -20.1434 -1.74203e-08)
(238.341 -21.3347 -1.84559e-08)
(242.286 -22.5861 -1.95645e-08)
(246.506 -23.8598 -2.07242e-08)
(251.111 -25.1718 -2.1927e-08)
(255.933 -26.4835 -2.315e-08)
(261.022 -27.8 -2.43757e-08)
(266.207 -29.0907 -2.55937e-08)
(271.441 -30.3497 -2.67541e-08)
(276.506 -31.5363 -2.78489e-08)
(281.882 -32.7977 -2.89314e-08)
(286.008 -33.8532 -2.97348e-08)
(291.791 -35.1754 -3.08074e-08)
(295.882 -36.1751 -3.1491e-08)
(301.109 -37.3516 -3.23523e-08)
(304.799 -38.2308 -3.28528e-08)
(309.214 -39.2077 -3.34679e-08)
(312.472 -39.9355 -3.38048e-08)
(316.091 -40.6615 -3.41962e-08)
(318.652 -41.1458 -3.43367e-08)
(321.349 -41.6142 -3.45151e-08)
(323.158 -41.9225 -3.44789e-08)
(324.99 -42.2212 -3.44896e-08)
(326.063 -42.3774 -3.43081e-08)
(327.09 -42.5989 -3.42097e-08)
(327.599 -42.8707 -3.39357e-08)
(327.887 -43.3556 -3.37703e-08)
(327.666 -44.1654 -3.3464e-08)
(326.855 -45.5833 -3.32446e-08)
(324.908 -48.0601 -3.29255e-08)
(321.357 -51.8977 -3.26269e-08)
(315.525 -56.9774 -3.22755e-08)
(307.163 -62.2505 -3.18348e-08)
(296.622 -66.1267 -3.14064e-08)
(284.467 -67.1612 -3.0781e-08)
(271.436 -65.6541 -3.11099e-08)
(260.081 -63.7118 -3.05438e-08)
(248.427 -59.3753 -3.07839e-08)
(237.904 -55.8015 -3.03195e-08)
(227.22 -50.1569 -3.05198e-08)
(217.162 -45.7939 -3.018e-08)
(207.084 -39.6351 -3.03704e-08)
(197.995 -34.5528 -3.00611e-08)
(189.82 -27.767 -3.01997e-08)
(183.4 -21.8492 -3.001e-08)
(179.157 -14.5954 -3.01842e-08)
(177.254 -8.41463 -3.00095e-08)
(176.595 -1.71459 -3.01403e-08)
(176.131 3.37493 -3.0116e-08)
(177.208 10.2514 -3.0079e-08)
(176.89 15.167 -3.01232e-08)
(178.458 20.9976 -3.01465e-08)
(179.008 25.8186 -3.02271e-08)
(181.385 31.0637 -3.03208e-08)
(183.2 36.0229 -3.04689e-08)
(187.105 41.4281 -3.06526e-08)
(191.374 47.1253 -3.08732e-08)
(198.513 53.5574 -3.11432e-08)
(207.438 60.44 -3.14462e-08)
(219.773 66.9488 -3.17918e-08)
(232.43 70.3371 -3.21318e-08)
(244.364 69.0951 -3.24182e-08)
(252.935 65.7135 -3.25713e-08)
(260.127 62.62 -3.2634e-08)
(265.226 58.8999 -3.27847e-08)
(268.567 55.6924 -3.32995e-08)
(270.584 50.1871 -3.3557e-08)
(271.736 45.2235 -3.36128e-08)
(272.611 39.4472 -3.38295e-08)
(273.041 34.2721 -3.36934e-08)
(272.883 28.5952 -3.38545e-08)
(271.97 23.6549 -3.3795e-08)
(270.491 18.6672 -3.39442e-08)
(268.447 14.5368 -3.3883e-08)
(266.144 10.6729 -3.39819e-08)
(263.632 7.64464 -3.39519e-08)
(261.204 5.06234 -3.40072e-08)
(258.896 3.23521 -3.39633e-08)
(256.976 1.895 -3.39838e-08)
(255.442 1.17731 -3.39421e-08)
(254.444 0.809585 -3.39493e-08)
(253.901 0.740262 -3.39293e-08)
(253.686 0.720359 -3.39316e-08)
(237.356 -1.01994 -1.7351e-08)
(237.228 -2.14022 -1.74727e-08)
(237.801 -3.32678 -1.77988e-08)
(238.325 -4.63369 -1.80598e-08)
(239.461 -5.97167 -1.85005e-08)
(240.626 -7.38498 -1.89079e-08)
(242.324 -8.80186 -1.94712e-08)
(244.108 -10.2529 -2.0025e-08)
(246.358 -11.7014 -2.07102e-08)
(248.738 -13.1881 -2.13979e-08)
(251.538 -14.6964 -2.21917e-08)
(254.498 -16.2537 -2.29902e-08)
(257.817 -17.8375 -2.38678e-08)
(261.282 -19.4568 -2.47409e-08)
(265.006 -21.0816 -2.56583e-08)
(268.79 -22.7062 -2.6546e-08)
(272.657 -24.2952 -2.74297e-08)
(276.456 -25.8441 -2.82546e-08)
(280.443 -27.3633 -2.91078e-08)
(284.351 -28.8288 -2.98996e-08)
(288.325 -30.2408 -3.06875e-08)
(292.183 -31.5866 -3.14071e-08)
(296.002 -32.8642 -3.20979e-08)
(299.661 -34.0702 -3.27145e-08)
(303.198 -35.2032 -3.32861e-08)
(306.536 -36.2653 -3.37794e-08)
(309.696 -37.2548 -3.42213e-08)
(313.017 -38.3084 -3.46345e-08)
(314.436 -38.9681 -3.47143e-08)
(317.507 -39.9326 -3.50409e-08)
(319.004 -40.6041 -3.50534e-08)
(321.4 -41.3656 -3.52388e-08)
(322.621 -41.9436 -3.51536e-08)
(324.495 -42.5523 -3.52275e-08)
(325.487 -43.0417 -3.50654e-08)
(326.909 -43.5117 -3.50484e-08)
(327.646 -43.8997 -3.48176e-08)
(328.645 -44.2411 -3.47289e-08)
(329.142 -44.5504 -3.44426e-08)
(329.779 -44.8101 -3.43057e-08)
(330.045 -45.1151 -3.39756e-08)
(330.357 -45.4441 -3.38046e-08)
(330.28 -45.9158 -3.3459e-08)
(330.103 -46.5999 -3.32595e-08)
(329.318 -47.7129 -3.29049e-08)
(327.965 -49.5085 -3.26728e-08)
(325.396 -52.242 -3.22979e-08)
(321.346 -56.0126 -3.20018e-08)
(315.233 -60.4103 -3.15776e-08)
(307.109 -64.5992 -3.11678e-08)
(297.09 -67.4306 -3.06649e-08)
(285.515 -68.0528 -3.01135e-08)
(273.314 -66.1856 -3.03695e-08)
(262.447 -63.8998 -2.98755e-08)
(251.304 -59.4769 -3.0064e-08)
(241.082 -55.5223 -2.96678e-08)
(230.745 -49.8383 -2.98365e-08)
(220.924 -45.0869 -2.95625e-08)
(211.178 -38.8391 -2.97401e-08)
(202.373 -33.3331 -2.94744e-08)
(194.561 -26.36 -2.95991e-08)
(188.422 -20.1497 -2.94524e-08)
(184.309 -12.9555 -2.96247e-08)
(182.246 -6.74023 -2.94812e-08)
(181.403 -0.235387 -2.96017e-08)
(181.003 4.92907 -2.96003e-08)
(181.62 11.6002 -2.95325e-08)
(181.381 16.5628 -2.95872e-08)
(182.5 22.4552 -2.95764e-08)
(183.138 27.2373 -2.966e-08)
(185.175 32.548 -2.9721e-08)
(187.155 37.4159 -2.98761e-08)
(190.904 42.7938 -3.00358e-08)
(195.461 48.3363 -3.02663e-08)
(202.598 54.5005 -3.05181e-08)
(211.554 60.7103 -3.0825e-08)
(222.993 65.9069 -3.11424e-08)
(234.306 67.8769 -3.14559e-08)
(244.774 66.5146 -3.16943e-08)
(252.777 63.8008 -3.18372e-08)
(259.643 60.7032 -3.18959e-08)
(264.422 56.7396 -3.20644e-08)
(267.37 53.3144 -3.26202e-08)
(269.122 47.8473 -3.25899e-08)
(270.099 43.252 -3.30109e-08)
(270.898 37.711 -3.27499e-08)
(271.244 32.9231 -3.30377e-08)
(271.061 27.5763 -3.29474e-08)
(270.209 23.0285 -3.30145e-08)
(268.833 18.3666 -3.30872e-08)
(266.97 14.5701 -3.30551e-08)
(264.86 10.9693 -3.31275e-08)
(262.583 8.21681 -3.31082e-08)
(260.378 5.83523 -3.31478e-08)
(258.314 4.22166 -3.31153e-08)
(256.601 3.04657 -3.3116e-08)
(255.255 2.44727 -3.30928e-08)
(254.37 2.1252 -3.3086e-08)
(253.886 2.06954 -3.30761e-08)
(253.694 2.05182 -3.30724e-08)
(268.1 -0.223245 -2.62567e-08)
(268.892 -1.59351 -2.65935e-08)
(270.061 -3.102 -2.70009e-08)
(271.418 -4.7637 -2.74157e-08)
(273.126 -6.49644 -2.78972e-08)
(274.981 -8.31367 -2.8379e-08)
(277.138 -10.1496 -2.892e-08)
(279.386 -12.0136 -2.94511e-08)
(281.866 -13.8605 -3.00272e-08)
(284.375 -15.7029 -3.05813e-08)
(287.05 -17.5212 -3.11633e-08)
(289.716 -19.3384 -3.17113e-08)
(292.497 -21.1366 -3.2271e-08)
(295.236 -22.9274 -3.27863e-08)
(298.037 -24.6922 -3.32988e-08)
(300.762 -26.4354 -3.37588e-08)
(303.502 -28.1385 -3.42045e-08)
(306.144 -29.7995 -3.45955e-08)
(308.765 -31.3967 -3.49662e-08)
(311.248 -32.9251 -3.52756e-08)
(313.673 -34.3718 -3.55594e-08)
(315.934 -35.7328 -3.57801e-08)
(318.106 -37.002 -3.59728e-08)
(320.098 -38.1782 -3.61032e-08)
(321.982 -39.2605 -3.62051e-08)
(323.684 -40.2504 -3.62503e-08)
(325.262 -41.15 -3.62679e-08)
(326.8 -42.0694 -3.62281e-08)
(327.014 -42.5526 -3.60582e-08)
(328.318 -43.2838 -3.59903e-08)
(328.77 -43.8567 -3.57453e-08)
(329.649 -44.3265 -3.56506e-08)
(329.971 -44.8189 -3.53605e-08)
(330.648 -45.1948 -3.52379e-08)
(330.884 -45.6445 -3.49195e-08)
(331.435 -45.9859 -3.47723e-08)
(331.591 -46.3978 -3.44345e-08)
(332.011 -46.6972 -3.42688e-08)
(332.08 -47.0668 -3.39148e-08)
(332.345 -47.3541 -3.37305e-08)
(332.262 -47.7472 -3.33733e-08)
(332.279 -48.1702 -3.31713e-08)
(331.876 -48.8183 -3.28125e-08)
(331.357 -49.7331 -3.25917e-08)
(330.162 -51.1368 -3.22273e-08)
(328.387 -53.181 -3.19747e-08)
(325.365 -56.0308 -3.1584e-08)
(321.02 -59.5408 -3.12762e-08)
(314.864 -63.3276 -3.08321e-08)
(307.047 -66.7144 -3.04322e-08)
(297.527 -68.854 -2.99074e-08)
(286.49 -69.1641 -2.94115e-08)
(275.048 -66.8608 -2.9606e-08)
(264.64 -64.2935 -2.91692e-08)
(253.98 -59.6653 -2.93125e-08)
(244.061 -55.3763 -2.89726e-08)
(234.042 -49.5432 -2.91139e-08)
(224.451 -44.4373 -2.8897e-08)
(214.999 -38.0171 -2.90651e-08)
(206.454 -32.1189 -2.88359e-08)
(198.936 -24.9274 -2.8949e-08)
(192.98 -18.444 -2.88357e-08)
(188.898 -11.2325 -2.90044e-08)
(186.642 -4.95885 -2.88886e-08)
(185.606 1.45406 -2.90002e-08)
(185.163 6.63189 -2.9016e-08)
(185.495 13.1276 -2.89295e-08)
(185.25 18.1802 -2.89881e-08)
(186.057 24.0662 -2.8956e-08)
(186.696 28.8656 -2.90369e-08)
(188.504 34.2122 -2.90772e-08)
(190.568 39.0195 -2.92358e-08)
(194.232 44.3623 -2.93809e-08)
(198.961 49.707 -2.9618e-08)
(206.02 55.4745 -2.98586e-08)
(214.784 60.7954 -3.01668e-08)
(225.357 64.6675 -3.04588e-08)
(235.624 65.6199 -3.07528e-08)
(245.023 64.3447 -3.09661e-08)
(252.602 61.8381 -3.11052e-08)
(259.063 58.5646 -3.11631e-08)
(263.51 54.3919 -3.13249e-08)
(266.149 50.8363 -3.18411e-08)
(267.725 45.5752 -3.16827e-08)
(268.565 41.2759 -3.23901e-08)
(269.303 36.0339 -3.17835e-08)
(269.564 31.5861 -3.2333e-08)
(269.389 26.5826 -3.19669e-08)
(268.574 22.392 -3.23323e-08)
(267.32 18.0625 -3.21472e-08)
(265.606 14.5821 -3.23175e-08)
(263.692 11.263 -3.22478e-08)
(261.622 8.76869 -3.23156e-08)
(259.639 6.61221 -3.2279e-08)
(257.795 5.19043 -3.23014e-08)
(256.275 4.15091 -3.22609e-08)
(255.088 3.64013 -3.22642e-08)
(254.302 3.35387 -3.22488e-08)
(253.869 3.30821 -3.22421e-08)
(253.696 3.29225 -3.22389e-08)
(296.221 0.0228848 -3.31259e-08)
(297.114 -1.45639 -3.34442e-08)
(297.955 -3.11031 -3.37244e-08)
(299.166 -4.93871 -3.40486e-08)
(300.373 -6.86529 -3.43428e-08)
(301.852 -8.89027 -3.46623e-08)
(303.337 -10.9471 -3.49575e-08)
(304.989 -13.0327 -3.52604e-08)
(306.626 -15.0992 -3.55404e-08)
(308.332 -17.1506 -3.58129e-08)
(309.996 -19.1593 -3.60616e-08)
(311.665 -21.1455 -3.62908e-08)
(313.3 -23.0987 -3.64952e-08)
(314.914 -25.0275 -3.66722e-08)
(316.497 -26.9165 -3.68233e-08)
(318.038 -28.7663 -3.6941e-08)
(319.547 -30.5599 -3.70345e-08)
(320.995 -32.2951 -3.70907e-08)
(322.405 -33.9559 -3.71226e-08)
(323.737 -35.5408 -3.71175e-08)
(325.023 -37.0368 -3.70896e-08)
(326.218 -38.4439 -3.70257e-08)
(327.362 -39.7524 -3.69409e-08)
(328.407 -40.9662 -3.68227e-08)
(329.398 -42.0784 -3.66874e-08)
(330.288 -43.0964 -3.65197e-08)
(331.116 -44.0164 -3.63393e-08)
(331.872 -44.9471 -3.61047e-08)
(331.884 -45.3686 -3.59028e-08)
(332.534 -46.0986 -3.56683e-08)
(332.644 -46.5739 -3.53761e-08)
(333.074 -47.0422 -3.51655e-08)
(333.115 -47.428 -3.48493e-08)
(333.436 -47.7891 -3.46338e-08)
(333.437 -48.1321 -3.43107e-08)