/*--------------------------------*- C++ -*----------------------------------*\
  =========                 |
  \\      /  F ield         | OpenFOAM: The Open Source CFD Toolbox
   \\    /   O peration     | Website:  https://openfoam.org
    \\  /    A nd           | Version:  7
     \\/     M anipulation  |
\*---------------------------------------------------------------------------*/
FoamFile
{
    version     2.0;
    format      ascii;
    class       labelField;
    location    "0.1175/lagrangian/reactingCloud1";
    object      cellId;
}
// * * * * * * * * * * * * * * * * * * * * * * * * * * * * * * * * * * * * * //


738
(
23
122
54
120
50
81
84
115
153
111
153
147
187
182
253
253
293
331
289
290
324
399
401
359
359
395
394
424
469
468
468
465
463
502
538
577
536
529
533
561
597
675
709
705
708
742
806
811
844
843
897
894
915
920
921
948
965
1006
1028
1030
1029
1058
980
1040
1041
900
1032
1018
1009
989
974
640
540
680
909
898
883
867
854
832
824
806
786
762
764
742
727
340
681
682
670
644
621
610
581
588
568
544
500
511
483
482
472
447
433
405
395
382
365
344
321
302
283
296
261
248
254
200
202
181
163
167
152
125
100
80
85
61
61
58
25
25
1
1016
956
895
996
997
1020
937
978
1047
983
1008
960
1014
898
923
900
860
913
839
820
847
820
848
826
738
697
719
748
721
679
636
681
684
682
670
618
672
599
578
585
578
587
565
549
542
526
505
501
464
480
442
405
408
383
962
1024
1005
1005
943
944
720
911
783
640
870
826
805
763
722
742
810
813
646
622
544
570
527
442
421
464
402
402
427
384
407
323
394
345
347
349
263
201
266
225
223
233
165
166
168
148
156
107
83
85
94
89
6
10
15
465
434
463
458
487
485
656
573
545
542
624
598
626
649
708
676
703
754
815
787
813
872
865
863
926
951
951
948
976
1028
1029
383
330
282
283
259
271
241
12
21
116
198
154
282
150
147
192
142
190
145
145
142
412
236
489
188
185
228
356
224
315
185
356
224
225
312
270
314
351
304
306
311
479
396
395
351
351
395
347
348
347
393
434
477
386
434
431
640
430
424
428
429
424
429
473
466
467
513
556
596
506
510
553
637
510
594
637
596
551
594
545
595
547
591
589
584
589
635
590
591
634
634
632
718
632
807
629
632
631
672
671
669
712
706
714
710
708
752
751
744
837
788
792
880
790
833
879
832
829
876
825
873
872
871
868
872
868
913
909
910
911
913
907
915
910
954
948
949
953
30
26
7
23
41
9
5
41
3
37
36
57
94
57
125
92
55
128
93
160
92
162
126
124
159
125
125
162
231
195
158
229
155
157
193
265
264
231
226
297
262
259
254
259
298
329
291
332
366
364
362
360
360
361
433
399
467
432
468
503
426
468
465
503
465
502
580
573
499
531
571
567
533
604
604
602
664
664
633
628
662
660
663
688
688
719
721
712
751
774
775
772
839
771
806
803
830
833
835
834
836
827
865
864
860
894
892
878
926
894
894
892
921
920
917
955
949
947
952
948
972
981
981
1007
1006
1003
1030
1048
1051
1051
1054
189
249
245
276
245
245
276
273
304
301
301
301
330
301
360
452
390
361
329
357
391
357
388
359
385
388
386
417
445
385
385
357
415
385
448
415
414
477
444
441
474
413
459
504
442
563
505
471
474
469
471
499
469
497
555
527
561
529
525
584
554
582
553
618
582
583
536
583
642
644
645
582
583
612
641
642
613
568
642
641
641
612
701
637
700
674
699
667
669
701
730
698
665
698
665
666
695
618
695
726
756
755
677
749
717
674
781
782
782
779
813
781
813
809
811
735
778
810
838
835
869
805
834
866
861
864
869
866
861
867
861
893
897
889
896
786
926
921
920
815
917
917
919
953
950
951
982
945
945
817
952
870
977
979
842
926
974
981
1009
873
1005
1001
1006
1001
1001
1008
1005
1017
904
1019
901
1019
938
930
1028
931
1032
1037
1039
1036
1042
1049
983
1047
1044
1045
1051
1048
1045
1059
1059
1058
1052
1057
1058
1054
)


// ************************************************************************* //
