/*--------------------------------*- C++ -*----------------------------------*\
  =========                 |
  \\      /  F ield         | OpenFOAM: The Open Source CFD Toolbox
   \\    /   O peration     | Website:  https://openfoam.org
    \\  /    A nd           | Version:  7
     \\/     M anipulation  |
\*---------------------------------------------------------------------------*/
FoamFile
{
    version     2.0;
    format      ascii;
    class       vectorField;
    location    "0.1175/lagrangian/reactingCloud1";
    object      coordinates;
}
// * * * * * * * * * * * * * * * * * * * * * * * * * * * * * * * * * * * * * //


738
(
(1.81946 0.0807962 -1.22108e-07)
(1.73039 0.099484 -1.01131e-07)
(1.78055 0.0773787 -5.54537e-08)
(1.72197 0.0878967 1.62793e-07)
(1.7698 0.0469734 -2.80594e-12)
(1.76776 0.0397772 -1.14974e-12)
(1.74835 0.0606068 1.99141e-07)
(1.73668 0.0525741 3.53912e-07)
(1.69836 0.0786565 -1.02421e-08)
(1.71779 0.02587 -5.18805e-14)
(1.69775 0.074696 -1.1019e-08)
(1.70121 0.0340159 -4.45446e-15)
(1.67619 0.0707272 4.30906e-08)
(1.67099 0.0324635 -1.00705e-13)
(1.63895 0.040936 -9.06284e-14)
(1.62994 0.0413146 -6.47531e-13)
(1.60887 0.0757814 3.75281e-07)
(1.57398 0.0932732 1.467e-08)
(1.60643 0.0431982 -1.07253e-12)
(1.60296 0.0514979 3.21616e-08)
(1.59142 0.0457561 -9.42858e-13)
(1.54969 0.0805109 6.60732e-07)
(1.53765 0.093898 -1.99083e-08)
(1.55846 0.0476496 1.69856e-07)
(1.55726 0.0476613 -2.68773e-13)
(1.55138 0.0545999 -2.5513e-07)
(1.5459 0.0483278 -1.47858e-12)
(1.52011 0.017902 -1.54919e-12)
(1.50682 0.0811373 -6.66025e-07)
(1.50537 0.074805 4.28432e-07)
(1.50387 0.0719099 -9.30021e-08)
(1.50033 0.0540889 -1.06571e-08)
(1.49621 0.0386285 8.7849e-15)
(1.48663 0.0674176 1.30671e-08)
(1.46399 0.0742013 6.65972e-07)
(1.43818 0.0980601 -2.35435e-07)
(1.45929 0.0624379 8.92988e-08)
(1.45939 0.0145702 -5.48178e-13)
(1.45457 0.0376346 1.68148e-14)
(1.43947 0.000793171 -5.86213e-15)
(1.41832 0.00665818 -4.88377e-14)
(1.37293 0.0611231 -1.44042e-07)
(1.36645 0.0556283 -1.36283e-07)
(1.35656 0.030106 3.04735e-14)
(1.35371 0.0496302 -1.10763e-12)
(1.35101 0.049282 -1.12399e-07)
(1.3057 0.0264609 -9.34005e-13)
(1.30477 0.0579422 6.29665e-08)
(1.28631 0.0941291 -3.37545e-09)
(1.28889 0.0891584 2.15158e-07)
(1.26531 0.0892559 4.1059e-08)
(1.25755 0.0707222 -2.04997e-07)
(1.25074 0.0306597 -1.89647e-13)
(1.25009 0.0638005 2.22414e-07)
(1.24545 0.0732747 -1.14448e-07)
(1.23388 0.0718471 -3.82937e-09)
(1.21752 0.00966418 -1.67475e-13)
(1.20245 0.0940696 1.6091e-07)
(1.18699 0.0608869 -1.00405e-07)
(1.18577 0.0790619 2.90893e-09)
(1.1825 0.0732002 1.11197e-07)
(1.16527 0.0860234 2.07534e-07)
(0.417184 0.149913 -7.52103e-07)
(0.429866 0.155505 7.37255e-07)
(0.429223 0.140388 -2.57879e-07)
(0.402247 0.140265 -3.96198e-08)
(0.423449 0.0593348 2.79245e-11)
(0.419457 0.00902717 1.02664e-12)
(0.417998 0.0757887 1.7905e-11)
(0.415077 0.0824711 5.87421e-11)
(0.40994 0.0410707 -5.067e-12)
(0.342053 0.130207 -1.24821e-07)
(0.321341 0.128348 -4.68562e-08)
(0.352989 0.128721 -4.25654e-08)
(0.398094 0.0726183 1.04541e-11)
(0.392904 0.011484 1.30787e-13)
(0.394603 0.118549 -5.82805e-11)
(0.388898 0.087408 -6.33912e-11)
(0.383301 0.0417914 -8.15358e-13)
(0.380225 0.0497746 -8.20548e-12)
(0.38096 0.10741 -1.85735e-10)
(0.376001 0.0930083 -1.49542e-10)
(0.372504 0.0934081 -4.90361e-11)
(0.370652 0.117081 -7.43149e-11)
(0.369681 0.106135 -1.8085e-12)
(0.36721 0.120675 -9.43108e-11)
(0.360552 0.0841757 -1.27748e-11)
(0.273908 0.128543 -2.48072e-07)
(0.354621 0.125548 -3.08043e-11)
(0.35195 0.11659 -3.23464e-11)
(0.344308 0.0658408 -6.49787e-12)
(0.343447 0.103335 -1.63336e-12)
(0.339164 0.123505 -1.74847e-10)
(0.33279 0.0636736 -3.64615e-11)
(0.331003 0.122239 -7.64118e-12)
(0.326226 0.0726008 -8.02609e-13)
(0.321621 0.0731092 6.65354e-13)
(0.319358 0.0994388 -4.53614e-11)
(0.310097 0.124027 1.389e-07)
(0.310021 0.0533482 -5.65227e-12)
(0.30755 0.106304 7.59819e-11)
(0.303664 0.112977 1.0514e-10)
(0.298117 0.0512758 -1.72841e-11)
(0.293999 0.0785835 -9.28567e-12)
(0.289901 0.0449393 -3.70615e-11)
(0.2868 0.0935332 1.80598e-11)
(0.281739 0.0290654 2.22396e-12)
(0.279238 0.114078 5.73064e-11)
(0.275116 0.0933703 1.63069e-11)
(0.270783 0.101536 -1.63998e-11)
(0.266845 0.118785 -1.50615e-12)
(0.262863 0.11387 2.54213e-11)
(0.258504 0.10413 1.49592e-11)
(0.254549 0.0235192 -1.0992e-12)
(0.251176 0.116662 -1.4487e-11)
(0.247287 0.0713443 -3.54616e-12)
(0.242786 0.0386135 -1.3548e-12)
(0.23634 0.124301 -7.68852e-13)
(0.235576 0.112525 -1.01519e-12)
(0.231077 0.122224 -1.40563e-12)
(0.226819 0.107095 2.22128e-11)
(0.223226 0.0837109 -5.02606e-12)
(0.219268 0.0495622 -1.54306e-12)
(0.214923 0.0946788 1.21133e-12)
(0.207135 0.125385 -4.85247e-12)
(0.205157 0.125028 -6.01547e-12)
(0.202985 0.0939597 -3.008e-13)
(0.198889 0.122405 4.25243e-13)
(0.19493 0.120567 1.45089e-11)
(0.190915 0.00990659 9.79861e-14)
(0.187607 0.0963564 -1.51705e-13)
(0.183703 0.0905869 -3.1503e-14)
(0.179046 0.119115 -1.17786e-11)
(0.563178 0.140878 -1.54629e-07)
(0.552019 0.146108 1.60311e-07)
(0.536923 0.1511 -1.49014e-07)
(0.559638 0.143094 1.38796e-07)
(0.559168 0.132754 -1.17671e-07)
(0.562501 0.108441 4.23848e-11)
(0.545556 0.13595 -9.78977e-08)
(0.555464 0.1268 1.9055e-07)
(0.562957 0.0543547 -1.0678e-12)
(0.551978 0.0863058 1.60383e-11)
(0.557689 0.0486359 -8.78945e-13)
(0.547822 0.112696 -2.14398e-11)
(0.553691 0.00403814 -9.33069e-16)
(0.536805 0.126606 1.11135e-10)
(0.539992 0.0893989 8.15791e-14)
(0.537697 0.112344 -2.25293e-12)
(0.529285 0.115671 3.90347e-13)
(0.535885 0.0111315 -8.62633e-12)
(0.523603 0.12358 1.5662e-11)
(0.520138 0.11976 1.838e-10)
(0.524651 0.058999 2.435e-12)
(0.519424 0.112194 1.24864e-10)
(0.5224 0.051882 1.02806e-12)
(0.518245 0.0687348 2.22659e-12)
(0.502666 0.134147 3.21172e-11)
(0.495938 0.140706 -7.15085e-08)
(0.497739 0.12843 4.46389e-11)
(0.502585 0.0557756 6.9936e-11)
(0.499462 0.110583 5.90142e-12)
(0.490775 0.128153 8.22965e-12)
(0.482474 0.151632 -2.04154e-07)
(0.492626 0.109848 3.92774e-11)
(0.489783 0.0837593 6.27755e-11)
(0.491217 0.0997615 9.29037e-11)
(0.485598 0.0399413 5.29666e-11)
(0.479131 0.13558 1.64241e-11)
(0.483187 0.0214866 1.91024e-12)
(0.474865 0.125283 8.01613e-11)
(0.46928 0.136907 8.50893e-12)
(0.47076 0.0778877 -1.79602e-12)
(0.468053 0.133283 3.37732e-11)
(0.468275 0.0615025 -2.90597e-12)
(0.465348 0.0804322 8.97571e-11)
(0.459566 0.0480892 2.29108e-11)
(0.461389 0.0989796 1.67573e-10)
(0.456164 0.0699494 -2.27206e-12)
(0.450815 0.0742519 -6.03534e-12)
(0.453331 0.108376 3.58416e-11)
(0.444798 0.0842172 -7.97163e-12)
(0.44763 0.114646 -2.43161e-12)
(0.439653 0.0959403 1.01914e-10)
(0.43288 0.0776633 3.51627e-11)
(0.429867 0.0531157 -5.05332e-12)
(0.427365 0.0889451 -2.53693e-11)
(0.794959 0.0902951 1.89034e-07)
(0.814461 0.0800233 -3.99107e-08)
(0.80947 0.0762587 -6.94781e-07)
(0.80851 0.0769347 6.47439e-08)
(0.79313 0.0853858 1.1921e-07)
(0.79288 0.0788224 -5.17944e-09)
(0.729247 0.0999343 1.14191e-08)
(0.780008 0.045283 -2.86436e-10)
(0.748138 0.084233 -1.57719e-07)
(0.711075 0.106769 -1.013e-07)
(0.765536 0.0457219 5.50171e-12)
(0.757397 0.0680912 -1.55789e-10)
(0.750233 0.0755347 1.12012e-07)
(0.74148 0.0852557 4.25472e-08)
(0.728328 0.0926313 5.674e-08)
(0.732635 0.0881684 -6.68786e-08)
(0.75122 0.0464806 -1.55694e-10)
(0.752545 0.0332616 7.12725e-12)
(0.710629 0.0761723 8.99723e-11)
(0.707961 0.0979307 2.00307e-07)
(0.688518 0.0915213 2.46764e-11)
(0.690329 0.0540339 1.63046e-11)
(0.680756 0.0760087 3.97674e-12)
(0.664744 0.109983 -3.2594e-09)
(0.661025 0.112858 5.11708e-08)
(0.669055 0.0938714 3.32527e-11)
(0.658017 0.107965 6.05541e-08)
(0.655481 0.107388 6.19845e-08)
(0.662264 0.080451 5.0073e-12)
(0.653458 0.0963854 5.04287e-12)
(0.655596 0.0794228 1.79411e-11)
(0.639946 0.111088 8.74477e-11)
(0.648977 0.0350999 3.28108e-13)
(0.641818 0.094687 -2.44582e-11)
(0.641219 0.0784311 7.71239e-11)
(0.641078 0.0713732 5.04193e-11)
(0.624999 0.108514 1.85702e-10)
(0.612896 0.127588 5.21835e-08)
(0.624813 0.0916891 1.03218e-12)
(0.617813 0.0982526 -1.19192e-12)
(0.615845 0.114634 1.54169e-07)
(0.616593 0.0418221 4.4499e-11)
(0.604476 0.106157 1.94215e-10)
(0.603795 0.096283 1.68065e-11)
(0.602955 0.0821196 -1.75377e-12)
(0.599003 0.0844617 7.15715e-11)
(0.597528 0.0256267 -8.10668e-13)
(0.59179 0.0879614 8.76403e-11)
(0.587854 0.124088 2.10655e-10)
(0.588339 0.105315 -1.32185e-11)
(0.585921 0.0417617 2.85514e-11)
(0.585594 0.0792443 3.70787e-12)
(0.570901 0.100356 5.23255e-12)
(0.568581 0.0738674 1.08121e-11)
(0.567674 0.0375809 3.02281e-11)
(1.14103 0.0835647 -5.95576e-09)
(1.14962 0.0577812 -1.69178e-12)
(1.13891 0.0727709 2.53577e-07)
(1.14213 0.0335477 -3.74811e-12)
(1.13328 0.0470845 1.9685e-07)
(1.12876 0.0356557 -2.77275e-13)
(1.05461 0.0935187 -4.70848e-07)
(1.09069 0.0826488 1.33623e-07)
(1.10481 0.0744803 5.30056e-07)
(1.10164 0.0558009 1.02467e-06)
(1.06958 0.0659909 -3.02232e-07)
(1.07623 0.0682786 -3.68861e-07)
(1.06111 0.0784887 3.24985e-08)
(1.05379 0.0518337 -1.57809e-07)
(1.03617 0.0832011 -1.33031e-07)
(1.03843 0.050756 6.05526e-13)
(1.03128 0.048019 1.97123e-12)
(1.0145 0.0271687 4.33873e-13)
(0.994074 0.0768339 6.8091e-07)
(0.998883 0.0695843 -7.69895e-09)
(0.989083 0.0615388 -2.28969e-08)
(0.96594 0.0932796 6.1504e-07)
(0.970259 0.0496003 1.45646e-11)
(0.967219 0.0348086 2.71034e-12)
(0.948728 0.0892943 6.2e-07)
(0.945053 0.0816763 -3.25268e-08)
(0.940968 0.0820313 -1.70145e-07)
(0.938188 0.0598213 2.0909e-07)
(0.930123 0.070293 -1.13412e-09)
(0.914936 0.0576901 1.33485e-07)
(0.912543 0.0635833 2.07841e-07)
(0.899692 0.0609525 -2.53476e-08)
(0.872887 0.019734 1.28635e-11)
(0.861478 0.0653409 5.91758e-08)
(0.860151 0.0577119 -2.90544e-11)
(0.855548 0.0837319 -5.67236e-08)
(0.857 0.0166971 -2.41048e-12)
(0.84512 0.0738193 1.48974e-08)
(4.67933 0.175633 -2.61921e-07)
(4.60972 0.142786 1.39623e-07)
(4.40255 0.141509 1.03423e-07)
(4.23834 0.131803 5.07421e-08)
(4.29793 0.119877 7.2276e-08)
(4.10544 0.138505 -1.5523e-08)
(4.28787 0.081428 -1.05592e-07)
(4.33385 0.053553 -1.66465e-07)
(4.22662 0.0842184 -2.9405e-07)
(4.32077 0.0186471 2.72933e-07)
(4.25184 0.0690192 -1.46813e-08)
(4.29563 0.0401657 -7.58489e-08)
(4.31355 0.0354039 -1.21372e-08)
(4.33503 0.0189106 -2.4955e-07)
(3.9664 0.204057 4.40193e-08)
(4.17952 0.0975655 -3.86408e-07)
(3.84302 0.173942 -2.82193e-07)
(4.24737 0.0447705 2.8676e-07)
(4.2372 0.0234176 2.59111e-07)
(4.20558 0.0323199 5.31869e-08)
(4.01747 0.0986849 -1.71448e-07)
(4.21647 0.00133896 4.22468e-08)
(4.10283 0.0876241 7.08497e-08)
(4.2308 0.0218557 -3.82084e-07)
(4.01727 0.0996551 1.61848e-07)
(4.2092 0.00417134 -1.45111e-07)
(4.16781 0.0118494 -2.21472e-08)
(4.09447 0.0594831 9.41419e-08)
(4.12848 0.0499414 8.02888e-09)
(4.05972 0.0794109 1.47663e-07)
(4.03866 0.0577438 2.27617e-09)
(4.08737 0.00451818 -3.68914e-07)
(4.07555 0.013638 -1.5134e-07)
(4.05307 0.0529661 -9.03166e-09)
(3.83912 0.121467 -2.32521e-07)
(3.9349 0.0993251 2.40134e-07)
(3.95815 0.0922592 -1.524e-07)
(3.98958 0.0515235 -1.96214e-07)
(4.01023 0.0546285 9.82742e-07)
(3.93836 0.0889345 -1.0705e-07)
(4.02053 0.0191058 4.30247e-07)
(4.00672 0.0260813 1.16104e-08)
(4.01838 0.0252555 4.60814e-08)
(3.94927 0.0751602 -7.50804e-08)
(3.91936 0.0780124 -6.85657e-10)
(3.81579 0.107795 1.60358e-07)
(3.96666 0.0173497 -6.92244e-08)
(3.88934 0.0806498 -7.68881e-08)
(3.90315 0.0493704 -3.78928e-07)
(3.63179 0.126075 5.09742e-07)
(3.92471 0.0432132 4.60449e-08)
(3.91559 0.00319362 5.07904e-08)
(3.91115 0.0268857 -8.43204e-08)
(3.9067 0.0331699 5.30618e-07)
(3.90326 1.87029e-11 -5.73066e-14)
(3.87005 0.0358889 -3.03613e-08)
(3.81566 0.0747665 -2.29545e-07)
(3.84489 0.0161845 6.95877e-08)
(3.83245 0.0198394 -5.04682e-08)
(3.78173 0.0717686 -1.30934e-08)
(3.74854 0.0929898 3.99255e-08)
(3.68046 0.0976642 -2.27983e-09)
(3.81134 0.0128081 1.1842e-08)
(3.78529 0.0453493 1.26455e-07)
(3.74624 0.0706012 1.67358e-08)
(3.63804 0.104965 5.92753e-08)
(3.76415 0.0402996 4.73306e-08)
(3.68836 0.0801491 4.60042e-07)
(3.61501 0.103396 1.93208e-07)
(3.68116 0.0976015 5.58214e-08)
(3.73887 0.0494053 -1.25511e-07)
(3.68915 0.0790899 -7.09075e-08)
(3.73152 0.0102548 2.82853e-13)
(3.66891 0.0831551 2.14691e-07)
(3.70467 0.0225023 4.71846e-08)
(3.68417 0.0552088 1.70034e-08)
(3.6996 0.0377467 2.87562e-08)
(3.69826 8.59662e-10 -2.19615e-12)
(3.6833 0.0380891 -1.96756e-07)
(3.61791 0.0860548 -9.28756e-08)
(3.66357 0.0468995 -1.43541e-07)
(3.65701 0.0526576 5.87359e-08)
(3.62477 0.0768864 -4.54953e-08)
(3.61597 0.0800637 2.4691e-08)
(3.6148 0.056044 6.12576e-07)
(3.52725 0.110758 -1.10902e-07)
(3.6211 0.0580326 -9.9189e-08)
(3.3857 0.157016 -1.26167e-07)
(3.63631 0.0360681 4.62015e-08)
(3.60725 0.0614165 2.46192e-08)
(3.61227 0.0518415 -4.38733e-07)
(3.58123 0.0643074 4.84753e-08)
(3.56379 0.0548406 4.99888e-08)
(3.57264 0.0354633 -2.0334e-08)
(3.51496 0.0603647 3.978e-07)
(3.51952 0.0177965 4.41801e-07)
(3.48912 0.0742443 -1.8256e-07)
(3.50945 0.0422662 1.29975e-08)
(3.49862 0.0288507 2.6101e-07)
(3.44373 0.0602539 -3.79952e-08)
(3.43993 0.0486393 4.00261e-07)
(3.44366 0.000601291 -4.58474e-08)
(3.34284 0.103695 1.03786e-07)
(3.41691 0.0244081 -2.12659e-07)
(3.42249 0.0598896 6.53577e-07)
(3.31025 0.116927 4.88257e-07)
(3.38902 0.0395811 4.36357e-07)
(3.36697 0.0668291 -9.22576e-07)
(3.28999 0.112195 5.50664e-07)
(3.36038 0.0620791 1.05584e-07)
(3.35295 0.035021 4.61336e-09)
(3.3262 0.0922563 1.74461e-07)
(3.33822 0.00817273 1.53925e-07)
(3.32162 0.0679489 7.38353e-07)
(3.31622 0.0594053 1.00094e-07)
(3.3232 0.0470218 -4.92537e-07)
(3.3185 0.0268419 -8.13263e-08)
(3.30618 0.0579968 -1.55791e-07)
(3.29831 0.0236687 -1.2693e-07)
(3.26207 0.0676059 2.7399e-07)
(3.24968 0.030364 -5.71565e-07)
(3.23913 0.0376538 3.53164e-09)
(3.23454 0.0499771 -4.97311e-07)
(3.23243 0.0680703 -4.97386e-08)
(3.2332 0.0190325 -5.11006e-07)
(3.22602 0.0860792 -1.09303e-06)
(3.23147 0.0382333 9.65812e-08)
(3.22323 0.0707203 -5.36998e-08)
(3.21979 0.0264888 7.96604e-08)
(3.21593 0.0362316 -8.71397e-09)
(3.19905 0.0699093 -3.17437e-07)
(3.12067 0.123294 -4.08549e-07)
(3.08309 0.0979103 4.15488e-07)
(3.1683 0.0528143 3.38472e-07)
(3.12481 0.076457 1.8057e-08)
(3.06502 0.0747359 -3.90214e-07)
(3.12993 0.0689665 -4.30398e-07)
(3.14381 0.0299365 9.78404e-08)
(3.06683 0.0702691 2.76665e-07)
(3.13201 0.0194312 -1.23899e-12)
(3.07501 0.04066 1.23707e-07)
(3.05819 0.0340911 -3.38117e-08)
(3.03219 0.0521203 6.51607e-08)
(2.94814 0.081018 -8.23403e-08)
(3.00832 0.0566873 8.69824e-09)
(2.9039 0.0533439 2.40021e-07)
(2.98019 0.0630121 3.21942e-07)
(3.02972 0.0380732 5.63566e-08)
(2.89563 0.082751 -8.04164e-07)
(2.94221 0.0731211 -1.23026e-08)
(2.88077 0.0626556 -3.42663e-07)
(2.94939 0.0656239 5.38341e-08)
(2.85864 0.0833327 1.05267e-06)
(2.91294 0.0675212 1.43826e-08)
(2.89397 0.0442161 -1.47839e-07)
(2.87067 0.0533784 1.16185e-06)
(2.93898 0.0530182 -3.88351e-07)
(2.91801 0.0574852 -7.27232e-07)
(2.86474 0.0763915 -2.08872e-09)
(2.78788 0.087594 6.53411e-08)
(2.84175 0.0690573 1.35529e-07)
(2.86563 0.0451407 1.22977e-07)
(2.79711 0.0745084 4.09942e-08)
(2.85305 0.0259378 -9.7476e-13)
(2.8736 0.0418793 3.81251e-07)
(2.84149 0.0587528 7.34967e-07)
(2.72005 0.0877707 3.72164e-09)
(2.74075 0.0795437 3.25281e-07)
(2.77226 0.0841274 4.16439e-07)
(2.77157 0.0464413 1.50837e-07)
(2.71241 0.0680949 -1.32566e-06)
(2.72706 0.0656839 -6.29963e-08)
(2.74797 0.0418217 -1.68308e-07)
(2.75256 0.00970062 -1.12463e-14)
(2.75015 0.0364932 -1.47811e-07)
(2.69919 0.0746078 -1.31976e-07)
(2.67615 0.0549612 4.53302e-07)
(2.70015 0.0245743 -1.60973e-07)
(2.64895 0.0754641 6.83971e-08)
(2.61922 0.0746625 -1.21524e-07)
(2.62886 0.0641053 2.55879e-08)
(2.62936 0.0459062 1.05869e-07)
(2.61775 0.0292571 -3.98558e-13)
(2.60909 0.034277 -3.84462e-08)
(2.62334 0.0408589 2.93568e-07)
(2.54354 0.0706481 -6.10876e-08)
(2.57227 0.0658445 1.44255e-07)
(2.5116 0.0716617 2.76435e-08)
(2.5328 0.0572637 -1.21405e-07)
(2.50684 0.0751066 2.80754e-07)
(2.45922 0.0846006 -3.93284e-08)
(2.51941 0.0159473 -1.49396e-13)
(2.48463 0.0733957 -1.85519e-07)
(2.50639 0.0500084 -4.5368e-07)
(2.45086 0.0842513 1.16659e-06)
(2.50141 0.0496138 -3.64063e-07)
(2.43989 0.075595 1.3838e-07)
(2.36962 0.1308 -2.96273e-07)
(2.37646 0.0963863 1.74103e-07)
(2.45538 0.048116 3.7742e-08)
(2.42917 0.0349123 -7.69571e-15)
(2.37297 0.0855827 3.03657e-08)
(2.39794 0.0492899 -1.85771e-07)
(2.40987 0.048172 -4.20015e-07)
(2.33142 0.0733584 -4.61724e-10)
(2.32988 0.0748892 -1.92524e-07)
(2.34677 0.0583812 -1.19311e-07)
(2.28917 0.0886595 1.12422e-07)
(2.27607 0.0892513 1.40019e-07)
(2.31492 0.0729516 -1.86234e-07)
(2.31344 0.03896 1.77204e-07)
(2.27053 0.0766355 4.29077e-07)
(2.28397 0.0551082 3.18949e-07)
(2.26297 0.0804144 1.1217e-07)
(2.24015 0.0494851 -2.87009e-08)
(2.23905 0.0500768 4.13852e-07)
(2.19136 0.0655928 -8.11726e-07)
(2.18905 0.0806577 2.54602e-07)
(2.22001 0.0195829 -1.91725e-13)
(2.17877 0.0864831 -3.36151e-07)
(2.14031 0.0451673 1.40782e-08)
(2.13143 0.0459601 -5.12035e-08)
(2.13067 0.027326 6.80437e-07)
(2.08083 0.0935402 5.16582e-07)
(2.12261 0.023372 -6.3954e-13)
(2.11064 0.0674235 1.40157e-07)
(2.09427 0.0414177 -1.43267e-12)
(2.08444 0.0314305 -3.13497e-14)
(2.08343 0.0462827 -3.80853e-07)
(2.06683 0.0631193 3.39324e-07)
(2.06913 0.0596198 -1.93893e-07)
(2.06417 0.0726152 -3.99074e-07)
(2.05652 0.0110852 -1.75943e-07)
(2.04868 0.0731638 3.00085e-08)
(2.03988 0.0628811 1.13554e-06)
(2.03732 0.0344592 -4.91528e-14)
(2.02221 0.0732756 -3.8334e-07)
(2.02231 0.0537779 -1.3621e-07)
(2.02758 0.143163 6.11379e-07)
(1.99289 0.0908741 3.91391e-08)
(2.00168 0.07498 3.57651e-07)
(2.00339 0.0745131 5.31287e-09)
(2.00598 0.0585587 -1.37901e-07)
(1.99261 0.0528876 -1.39889e-08)
(1.9745 0.0473914 -5.76232e-07)
(1.96657 0.0305555 2.70138e-14)
(1.95106 0.0909448 4.50835e-07)
(1.95589 0.0493765 8.02038e-07)
(1.95134 0.0342024 5.40024e-07)
(1.94103 0.0733127 -5.27826e-08)
(1.94488 0.0417912 -2.29429e-13)
(1.92405 0.0119787 -7.53722e-14)
(1.90877 0.0706779 3.14766e-07)
(1.9078 0.0677353 2.417e-08)
(1.89614 0.0658043 1.34113e-08)
(1.89785 0.0547121 4.12304e-08)
(1.87745 0.0360251 -3.62908e-13)
(1.86155 0.041871 -3.21318e-13)
(1.83742 0.0213068 -1.83236e-14)
(1.83721 0.0436694 -1.05938e-13)
(1.834 0.0385253 7.59921e-14)
(1.82458 0.0643048 -2.70215e-07)
(6.7057 7.02213e-11 -5.81126e-13)
(6.56681 0.0387941 8.08506e-08)
(6.60987 4.00107e-11 9.98324e-14)
(6.52053 0.0337777 5.37078e-08)
(6.59016 0.00146121 -7.19719e-07)
(6.55662 0.00191174 9.83229e-08)
(6.53165 0.0300031 2.15286e-07)
(6.52717 1.35139e-10 -8.86423e-13)
(6.44579 0.0249071 -9.04299e-08)
(6.42656 0.00441145 -5.8926e-07)
(6.4398 0.000856786 -1.21094e-07)
(6.45768 0.00575929 1.09023e-07)
(6.38685 0.00958895 -1.68742e-07)
(6.41784 6.28843e-10 -5.07356e-12)
(6.25997 0.0262186 -1.04366e-06)
(6.10437 0.105879 9.0201e-07)
(6.22666 0.0515702 -1.24926e-06)
(6.30201 0.0420765 5.05086e-07)
(6.34207 0.000233091 -3.69816e-10)
(6.32773 3.21145e-09 -1.36594e-11)
(6.20212 0.0545072 -2.53899e-07)
(6.28162 0.00112937 6.02036e-07)
(6.21382 0.02794 6.16027e-07)
(6.26181 0.0201204 1.47194e-07)
(6.25594 0.00745042 -3.91997e-08)
(6.24147 0.0255272 4.49357e-07)
(6.22237 0.0093744 -5.25901e-07)
(6.17412 0.0411187 -2.91794e-07)
(6.10508 0.0371173 -6.23804e-07)
(6.21222 0.0014153 -4.07815e-07)
(6.22815 0.00467865 -3.57148e-07)
(6.27361 1.90565e-11 -1.2858e-13)
(6.16222 0.0210872 4.08932e-07)
(6.22241 0.000702305 -3.96827e-07)
(6.07822 0.0639869 -2.32748e-07)
(6.15797 0.0210534 -4.322e-09)
(6.17357 0.00963764 -4.77868e-08)
(6.00725 0.0741674 2.48904e-07)
(6.10587 0.0277909 3.80407e-07)
(6.10977 4.9825e-11 1.33536e-13)
(6.03534 0.0417433 6.66054e-08)
(6.1504 5.38399e-11 1.95295e-13)
(6.08838 0.164627 -5.70989e-07)
(5.8998 0.061031 6.11832e-07)
(6.05244 0.0126788 -6.96261e-08)
(5.8261 0.102005 9.82804e-07)
(5.96083 0.0819915 -4.47793e-07)
(6.01988 0.0207898 1.58094e-08)
(5.97706 0.0424172 1.93883e-07)
(6.00464 0.00185652 4.56996e-07)
(5.98953 0.0216275 2.02141e-08)
(5.96489 0.0156352 -3.03795e-07)
(5.9938 0.00329232 -4.84889e-07)
(5.97049 1.71448e-10 1.31302e-12)
(5.81893 0.0228152 2.06239e-07)
(5.89843 0.0161711 -3.45782e-07)
(5.76575 0.0708116 -2.54954e-07)
(5.82857 0.0383578 -1.26723e-07)
(5.85094 0.00374077 -9.94134e-08)
(5.73057 0.0230115 5.18993e-07)
(5.79391 0.0109761 2.65711e-07)
(5.73633 0.0132692 -1.04026e-07)
(5.78743 0.00193934 1.59447e-07)
(5.62769 0.0865888 3.73391e-07)
(5.75649 0.0102773 -2.60989e-08)
(5.70418 0.015616 -2.3019e-07)
(5.84824 0.105683 7.35713e-07)
(5.74528 0.017334 -2.77151e-07)
(5.56608 0.0439815 -1.20115e-07)
(5.60849 0.0661476 8.11685e-08)
(5.58638 0.0723203 -1.14991e-07)
(5.712 0.00756095 1.13844e-07)
(5.69913 0.0161545 -4.51025e-07)
(5.66948 0.0310976 -8.59015e-08)
(5.61575 0.0314995 -1.6765e-07)
(5.60703 0.048786 6.01077e-08)
(5.6228 0.0356134 2.69848e-07)
(5.78315 0.140153 -4.15597e-08)
(5.59322 0.0450228 -3.59688e-07)
(5.59071 0.0360176 3.61992e-07)
(5.59779 0.0386007 1.50713e-07)
(5.64732 0.0265577 8.73894e-08)
(5.45584 0.0760665 3.02473e-07)
(5.57938 0.00343235 2.30179e-08)
(5.44833 0.064058 2.43986e-07)
(5.50964 0.0815961 -2.82098e-07)
(5.45411 0.0578256 6.00788e-07)
(5.53765 0.0156496 -3.91924e-07)
(5.48797 0.0345509 9.36819e-08)
(5.41063 0.0707394 6.15209e-08)
(5.36993 0.0850471 -5.72053e-07)
(5.44052 0.040005 -1.3584e-06)
(5.51449 0.000198934 1.29707e-07)
(5.42301 0.0451995 8.59554e-08)
(5.47758 5.62786e-11 -2.47418e-13)
(5.48802 0.0108001 1.14855e-08)
(5.44937 0.0191232 -3.98116e-07)
(5.64975 0.0826156 1.91528e-08)
(5.42515 0.0157246 1.28404e-07)
(5.36469 0.0472133 -3.30477e-10)
(5.30914 0.0663526 -7.70535e-08)
(5.28658 0.0486521 4.68475e-07)
(5.53638 0.11097 -1.08891e-11)
(5.31202 0.00225321 -2.43985e-07)
(5.43067 0.191317 -4.45113e-07)
(5.48517 0.0881355 7.18733e-07)
(5.24533 0.0342989 1.00111e-07)
(5.26164 0.0414292 -4.24176e-07)
(5.25149 0.0431661 -2.03573e-07)
(5.25748 0.0156592 -6.59008e-12)
(5.15029 0.074274 1.79165e-07)
(5.21468 0.0371009 -1.49084e-08)
(5.14738 0.0718507 -4.41586e-07)
(5.18241 0.0345822 2.49734e-07)
(5.16855 0.0549797 -2.24048e-07)
(5.39786 0.129672 7.09114e-08)
(5.21928 0.0109603 -3.57492e-07)
(5.13257 0.0458977 -1.68938e-07)
(5.10951 0.0420544 5.21751e-08)
(5.12818 0.016587 3.01372e-07)
(5.04332 0.0718296 9.95069e-08)
(5.14995 4.34249e-11 -5.93358e-14)
(5.09536 0.0127213 6.54062e-08)
(5.05135 0.04303 -3.12348e-07)
(5.06135 0.00518792 -4.70674e-07)
(5.05637 0.027797 2.29488e-07)
(5.01307 0.0663161 5.91381e-07)
(5.03236 0.0417882 -1.42086e-07)
(5.03384 0.00186093 2.83454e-09)
(5.00314 0.0523666 4.44074e-08)
(5.01501 1.61829e-10 6.31068e-13)
(4.9908 0.0341526 -1.46969e-07)
(4.9636 0.0659087 1.34371e-07)
(4.99588 9.26915e-10 6.32446e-12)
(4.94069 0.057914 7.46919e-08)
(5.22724 0.0820093 -1.8018e-07)
(4.8927 0.080576 3.01542e-07)
(4.89746 0.0337365 3.62861e-07)
(4.91299 0.0236295 -1.12556e-07)
(5.16368 0.0881636 -4.98311e-09)
(4.89408 0.00235175 -2.69956e-08)
(4.88903 0.00554375 1.38503e-07)
(4.87271 0.0175532 -3.57763e-07)
(4.82916 0.0676908 3.27272e-08)
(4.83474 0.0392731 3.30588e-07)
(4.81329 0.0539563 -1.96724e-07)
(4.77036 0.0787795 -6.76228e-07)
(4.83429 0.00560724 -1.66043e-09)
(4.83857 0.00648418 -3.26234e-07)
(5.14561 0.113737 3.98193e-07)
(4.79729 0.0549759 2.47633e-07)
(5.06101 0.0831458 -3.16675e-07)
(4.773 0.0307214 6.60678e-07)
(4.77335 0.050868 -4.58695e-08)
(5.10467 0.0834223 2.68008e-07)
(4.90187 0.0806716 -1.01759e-08)
(4.7594 0.00925196 -3.52046e-08)
(4.73989 0.0730344 2.72247e-07)
(4.70923 0.0679588 -4.34651e-07)
(5.03185 0.110652 -7.67977e-07)
(4.71084 0.0300925 -3.86447e-07)
(4.71332 0.00143917 -6.23624e-09)
(4.6861 0.0371097 2.04759e-07)
(4.70666 9.25882e-11 -9.41017e-14)
(4.7036 2.3508e-09 -3.44474e-12)
(4.67427 0.0544431 1.81925e-08)
(4.67617 0.0316844 2.36998e-07)
(4.66131 0.0376169 -7.06569e-08)
(4.97691 0.132617 6.80255e-08)
(4.61714 0.0575914 8.2369e-08)
(4.93774 0.106465 -1.23739e-06)
(4.60251 0.0547805 -5.24515e-07)
(4.90634 0.163514 3.18126e-07)
(4.91506 0.114061 -3.52624e-07)
(4.54366 0.0504135 -6.18775e-07)
(4.89514 0.12717 -7.54412e-07)
(4.53353 2.17023e-10 -3.19177e-13)
(4.52221 0.0377564 2.57138e-08)
(4.50825 0.0594947 1.92026e-07)
(4.51611 0.0282155 -5.99103e-07)
(4.47261 0.000942887 -1.16508e-09)
(4.44909 0.0565782 1.37944e-07)
(4.76262 0.0898375 -1.13391e-06)
(4.44706 0.0411929 -1.81165e-07)
(4.4324 0.0190968 -2.19598e-07)
(4.42922 0.0235768 1.79686e-07)
(4.4178 0.0748982 -6.14648e-08)
(4.41901 0.0457377 2.35925e-07)
(4.41678 0.0269545 -9.42487e-08)
(4.40972 0.0584662 -1.93331e-08)
(4.40894 0.0525701 3.05239e-08)
(4.40981 0.046016 -2.43351e-07)
(4.41043 0.00182331 -7.94248e-08)
(4.37574 0.0397677 -2.1212e-08)
(4.36984 0.0445383 -4.43547e-08)
(4.36082 0.017732 -1.13426e-08)
)


// ************************************************************************* //
