/*--------------------------------*- C++ -*----------------------------------*\
  =========                 |
  \\      /  F ield         | OpenFOAM: The Open Source CFD Toolbox
   \\    /   O peration     | Website:  https://openfoam.org
    \\  /    A nd           | Version:  7
     \\/     M anipulation  |
\*---------------------------------------------------------------------------*/
FoamFile
{
    version     2.0;
    format      ascii;
    class       labelField;
    location    "0.1175/lagrangian/reactingCloud1";
    object      origId;
}
// * * * * * * * * * * * * * * * * * * * * * * * * * * * * * * * * * * * * * //


738
(
455
246
467
463
474
475
473
476
453
481
440
482
471
485
487
488
477
454
490
489
491
480
396
479
494
493
495
500
472
486
484
498
501
497
492
478
499
506
505
508
510
509
441
516
514
502
521
517
504
503
483
513
526
518
522
520
530
507
525
511
527
345
591
630
665
667
671
672
673
674
675
676
677
678
679
680
681
682
683
684
685
686
687
688
689
690
691
692
693
694
695
696
697
698
699
700
701
702
703
704
705
706
707
708
709
710
711
712
713
714
715
716
717
718
719
720
721
722
723
724
725
726
727
728
729
730
731
732
733
734
735
736
737
602
601
581
611
614
618
617
620
622
625
624
623
627
626
629
628
631
633
632
634
636
635
637
638
639
640
642
644
643
645
641
646
648
647
650
649
651
652
653
655
654
656
657
659
658
660
662
661
664
663
666
668
669
670
548
559
557
560
558
563
562
573
567
547
575
572
571
568
565
569
577
578
579
570
580
587
586
574
576
585
583
584
590
589
592
588
598
593
596
597
595
582
599
600
594
606
603
605
607
608
612
610
604
609
615
613
616
619
621
512
532
528
536
524
537
416
459
534
529
539
535
533
541
523
544
545
549
519
543
546
496
551
553
426
540
531
552
550
555
554
556
564
515
561
538
566
542
61
146
9
153
173
109
194
220
204
202
201
226
231
233
234
228
187
229
200
235
224
225
214
237
212
244
248
208
247
241
252
238
257
256
193
243
207
215
227
223
249
245
259
261
236
232
264
190
253
63
267
263
271
270
213
269
268
278
279
262
254
239
266
250
265
179
275
251
199
242
284
255
289
258
283
285
290
282
293
260
286
287
273
272
280
276
240
230
297
296
211
292
294
301
303
307
288
306
310
302
295
281
48
317
316
291
312
304
299
314
324
277
315
313
308
318
328
321
329
327
309
334
333
323
305
311
325
330
336
337
298
300
331
338
332
322
341
344
335
347
351
352
340
342
355
319
348
356
343
346
274
359
357
358
362
339
363
354
361
349
353
370
366
373
371
372
360
367
364
379
368
374
369
383
382
378
376
384
377
183
387
380
395
390
394
375
392
399
400
388
385
406
391
404
389
386
401
320
398
409
413
402
410
414
381
408
417
405
403
412
419
420
411
421
428
430
422
415
434
418
439
435
365
407
443
432
444
446
442
425
429
423
326
438
350
450
436
449
397
427
424
445
393
452
451
457
447
437
431
433
458
462
456
460
448
461
465
466
470
468
469
464
0
1
4
7
3
12
11
17
8
20
22
16
26
31
23
5
15
30
35
33
29
24
39
42
38
40
46
44
6
37
56
32
49
10
41
45
47
25
34
43
36
62
2
21
52
14
55
60
64
68
69
66
72
74
67
80
70
82
76
73
57
54
79
71
91
83
27
81
50
75
58
97
96
89
77
84
94
28
87
51
65
88
104
117
105
102
93
110
90
85
78
116
123
98
101
120
122
18
114
95
119
118
13
107
53
59
133
115
126
134
128
136
127
131
129
19
145
143
106
152
103
155
144
148
147
140
151
139
130
137
166
154
161
158
156
100
160
135
159
121
149
142
172
167
163
138
141
177
176
125
169
99
157
186
108
132
188
171
184
113
185
195
178
164
162
191
192
196
111
181
112
198
86
92
170
150
209
203
189
180
206
205
165
216
221
168
174
182
218
197
210
219
217
175
222
124
)


// ************************************************************************* //
