/*--------------------------------*- C++ -*----------------------------------*\
  =========                 |
  \\      /  F ield         | OpenFOAM: The Open Source CFD Toolbox
   \\    /   O peration     | Website:  https://openfoam.org
    \\  /    A nd           | Version:  7
     \\/     M anipulation  |
\*---------------------------------------------------------------------------*/
FoamFile
{
    version     2.0;
    format      ascii;
    class       Cloud<passiveParticle>;
    location    "0.1175/lagrangian/reactingCloud1";
    object      positions;
}
// * * * * * * * * * * * * * * * * * * * * * * * * * * * * * * * * * * * * * //

738
(
(0.0470602 0.0406659 0.43596 0.476314) 46109 91538 2
(0.528463 0.190408 0.0457078 0.235421) 46244 91808 2
(0.817716 0.0913016 0.019933 0.0710495) 46152 91626 1
(0.428481 0.287143 0.242597 0.041779) 46242 91891 1
(0.146899 0.445587 0.394701 0.0128137) 46148 91703 2
(0.00746295 0.528906 0.00942949 0.454202) 46191 91701 2
(0.494104 0.259037 0.149358 0.0975015) 46194 91795 1
(0.41509 0.297273 0.0709849 0.216652) 46237 91793 1
(0.213038 0.393754 0.228214 0.164994) 46284 91890 1
(0.0997809 0.484306 0.138491 0.277422) 46233 91873 1
(0.493964 0.257105 0.165306 0.0836243) 46284 91975 1
(0.688622 0.155773 0.114444 0.041161) 46278 91878 1
(0.390118 0.305194 0.129171 0.175516) 46327 91976 1
(0.316187 0.372831 0.0241887 0.286794) 46322 92051 1
(0.355615 0.0700208 0.257764 0.316601) 46411 92141 2
(0.366832 0.317064 0.0603481 0.255756) 46411 92144 1
(0.783192 0.074068 0.108566 0.0341736) 46460 92242 2
(0.00561835 0.51073 0.0382319 0.44542) 46507 92421 1
(0.227906 0.386628 0.314633 0.0708334) 46456 92232 1
(0.544016 0.227966 0.00629725 0.221721) 46457 92234 1
(0.452862 0.288102 0.00619956 0.252836) 46500 92319 2
(0.188582 0.418114 0.305503 0.0878012) 46593 92505 1
(0.703385 0.0142949 0.147885 0.134435) 46595 92597 2
(0.426627 0.286641 0.197424 0.0893081) 46544 92410 1
(0.420638 0.289747 0.251148 0.0384672) 46544 92410 1
(0.0330174 0.224555 0.27371 0.468717) 46589 92497 2
(0.20302 0.167186 0.39821 0.231585) 46588 92498 2
(0.0299037 0.4494 0.484202 0.0364943) 46627 92576 2
(0.178764 0.346751 0.0778416 0.396644) 46681 92681 2
(0.317942 0.220416 0.130176 0.331466) 46680 92679 2
(0.410175 0.0258469 0.269178 0.2948) 46680 92680 2
(0.519732 0.1406 0.239905 0.0997633) 46677 92676 2
(0.804507 0.0570491 0.0931658 0.0452779) 46675 92757 2
(0.115049 0.344193 0.115872 0.424886) 46723 92765 2
(0.333254 0.240234 0.103433 0.323078) 46768 92855 2
(0.637277 0.144161 0.181054 0.037508) 46816 92954 2
(0.119059 0.341298 0.440061 0.0995815) 46766 92854 2
(0.554028 0.119446 0.103743 0.222782) 46759 92838 2
(0.727396 0.142864 0.0612476 0.0684916) 46763 92933 1
(0.273249 0.466494 0.260257 1.54506e-10) 46800 144206 1
(0.949261 0.00817158 0.0172099 0.0253577) 46845 93010 2
(0.209849 0.0302442 0.393185 0.366722) 46942 93291 2
(0.221472 0.139974 0.249625 0.388929) 46986 93292 2
(0.405581 0.311797 0.148675 0.133946) 46982 93371 1
(0.0918687 0.472189 0.194359 0.241583) 46985 93377 1
(0.210273 0.405142 0.13521 0.249375) 47029 93377 1
(0.486461 0.256843 0.209007 0.0476894) 47113 93548 1
(0.473521 0.260073 0.24813 0.0182759) 47118 93643 2
(0.268244 0.368731 0.252744 0.110281) 47168 93743 1
(0.577314 0.211203 0.000309109 0.211175) 47167 93654 1
(0.305042 0.35379 0.205649 0.135519) 47255 93829 1
(0.722857 0.139766 0.116925 0.0204527) 47252 93911 1
(0.131317 0.406851 0.0639777 0.397855) 47290 93899 2
(0.214551 0.409373 0.292072 0.0840042) 47295 93909 1
(0.444778 0.181022 0.27733 0.0968709) 47296 93914 2
(0.291231 0.268754 0.097844 0.342171) 47340 93999 2
(0.435796 0.295426 0.0527624 0.216016) 47374 94067 1
(0.454435 0.278176 0.211846 0.0555429) 47432 94183 1
(0.134773 0.218769 0.214174 0.432283) 47471 94262 2
(0.466067 0.13783 0.266836 0.129267) 47473 94268 2
(0.275627 0.362363 0.0979091 0.264101) 47472 94266 1
(0.0582481 0.470882 0.313831 0.157039) 47518 94358 1
(0.157214 0.343585 0.0792735 0.419928) 3380 96655 1
(1.91764e-05 0.269432 0.232182 0.498367) 3440 96652 1
(0.148459 0.42437 0.127315 0.299856) 3441 6688 1
(0.062089 0.280824 0.476329 0.180757) 3300 6450 2
(0.558986 0.219457 0.199658 0.0218981) 3432 6669 1
(0.333806 0.332778 0.272019 0.0613974) 3418 6644 1
(0.0291316 0.113291 0.48603 0.371547) 3409 6626 2
(0.0385872 0.368729 0.11008 0.482604) 3389 6585 2
(0.714941 0.131902 0.127529 0.0256281) 3374 6555 1
(0.369812 0.314002 0.0458537 0.270332) 3040 5904 1
(0.435554 0.0562543 0.22601 0.282182) 2940 96677 1
(0.616958 0.191322 0.111376 0.0803439) 3080 5984 1
(0.105381 0.316814 0.448776 0.12903) 3309 6431 2
(0.894604 0.0524994 0.0446739 0.0082231) 3298 6408 1
(0.530918 0.229831 0.160137 0.0791137) 3283 6377 1
(0.21833 0.235482 0.145542 0.400647) 3267 6346 2
(0.0951654 0.0406916 0.411555 0.452588) 3254 6322 2
(0.263363 0.19297 0.369096 0.17457) 3232 6281 2
(0.250926 0.294192 0.0705384 0.384343) 3224 6262 2
(0.13791 0.393283 0.0226363 0.446171) 3206 6227 2
(0.52099 0.234484 0.140595 0.103931) 3186 6188 1
(0.238209 0.380198 0.181866 0.199727) 3162 6144 1
(0.938485 0.0307535 0.00113338 0.029628) 3164 6146 1
(0.259433 0.366773 0.247412 0.126382) 3142 6141 1
(0.807124 0.0723601 0.0994528 0.0210627) 3127 6112 2
(0.0944799 0.45197 0.417556 0.0359936) 2740 5358 1
(0.00874608 0.490365 0.300926 0.199963) 3081 6022 1
(0.913353 0.0421587 0.0419416 0.00254717) 3082 5985 1
(0.0889635 0.0346562 0.420775 0.455605) 3070 5963 2
(0.687643 0.156069 0.152794 0.00349327) 3044 5950 1
(0.403603 0.297779 0.204378 0.0942401) 3021 5867 1
(0.546018 0.226686 0.167509 0.0597871) 3010 5846 1
(0.341494 0.326633 0.232327 0.0995457) 2981 5827 1
(0.162475 0.0689758 0.346651 0.421898) 2988 5802 2
(0.17213 0.172714 0.233371 0.421785) 2968 5763 2
(0.666598 0.125835 0.166838 0.0407281) 2944 5719 2
(0.38523 0.18289 0.307555 0.124326) 2900 5633 2
(0.496213 0.251871 0.212695 0.0392206) 2911 5655 1
(0.143578 0.386914 0.440302 0.0292063) 2883 5636 2
(0.169788 0.403597 0.414312 0.0123027) 2882 5595 1
(0.113212 0.155482 0.287901 0.443406) 2872 5577 2
(0.347639 0.059349 0.326181 0.266831) 2847 5530 2
(0.0756341 0.462183 0.43451 0.0276733) 2833 5501 1
(0.621398 0.178268 0.195668 0.00466633) 2805 5484 2
(0.191572 0.363793 0.0404234 0.404212) 2795 5465 1
(0.147558 0.419248 0.251021 0.182173) 2782 5400 1
(0.635143 0.146071 0.0311404 0.187645) 2765 5367 2
(0.540663 0.149803 0.0798652 0.229669) 2744 5327 2
(0.803158 0.0984212 0.0802236 0.0181977) 2721 5284 1
(0.385199 0.3028 0.146396 0.165605) 2702 5283 1
(0.0459961 0.111305 0.48048 0.362219) 2683 5246 2
(0.74731 0.049189 0.0771558 0.126345) 2696 5234 2
(0.151305 0.424347 0.0132653 0.411082) 2661 5167 1
(0.10744 0.44628 0.370023 0.0762565) 2648 5142 1
(0.0350565 0.0538266 0.428645 0.482472) 2654 5152 2
(0.515413 0.242293 0.150745 0.0915486) 2600 5048 1
(0.862107 0.0689467 0.0290001 0.0399466) 2602 5052 1
(0.124856 0.437572 0.277134 0.160437) 2581 5009 1
(0.227848 0.377451 0.101437 0.293265) 2563 5012 1
(0.059467 0.220644 0.249623 0.470267) 2567 4982 2
(0.655773 0.172113 0.112908 0.0592059) 2552 4953 1
(0.617479 0.190435 0.167311 0.0247757) 2525 4938 1
(0.466013 0.192894 0.0690232 0.27207) 2500 4851 2
(0.25011 0.246382 0.381429 0.122079) 2480 4851 2
(0.893089 0.0534555 0.0444016 0.00905388) 2485 4822 1
(0.0681585 0.465921 0.216102 0.249819) 2461 4775 1
(0.0871947 0.449155 0.275427 0.188224) 2461 4774 1
(0.758937 0.0885867 0.12778 0.0246966) 2458 4769 1
(0.141582 0.429209 0.173009 0.256199) 2425 4705 1
(0.0713069 0.0334826 0.464347 0.430864) 2425 4707 2
(0.506435 0.252362 0.0403473 0.200856) 2401 97387 1
(0.705062 0.143814 0.0098957 0.141228) 4081 7972 1
(0.0373613 0.480299 0.445943 0.0363965) 4021 7855 1
(0.50017 0.119564 0.249571 0.130694) 3960 7700 2
(0.400034 0.29782 0.222035 0.0801106) 4061 7933 1
(0.52072 0.100336 0.242539 0.136405) 4062 7935 2
(0.489463 0.255536 0.148068 0.106933) 4085 7944 1
(0.990649 0.000396551 0.00430971 0.00464485) 4002 7779 2
(0.217225 0.380207 0.0252731 0.377295) 4043 7898 1
(0.0527423 0.128088 0.336392 0.482778) 4112 7994 2
(0.406679 0.0558682 0.296523 0.240929) 4048 7872 2
(0.394616 0.160738 0.316087 0.128558) 4073 7957 2
(0.287578 0.346045 0.304989 0.0613886) 4025 7824 1
(0.13673 0.427968 0.217651 0.217651) 4079 7930 1
(0.272841 0.317042 0.36282 0.0472969) 3963 7706 2
(0.77269 0.0545639 0.056611 0.116135) 3988 7752 2
(0.536027 0.0676928 0.234404 0.161876) 3965 7746 2
(0.587067 0.203523 0.121115 0.0882943) 3925 7668 1
(0.470158 0.159626 0.344734 0.0254822) 3978 7772 2
(0.623022 0.183066 0.173536 0.0203757) 3904 7588 1
(0.0379784 0.47889 0.00324186 0.47989) 3885 7552 2
(0.305498 0.271277 0.366628 0.0565966) 3912 7643 2
(0.0508747 0.334242 0.47378 0.141103) 3885 7554 2
(0.675375 0.151227 0.155189 0.0182084) 3913 7606 1
(0.529666 0.226746 0.151572 0.0920155) 3891 7563 1
(0.500707 0.204067 0.0392028 0.256024) 3803 7391 2
(0.319265 0.340717 0.118145 0.221873) 3762 7314 1
(0.190701 0.397804 0.219046 0.192448) 3784 7354 1
(0.305278 0.348003 0.29778 0.048938) 3813 7412 1
(0.843038 0.0765857 0.0273042 0.0530725) 3786 7397 1
(0.841813 0.0169846 0.0621269 0.0790756) 3744 7277 2
(0.771112 0.00367393 0.110747 0.114467) 3701 7192 2
(0.10563 0.318739 0.459444 0.116187) 3746 7319 2
(0.361903 0.185398 0.318852 0.133847) 3749 7289 2
(0.269628 0.365415 0.148795 0.216161) 3747 7285 1
(0.312628 0.343891 0.319117 0.0243636) 3735 7260 1
(0.703578 0.088917 0.15099 0.0565154) 3683 7196 2
(0.021734 0.425338 0.382769 0.170159) 3737 7263 1
(0.402507 0.298679 0.170328 0.128486) 3664 7123 1
(0.617495 0.18985 0.0476843 0.144971) 3643 7079 1
(0.31542 0.300801 0.359001 0.0247778) 3650 7132 2
(0.0575212 0.185293 0.280156 0.47703) 3643 7079 2
(0.597314 0.172957 0.016032 0.213697) 3652 7097 2
(0.413376 0.292986 0.251517 0.0421209) 3630 7055 1
(0.246242 0.129019 0.247642 0.377097) 3614 7024 2
(0.181079 0.408842 0.043036 0.367043) 3607 7012 1
(0.749401 0.122559 0.0493234 0.0787161) 3591 6978 1
(0.162667 0.0842049 0.329784 0.423345) 3570 6937 2
(0.684593 0.157533 0.0891465 0.0687268) 3566 6932 1
(0.787316 0.0905718 0.110871 0.0112418) 3529 6896 2
(0.40615 0.0204538 0.275741 0.297655) 3545 6888 2
(0.118468 0.271525 0.441794 0.168213) 3507 6817 2
(0.218613 0.390022 0.145601 0.245765) 3470 6743 1
(0.19735 0.394402 0.096924 0.311324) 3473 6748 1
(0.71876 0.117781 0.0174853 0.145973) 3448 6699 2
(0.19089 0.26803 0.129223 0.411857) 5082 9896 2
(0.269803 0.184086 0.365368 0.180743) 5144 10023 2
(0.923486 0.0387376 0.000208721 0.0375677) 5125 9985 1
(0.68786 0.154008 0.0595375 0.0985946) 5125 9982 1
(0.43538 0.150339 0.286827 0.127454) 5063 9898 2
(0.153308 0.423057 0.236064 0.187571) 5064 9863 1
(0.453119 0.111122 0.272664 0.163094) 4840 9416 2
(0.0104918 0.495012 0.476312 0.0181846) 5031 9795 1
(0.144169 0.415886 0.0229864 0.416959) 4903 9578 1
(0.946522 0.0261529 0.00175097 0.0255739) 4760 9297 1
(0.00396139 0.0519427 0.443015 0.501081) 4990 9712 2
(0.569957 0.214831 0.0700679 0.145144) 4946 9627 1
(0.441306 0.0793453 0.199797 0.279552) 4925 9583 2
(0.468974 0.265454 0.0241621 0.24141) 4883 9499 1
(0.300177 0.347761 0.0761874 0.275875) 4842 9417 1
(0.0786441 0.0950825 0.362843 0.463431) 4862 9456 2
(0.349322 0.299364 0.325183 0.0261314) 4930 9595 2
(0.58228 0.202442 0.127482 0.0877959) 4933 9638 1
(0.193684 0.36714 0.0384042 0.400771) 4766 9270 2
(0.250712 0.370754 0.24266 0.135873) 4742 9261 1
(0.522419 0.238982 0.0319289 0.20667) 4664 9071 1
(0.338907 0.173179 0.147747 0.340168) 4690 9121 2
(0.0943343 0.447668 0.134293 0.323705) 4647 9037 1
(0.393414 0.224918 0.0796046 0.302064) 4562 8872 2
(0.205991 0.398701 0.0782153 0.317093) 4541 8833 1
(0.725991 0.0635995 0.136652 0.0737578) 4584 8917 2
(0.162682 0.113908 0.422042 0.301368) 4522 8832 2
(0.00162627 0.34762 0.497381 0.153374) 4522 8796 2
(0.0856151 0.457225 0.00608084 0.451079) 4547 8843 1
(0.145609 0.117226 0.431103 0.306062) 4504 8797 2
(0.834044 0.0453013 0.0379164 0.0827383) 4527 8804 2
(0.0926637 0.454417 0.148526 0.304394) 4443 8640 1
(0.23023 0.351284 0.403215 0.0152714) 4514 8778 1
(0.58469 0.201358 0.1889 0.0250516) 4465 8682 1
(0.0383023 0.193512 0.479869 0.288317) 4467 8689 2
(0.128478 0.141433 0.295044 0.435045) 4469 8691 2
(0.0217518 0.359536 0.487402 0.13131) 4383 8525 2
(0.628355 0.152962 0.185141 0.0335416) 4321 8404 2
(0.794303 0.100135 0.0759671 0.0295944) 4386 8528 1
(0.51116 0.0154388 0.244971 0.22843) 4345 8487 2
(0.428839 0.279153 0.215998 0.0760106) 4343 8444 1
(0.143408 0.429362 0.200934 0.226296) 4353 8467 1
(0.0398282 0.481874 0.394158 0.0841401) 4285 8332 1
(0.864799 0.0408662 0.0269178 0.0674166) 4286 8334 2
(0.683821 0.153903 0.100472 0.0618037) 4288 8337 1
(0.421151 0.190262 0.100008 0.28858) 4268 8299 2
(0.674195 0.150016 0.10309 0.0726988) 4276 8314 1
(0.189566 0.406205 0.178553 0.225676) 4227 8221 1
(0.203347 0.399786 0.337369 0.0594969) 4203 8172 1
(0.453318 0.139388 0.278319 0.128975) 4205 8214 2
(0.648001 0.176649 0.150095 0.0252545) 4214 8194 1
(0.481115 0.0146718 0.244834 0.25938) 4209 8184 2
(0.632266 0.183893 0.173475 0.0103656) 4126 8024 1
(0.440184 0.0403578 0.239652 0.279806) 4130 8030 2
(0.0478392 0.206175 0.270425 0.47556) 4135 8040 2
(0.811331 0.0943492 0.0819106 0.0124087) 47606 94534 1
(0.108797 0.270822 0.429683 0.190698) 47558 94523 2
(0.27155 0.364145 0.239099 0.125206) 47604 94530 1
(0.214988 0.3929 8.33569e-05 0.392029) 47599 94518 2
(0.320467 0.339972 0.00593703 0.333624) 47645 94609 1
(0.882596 0.058769 0.0562683 0.00236635) 47643 94606 1
(0.609525 0.188928 0.194813 0.00673302) 47916 95154 2
(0.935593 0.0135401 0.032282 0.0185847) 47782 94886 2
(0.361112 0.173105 0.146078 0.319705) 47737 94794 2
(0.790794 0.10686 0.051856 0.0504904) 47734 94875 1
(0.0829501 0.177346 0.458111 0.281593) 47867 95056 2
(0.571116 0.214804 0.0494615 0.164618) 47824 94968 1
(0.131552 0.0453895 0.432439 0.39062) 47869 95145 2
(0.111676 0.444686 0.0642252 0.379413) 47909 95140 1
(0.223923 0.153436 0.239964 0.382677) 48002 95323 2
(0.179556 0.104546 0.403295 0.312603) 47953 95313 2
(0.819223 0.090423 0.0370903 0.0532637) 47997 95314 1
(0.182247 0.415201 0.0573898 0.345162) 48082 95483 1
(0.0790101 0.22059 0.248228 0.452171) 48177 95673 2
(0.811132 0.0944542 0.0756183 0.018796) 48132 95586 1
(0.833244 0.0834415 0.0522806 0.0310344) 48175 95670 1
(0.252669 0.373293 0.369818 0.00422077) 48268 95858 1
(0.572716 0.138595 0.213534 0.0751558) 48261 95844 2
(0.524163 0.258688 0.00512173 0.212028) 48259 95925 1
(0.128484 0.435508 0.242759 0.19325) 48356 96032 1
(0.181034 0.262917 0.15566 0.400388) 48398 96115 2
(0.572906 0.21377 0.0397328 0.173591) 48398 96118 1
(0.308252 0.350687 0.255713 0.0853471) 48395 96197 1
(0.381461 0.309308 0.249615 0.0596158) 48440 96202 1
(0.0780361 0.461153 0.00208768 0.458723) 48526 96386 1
(0.350351 0.324666 0.284011 0.0409717) 48527 96389 1
(0.762838 0.0839827 0.123453 0.0297262) 5388 10548 2
(0.113365 0.404995 0.353865 0.127775) 5335 10402 1
(0.541827 0.21724 0.229406 0.0115275) 5287 10309 2
(0.127323 0.228359 0.436508 0.207811) 5288 10311 2
(0.695882 0.14809 0.0223955 0.133633) 5264 10300 1
(0.315104 0.342659 0.0433647 0.298872) 5276 10285 1
(0.208559 0.391192 0.117179 0.28307) 5246 10224 1
(0.23505 0.382772 0.303426 0.0787516) 43347 86016 1
(0.239635 0.0317362 0.37963 0.349) 43385 86177 2
(0.203731 0.0386158 0.359584 0.398069) 43562 86444 2
(0.416105 0.0901273 0.289929 0.203839) 43648 86703 2
(0.355229 0.0403178 0.321186 0.283267) 43602 86611 2
(0.0290221 0.489643 0.23707 0.244265) 43738 86883 1
(0.0307608 0.498264 0.238358 0.232617) 43598 86603 1
(0.389097 0.047918 0.257887 0.305098) 43595 86510 2
(0.034768 0.374338 0.462838 0.128057) 43642 86691 2
(0.334161 0.28658 0.332698 0.0465609) 43590 86502 2
(0.112888 0.444815 0.0705211 0.371776) 43640 86602 1
(0.280829 0.181789 0.341924 0.195458) 43593 86593 2
(0.188113 0.407203 0.335875 0.0688089) 43593 86506 1
(0.261841 0.09237 0.36803 0.277759) 43590 86502 2
(0.556725 0.0563816 0.221503 0.16539) 43880 87082 2
(0.295072 0.352984 0.0949689 0.256975) 43688 86696 1
(0.758768 0.0881222 0.0328101 0.120299) 43965 87250 2
(0.496759 0.251621 0.106506 0.145115) 43638 86596 1
(0.378503 0.271089 0.275236 0.0751716) 43635 86677 2
(0.501277 0.0785844 0.249164 0.170975) 43680 86682 2
(0.928312 0.00213852 0.0338152 0.0357341) 43820 86960 2
(0.299653 0.683179 0.00819269 0.00897469) 43676 86672 1
(0.0580566 0.474757 0.0750569 0.39213) 43775 86869 1
(0.170417 0.459679 0.128521 0.241383) 43635 86677 1
(0.839378 0.0499422 0.0802546 0.0304248) 43820 86962 2
(0.539322 0.145238 0.159063 0.156377) 43676 86672 1
(0.0997277 0.0742757 0.43101 0.394987) 43677 86761 2
(0.0570032 0.140739 0.331148 0.47111) 43772 86864 2
(0.139555 0.431372 0.101675 0.327398) 43726 86774 1
(0.470062 0.264899 0.0123532 0.252686) 43774 86868 1
(0.213263 0.0202841 0.374607 0.391846) 43815 86949 2
(0.578077 0.066697 0.181072 0.174154) 43764 86848 1
(0.322636 0.325643 0.0148263 0.336895) 43766 86852 2
(0.271888 0.380569 0.161082 0.186461) 43771 86949 1
(0.432174 0.284701 0.0345936 0.248531) 43955 87232 1
(0.252343 0.230232 0.364554 0.152872) 43864 87135 2
(0.44004 0.255886 0.279124 0.0249508) 43863 87048 2
(0.123405 0.451253 0.281696 0.143645) 43815 87037 1
(0.821712 0.0555244 0.085927 0.0368365) 43815 87037 2
(0.370566 0.326944 0.0657782 0.236712) 43863 87133 1
(0.0186227 0.404323 0.0864849 0.49057) 43811 86942 2
(0.0526609 0.474829 0.325988 0.146522) 43812 86944 1
(0.201647 0.349489 0.398016 0.050848) 43811 86944 2
(0.260059 0.3708 0.127057 0.242084) 43861 87044 1
(0.282847 0.362869 0.072759 0.281525) 43906 87131 1
(0.113494 0.0804284 0.44046 0.365617) 43953 87313 2
(0.512565 0.074184 0.243251 0.170001) 43854 87030 2
(0.677926 0.127777 0.154232 0.0400656) 43906 87219 2
(0.0407916 0.401248 0.0801878 0.477773) 43903 87126 2
(0.0551523 0.210123 0.472103 0.262621) 44132 87586 2
(0.0971158 0.474221 0.222826 0.205837) 43902 87123 1
(0.413379 0.328549 0.12855 0.129521) 43896 87112 1
(0.342539 0.112283 0.217039 0.328139) 43900 87120 2
(0.0599512 0.330249 0.140043 0.469757) 43901 87122 2
(3.04663e-09 0.580307 0.419693 1.10251e-09) 43896 141302 1
(0.0115189 0.541098 0.0578086 0.389575) 43901 87209 1
(0.0994333 0.450474 0.445227 0.00486603) 43949 87220 1
(0.815803 0.0272017 0.092218 0.0647776) 43942 87206 2
(0.34721 0.327156 0.174265 0.151368) 43943 87206 1
(0.719347 0.140635 0.0451774 0.09484) 43993 87308 1
(0.205342 0.0306413 0.366753 0.397264) 44040 87400 2
(0.499818 0.104999 0.249792 0.145391) 44084 87490 2
(0.0422714 0.50154 0.0853093 0.37088) 43986 87291 1
(0.784202 0.0905497 0.107736 0.0175119) 43990 87302 2
(0.349245 0.279953 0.0621538 0.308648) 44037 87393 2
(0.24702 0.135365 0.245961 0.371655) 44129 87577 2
(0.042961 0.478888 0.122936 0.355215) 43990 87300 1
(0.42412 0.111054 0.182469 0.282358) 44082 87483 2
(0.86985 0.0650252 0.0454394 0.0196849) 44129 87580 1
(0.517077 0.0838408 0.241256 0.157826) 44084 87490 2
(0.269959 0.171386 0.19437 0.364284) 44035 87390 2
(0.395271 0.246006 0.0694751 0.289248) 44082 87483 2
(0.642519 0.116872 0.178357 0.0622523) 44029 87380 2
(0.0845976 0.458742 0.394235 0.062425) 44083 87486 1
(0.164399 0.288123 0.379809 0.167669) 44031 87469 2
(0.296163 0.1396 0.351474 0.212764) 44079 87480 2
(0.0168732 0.256849 0.259583 0.466694) 44077 87473 2
(1.56536e-07 0.967466 0.0325338 4.3329e-08) 44072 141478 1
(0.437015 0.0851867 0.280912 0.196887) 44077 87476 2
(0.858597 0.0630453 0.00790851 0.0704487) 44127 87574 2
(0.219817 0.391053 0.159381 0.229749) 44078 87478 1
(0.44188 0.206985 0.263434 0.0877012) 44079 87565 2
(0.732447 0.000522158 0.133291 0.133739) 44126 87572 2
(0.521929 0.239653 0.0268901 0.211528) 44126 87574 1
(0.016854 0.492413 0.443064 0.0476681) 44124 87568 1
(0.333392 0.125127 0.212143 0.329337) 44218 87755 2
(0.451865 0.207721 0.0671324 0.273282) 44124 87568 2
(0.180494 0.409936 0.352705 0.0568653) 44315 87952 1
(0.310341 0.295001 0.0783839 0.316274) 44121 87561 2
(0.625361 0.0645982 0.182979 0.127062) 44124 87655 2
(0.808861 0.0909552 0.0882185 0.0119654) 44123 87653 2
(0.0331183 0.148221 0.483014 0.335647) 44168 87658 2
(0.190544 0.392737 0.403492 0.0132267) 44167 87656 2
(0.649397 0.172369 0.0196932 0.15854) 44165 87649 2
(0.795053 0.0260705 0.0778107 0.101066) 44212 87743 2
(0.038655 0.291957 0.481104 0.188285) 44206 87734 2
(0.237332 0.386362 0.29475 0.0815562) 44214 87835 1
(0.829467 0.0855395 0.0842949 0.000698789) 44210 87740 1
(0.592436 0.0589391 0.197672 0.150953) 44208 87823 2
(0.517014 0.114286 0.233709 0.134991) 44256 87919 2
(0.373115 0.319341 0.236355 0.0711892) 44255 87917 1
(0.157295 0.178837 0.662942 0.000927121) 44248 141654 1
(0.0185317 0.491494 0.184166 0.305808) 44349 88020 1
(0.113453 0.19637 0.248086 0.442091) 44296 87912 2
(0.291982 0.248751 0.121535 0.337733) 44300 87919 2
(0.0895994 0.278402 0.177267 0.454731) 44396 88112 2
(0.330496 0.334253 0.0454747 0.289776) 44298 87916 1
(0.431267 0.301922 0.243045 0.023766) 44345 88009 1
(0.553867 0.224154 0.173982 0.0479966) 44395 88197 1
(0.167258 0.260054 0.415662 0.157026) 44344 88010 2
(0.848885 0.0645651 0.075346 0.0112041) 44341 88004 2
(0.0176673 0.466428 0.0440663 0.471838) 44392 88103 2
(0.449347 0.361459 0.183912 0.00528177) 44337 88081 2
(0.198716 0.267778 0.148484 0.385023) 44389 88097 2
(0.411689 0.156572 0.148138 0.283601) 44388 88095 2
(0.136197 0.440082 0.0840141 0.339707) 44387 88093 1
(0.321792 0.381765 0.294983 0.00145997) 44384 88087 1
(0.808434 0.101564 0.0713557 0.0186463) 44388 88095 1
(0.012865 0.495366 0.434997 0.0567718) 44384 88088 1
(0.554063 0.0781228 0.149361 0.218453) 44433 88185 2
(0.0369337 0.484182 0.457416 0.0214683) 44429 88178 1
(0.0440987 0.478763 0.24316 0.233978) 44430 88180 1
(0.346355 0.249962 0.307175 0.0965081) 44431 88269 2
(0.262278 0.138237 0.360424 0.239061) 44433 88273 2
(0.292991 0.379006 0.194445 0.133558) 44427 88261 1
(0.00666073 0.118354 0.490314 0.384672) 44435 88277 2
(0.197949 0.400921 0.0129979 0.388132) 44430 88180 1
(0.103716 0.0013279 0.446862 0.448094) 44478 88276 2
(0.245876 0.419113 0.00463632 0.330374) 44472 88263 2
(0.3224 0.0399835 0.338654 0.298962) 44473 88268 2
(0.0387726 0.482163 0.0409252 0.438139) 44477 88276 1
(0.292986 0.192053 0.16543 0.349531) 44573 88465 2
(0.144141 0.341989 0.41564 0.0982291) 44569 88545 2
(0.0330742 0.15054 0.48336 0.333026) 44519 88360 2
(0.12048 0.10985 0.335839 0.433831) 44566 88451 2
(0.616919 0.00830253 0.183976 0.190802) 44610 88539 2
(0.0912813 0.0177248 0.452925 0.438069) 44521 88449 2
(0.0394385 0.481139 0.310636 0.168786) 44517 88354 1
(0.304238 0.117906 0.230083 0.347773) 44610 88540 2
(0.176294 0.465739 0.0550379 0.302929) 44515 88437 1
(0.194709 0.380572 0.0547104 0.370008) 44606 88531 2
(0.720652 0.0924393 0.139321 0.0475881) 44605 88532 2
(0.000520307 0.500586 0.0115544 0.487339) 44652 88623 1
(0.380652 0.230118 0.298547 0.0906832) 44699 88805 2
(0.850242 0.0750574 0.0114661 0.0632342) 44652 88626 1
(0.438521 0.283938 0.234095 0.043446) 44740 88887 1
(0.228668 0.403243 0.256468 0.111621) 44697 88713 1
(0.106369 0.46366 0.162473 0.267497) 44650 88619 1
(0.0752355 0.104962 0.456775 0.363028) 44743 88893 2
(0.123531 0.314342 0.421109 0.141018) 44698 88803 2
(0.588432 0.214789 0.12396 0.0728191) 44785 88889 1
(0.434685 0.0714669 0.278323 0.215526) 44697 88801 2
(0.0527672 0.473375 0.288135 0.185723) 44787 88896 1
(0.0412694 0.480467 0.0803653 0.397898) 44741 88804 1
(0.00197101 0.510726 0.360899 0.126404) 44739 88885 1
(0.587722 0.205384 0.186264 0.0206294) 44784 88888 1
(0.0165871 0.507292 0.190159 0.285961) 44740 88799 1
(0.486139 0.227117 0.255575 0.0311683) 44740 88802 2
(0.208708 0.396301 0.243876 0.151116) 44787 88894 1
(0.78033 0.00502436 0.109864 0.104782) 44876 89074 2
(0.335685 0.336171 0.067332 0.260812) 44830 88979 1
(0.519141 0.240599 0.108157 0.132102) 44783 88886 1
(0.103775 0.130446 0.447803 0.317976) 44874 89070 2
(0.174032 0.332465 0.375852 0.117652) 44780 88967 2
(0.336193 0.285978 0.331532 0.046297) 44782 88886 2
(0.0228134 0.162215 0.488848 0.326123) 44828 88978 2
(0.0605027 0.242583 0.459423 0.237491) 44920 89247 2
(0.728665 0.122365 0.135587 0.0133825) 44919 89160 2
(0.363855 0.317946 0.0639222 0.254277) 44876 89072 1
(0.459581 0.267814 0.249676 0.0229284) 44871 89149 2
(0.301652 0.356569 0.101303 0.240476) 44962 89243 1
(0.114396 0.443225 0.3058 0.136579) 44917 89156 1
(0.148371 0.243494 0.42486 0.183275) 44914 89150 2
(0.383507 0.0189703 0.308193 0.28933) 44909 89140 2
(0.389928 0.0720149 0.233484 0.304574) 44914 89148 2
(0.139724 0.394372 0.0368774 0.429026) 44963 89246 2
(0.0217618 0.318879 0.191879 0.46748) 45004 89327 2
(0.877481 0.00352194 0.058172 0.0608253) 44956 89232 2
(0.464739 0.267835 0.101414 0.166012) 45007 89334 1
(0.333594 0.221641 0.112213 0.332552) 45051 89422 2
(0.304934 0.00166293 0.345951 0.347452) 45049 89417 2
(0.28049 0.306724 0.0766985 0.336088) 45047 89413 2
(0.468026 0.190643 0.0759224 0.265409) 45045 89410 2
(0.00976842 0.496258 0.134904 0.359069) 45045 89412 1
(0.215011 0.180135 0.392375 0.212479) 45046 89414 2
(0.506356 0.0110638 0.246747 0.235834) 45138 89598 2
(0.24183 0.37982 0.333381 0.0449695) 45094 89508 1
(0.143653 0.0157714 0.413252 0.427323) 45182 89683 2
(0.185315 0.408456 0.372133 0.0340958) 45137 89594 1
(0.388189 0.314338 0.159729 0.137744) 45183 89685 1
(0.69991 0.0735029 0.149854 0.0767332) 45228 89778 2
(0.102361 0.449035 0.0755045 0.373099) 45131 89582 1
(0.323428 0.338615 0.0742919 0.263665) 45183 89686 1
(0.385379 0.012934 0.294947 0.306739) 45180 89680 2
(0.717056 0.0267823 0.141088 0.115074) 45228 89863 2
(0.295481 0.185793 0.167401 0.351324) 45180 89680 2
(0.145338 0.429487 0.406371 0.0188046) 45227 89861 2
(0.394218 0.0720926 0.30149 0.2322) 45325 90057 2
(0.762485 0.121505 0.0338439 0.0821656) 45318 90043 1
(3.96988e-05 0.501225 0.476839 0.0218969) 45224 89768 1
(0.414819 0.0031046 0.289495 0.292582) 45266 89852 2
(0.195988 0.402403 0.211939 0.18967) 45316 89954 1
(0.078454 0.474108 0.161394 0.286043) 45312 89943 1
(0.0914896 0.45538 0.232161 0.22097) 45268 89856 1
(0.30644 0.356873 0.151962 0.184724) 45359 90125 1
(0.222275 0.350126 0.371476 0.056123) 45359 90125 2
(0.816135 0.0182223 0.0738798 0.0917633) 45357 90034 2
(0.0446349 0.4955 0.438748 0.0211179) 45449 90217 1
(0.788525 0.0448755 0.0624673 0.104132) 45449 90217 2
(0.605283 0.00172394 0.19579 0.197204) 45403 90126 2
(0.242632 0.224299 0.378341 0.154728) 45398 90118 2
(0.325465 0.337577 0.0509536 0.286004) 45447 90216 1
(0.12237 0.108852 0.329895 0.438883) 45445 90210 2
(0.468925 0.271011 0.143036 0.117028) 45448 90303 1
(0.723158 0.0586638 0.0799395 0.138238) 45488 90296 2
(0.876413 0.0138205 0.0475007 0.0622661) 45488 90296 2
(0.316639 0.342178 0.321839 0.0193435) 45534 90475 2
(0.180936 0.423347 0.391296 0.00442048) 45536 90479 2
(0.00146379 0.116287 0.398004 0.484245) 45527 90373 2
(0.429833 0.289255 0.0962558 0.184656) 45581 90481 1
(0.232006 0.253877 0.383401 0.130717) 45619 90560 2
(0.00993049 0.495962 0.355346 0.138761) 45620 90560 1
(0.522415 0.237468 0.0755077 0.164609) 45617 90554 1
(0.404595 0.268127 0.0380718 0.289207) 45714 90747 2
(0.184013 0.300685 0.374458 0.140844) 45616 90639 2
(0.34667 0.103444 0.326562 0.223323) 45666 90654 2
(0.433575 0.300566 0.080199 0.18566) 45663 90733 1
(0.0800921 0.0484733 0.459832 0.411603) 45705 90732 2
(0.178607 0.0311148 0.380133 0.410145) 45708 90736 2
(0.630349 0.184595 0.0413376 0.143719) 45710 90740 1
(0.278319 0.361658 0.0698257 0.290198) 45709 90740 1
(0.546115 0.162808 0.21853 0.072547) 45711 90829 2
(0.0644984 0.535267 0.142766 0.257468) 45702 90811 1
(0.43711 0.124548 0.16308 0.275263) 45755 90829 2
(0.628571 0.185033 0.184829 0.00156655) 45754 90828 1
(0.833874 0.0852606 0.0602732 0.0205917) 45750 90907 1
(0.136709 0.224046 0.219067 0.420178) 45799 90917 2
(0.129824 0.44127 0.0831677 0.345739) 45797 90913 1
(0.15769 0.420954 0.394969 0.0263865) 45768 90858 1
(0.0513042 0.482667 0.236557 0.229472) 45846 91011 1
(0.078472 0.460929 0.238274 0.222325) 45799 90920 1
(0.209311 0.395759 0.182148 0.212782) 45799 90920 1
(0.423653 0.288709 0.097644 0.189994) 45797 90916 1
(0.0700923 0.466914 0.0267708 0.436223) 45841 91001 1
(0.665827 0.167892 0.0298412 0.13644) 45840 91000 1
(0.17667 0.411692 0.400607 0.0110313) 45837 90996 1
(0.685196 0.0815608 0.0756964 0.157546) 45890 91100 2
(0.52115 0.118647 0.128316 0.231887) 45884 91087 2
(0.829863 0.0898976 0.0544886 0.0257503) 45882 91083 1
(0.373208 0.313532 0.263287 0.0499728) 45887 91096 1
(0.733022 0.0497227 0.129555 0.0877004) 45883 91173 2
(0.689908 0.157615 0.0242157 0.128261) 45922 91163 2
(0.257075 0.369196 0.35319 0.0205382) 45931 91269 2
(0.190246 0.405652 0.389826 0.0142763) 45931 91269 1
(0.268607 0.178374 0.365366 0.187653) 45974 91270 2
(0.505224 0.257692 0.14188 0.0952035) 45973 91265 1
(0.0620381 0.148129 0.455908 0.333924) 45970 91347 2
(0.654408 0.173086 0.0375274 0.134978) 46015 91352 1
(0.817821 0.091416 0.0022753 0.088488) 46056 91431 1
(0.0766558 0.377628 0.460875 0.0848413) 46059 91440 2
(0.442824 0.279128 0.245199 0.0328488) 46059 91438 1
(0.247293 0.124651 0.369026 0.25903) 46062 91531 2
(6.94817e-10 0.200426 0.799574 8.52136e-09) 42048 139454 1
(0.555773 0.248564 0.194341 0.0013224) 42140 83687 2
(5.53475e-09 1.47287e-09 0.125639 0.874361) 42136 188102 2
(0.0217285 0.351064 0.488038 0.139169) 42183 83688 2
(0.267087 0.467786 0.254444 0.0106838) 42136 139542 1
(0.274588 0.66138 0.0327459 0.0312864) 42136 83680 1
(0.416775 0.22686 0.0951795 0.261186) 42183 83685 2
(6.54247e-09 0.730099 0.269901 1.324e-08) 42180 139586 1
(0.0826153 0.355213 0.104868 0.457304) 42227 83774 2
(0.672993 0.198458 0.059846 0.0687023) 42224 83856 1
(0.16532 0.437684 0.395176 0.00182) 42224 139630 1
(0.464706 0.0934246 0.22012 0.221749) 42224 83768 1
(0.426683 0.290638 0.00507539 0.277603) 42269 83857 1
(9.31039e-09 0.216412 0.783588 7.62538e-08) 42224 139630 1
(0.0549901 0.513748 0.222633 0.208629) 42315 84037 1
(0.220673 0.0262394 0.363012 0.390075) 42455 84230 2
(0.191771 0.339523 0.401588 0.0671175) 42361 84044 2
(0.150903 0.313876 0.424139 0.111082) 42316 83954 2
(0.0459937 0.143529 0.810471 5.59307e-06) 42268 139674 1
(3.26939e-07 0.967753 0.0322462 2.07886e-07) 42312 139718 1