/*--------------------------------*- C++ -*----------------------------------*\
  =========                 |
  \\      /  F ield         | OpenFOAM: The Open Source CFD Toolbox
   \\    /   O peration     | Website:  https://openfoam.org
    \\  /    A nd           | Version:  7
     \\/     M anipulation  |
\*---------------------------------------------------------------------------*/
FoamFile
{
    version     2.0;
    format      ascii;
    class       scalarField;
    location    "0.1175/lagrangian/reactingCloud1";
    object      tTurb;
}
// * * * * * * * * * * * * * * * * * * * * * * * * * * * * * * * * * * * * * //


738
(
0.00010535
0.0001747
0.000691516
0.00010105
0.006245
0.006221
0.00232775
0.00035035
0.0007462
0.006077
0.00163805
0.006053
0.0025582
0.005981
0.005933
0.005909
0.000473
0.0007687
0.005861
3.835e-05
0.005837
0.00094385
0.00024255
0.00469309
0.005765
0.000669
0.005741
0.005621
9.15e-05
0.00080455
3.07e-05
0.000549
0.005597
0.00174974
0.00058235
0.0011137
0.00170203
0.005477
0.005501
0.005429
0.005381
0.00113955
0.0037912
0.005261
0.005309
0.00499305
0.005141
0.000125
0.000731743
0.0004292
0.0003232
0.00157218
0.005021
0.0014775
0.00117168
0.0012898
0.004925
0.00039155
0.00109285
0.00122835
0.00104307
0.00017555
6.37431e-05
0.000493357
0.00058555
0.00053435
0.001565
0.001541
0.001517
0.001493
0.001469
0.000464347
0.00025885
0.00025135
0.001373
0.001349
0.001325
0.001301
0.001277
0.001253
0.001229
0.001205
0.001181
0.001157
0.00115662
0.001133
0.001109
0.000464805
0.001061
0.001037
0.001013
0.000989
0.000965
0.000941
0.000917
0.000893
0.000869
0.000845
0.00024505
0.000797
0.000773
0.000749
0.000725
0.000701
0.000677
0.000653
0.000629
0.000605
0.000581
0.000557
0.000533
0.000509
0.000485
0.000461
0.000437
0.000413
0.000389
0.000365
0.000341
0.000317
0.000293
0.000269
0.000245
0.000221
0.000197
0.000173
0.000149
0.000125
0.000101
7.7e-05
5.3e-05
2.9e-05
5e-06
0.0017685
0.00124485
0.0006302
0.0015545
0.000489798
0.002813
0.0014188
0.00133833
0.002717
0.00266862
0.002669
0.002693
0.002621
0.002645
0.002573
0.002597
0.002525
0.002477
0.002501
0.002453
0.002405
0.002429
0.002381
0.002357
0.002333
0.0003092
0.002261
0.002213
0.002237
0.002189
0.0011677
0.002165
0.002117
0.002141
0.002069
0.002093
0.002045
0.002021
0.001997
0.001949
0.001973
0.001925
0.001901
0.001853
0.001877
0.001829
0.001781
0.001805
0.001733
0.001757
0.001685
0.001637
0.001613
0.001589
0.000186508
0.0004705
0.000206686
0.0002265
0.000173598
0.00040155
0.000212127
0.003893
0.0002782
0.00033566
0.003845
0.003917
6.3e-05
0.0002542
0.0016615
0.000229576
0.003797
0.003773
0.003749
0.0007827
0.003725
0.003557
0.003581
0.00274985
0.000343
0.003605
0.000260141
1.32387e-06
0.003485
0.003509
0.003437
0.003533
0.003293
0.003413
0.003341
0.003317
0.003365
0.00047635
0.003269
0.003245
0.0011192
0.003101
0.003173
0.003125
0.003077
0.003053
0.002957
0.003005
0.003149
0.003029
0.002885
0.002933
0.002861
0.002789
0.002741
0.00117261
0.004877
0.00108905
0.004781
0.0036577
0.004757
0.00020435
0.0009315
0.000922599
0.00353372
0.00044355
0.000960509
0.00110834
0.00039555
0.000823079
0.004589
0.004565
0.004469
0.0007308
0.000738213
0.0004865
0.00078252
0.004421
0.004373
0.00067874
0.000573777
0.000590622
0.000129626
0.000567644
5.955e-05
0.000398012
0.000247
0.004109
0.000261
0.004181
0.000359827
0.004061
0.000257241
0.00165285
0.00400435
0.00545055
0.00278155
0.00321555
0.00127085
0.0005212
0.0038092
0.0003682
0.00192705
0.00325455
0.00287735
0.0035306
0.0023087
0.0032317
0.0024742
0.00203
0.000194186
0.00581155
0.00160455
0.00202255
0.000282501
0.00187535
0.0027815
0.0005552
0.00074985
0.00140205
0.00073235
0.004453
0.00392785
0.0013062
0.00117272
0.00118605
0.00295181
0.00061635
0.0018092
0.000975
0.00011255
0.00151855
0.0019452
0.00768905
0.0037602
0.00482735
0.0029135
0.00369405
0.00158085
0.00277021
0.0024091
0.00074905
0.0022965
0.003973
0.00288
0.00199005
0.00522235
0.00229455
0.000149
0.0024157
0.0024338
0.0012047
0.0021962
0.00356385
0.00081655
0.0073855
0.00193318
0.00033605
0.0022532
0.00122316
0.00081755
0.0008167
0.0011922
0.0035675
0.00304085
0.010613
0.00273905
0.005637
0.0011302
0.00277105
0.000601702
0.00272416
0.00167855
0.00155734
0.00207785
0.0021787
0.00062485
0.0035602
0.002149
0.0025942
0.00220113
0.0026345
0.003301
0.00336755
0.00050285
0.0026685
0.0060833
0.00011385
0.003037
0.00233385
0.0003942
0.002967
0.0036355
0.00339485
0.000684717
0.00245305
0.000913536
0.00361534
0.00192185
0.0033272
0.0014242
0.00363685
0.00279573
0.00198759
0.00209405
0.00607161
0.00212805
0.00229035
0.00207412
0.000644172
0.00262455
0.0018705
0.00123835
0.0056087
0.00305135
0.00176811
0.0031425
0.00795472
0.00226405
0.00356955
0.00168905
0.00169977
0.0016745
0.00309816
0.00191955
0.0006057
0.00295535
0.00070205
0.00223585
0.00029805
0.0008635
0.0006907
0.009269
0.00200518
0.001981
0.00373481
0.00197855
0.00323035
0.00248255
0.00303421
0.00478575
0.00153535
0.0011762
0.0024752
0.00313435
0.00081855
0.00157405
0.00240335
0.00085535
0.001717
0.00245555
0.00255705
0.00244455
0.0018317
0.001549
0.00235677
0.008645
0.00463735
0.00216335
0.00174335
0.00259552
0.00122173
0.001333
0.00157305
0.0019255
0.0049822
0.008405
0.000616565
0.00182455
0.00245418
0.003269
0.0023365
0.00249455
0.0010202
0.0047405
0.008117
0.004189
0.00163535
0.00127555
0.0014287
0.001169
0.00290855
0.0001432
0.00152105
0.007877
0.0020325
0.00207835
0.00135485
0.00301035
0.0012722
0.00364205
0.002318
0.00129935
0.007709
4.185e-05
0.002661
0.00117935
0.0016678
0.00216161
0.00356119
0.00159305
0.000983
0.00109219
0.00362766
0.0008225
0.00333583
0.000774733
0.00150235
0.00145435
0.00322755
0.00063605
0.007205
0.00081405
0.00057935
0.002911
0.00399185
0.0001117
0.006989
0.000607159
0.006965
0.006917
0.00274755
0.00330752
0.0028725
0.00172205
0.007381
0.00092085
0.0013395
0.006821
0.00080455
0.00099835
0.00396773
0.00096205
0.0002942
0.00062605
0.00301225
0.00092635
0.00253155
0.006653
0.0015215
0.00311204
0.0061467
0.00058905
0.006629
0.006533
0.00087405
0.00073435
0.00168635
0.00071035
0.006461
0.006437
0.006341
0.006389
0.006365
0.0026055
0.000288497
0.004304
0.0027317
0.0055997
0.000711994
0.0014672
0.00475406
0.00205064
0.00569085
0.00425355
0.00365935
0.0054215
0.00375639
0.00035885
0.00100705
0.0056877
0.00031555
0.00169085
0.0011712
0.0038452
0.0022387
0.003576
0.00163635
0.0007472
0.00442516
0.00322735
0.0042325
0.00213135
0.00545585
0.00387471
0.00107836
0.00186171
0.00411735
0.000887
0.0051847
0.003191
0.00388363
0.00417135
0.00067935
0.00118131
0.00310905
0.00142813
0.00045805
0.0046002
0.004483
0.00296985
0.00424935
0.00473685
0.0036805
0.0014192
0.003243
0.000154
0.0019335
0.00439953
0.00342255
0.00488905
0.00144455
0.00312455
0.00534855
0.00369635
0.001028
0.00112255
7.11335e-05
0.00387485
0.0056447
7.155e-05
0.00572535
0.000600343
0.00431235
0.002701
0.00087205
0.00612124
0.0025465
0.00043255
0.0021892
0.00467885
0.0035117
0.00139335
0.00501304
0.00189155
0.0043422
0.00410935
0.0046935
0.00393558
0.00029185
0.00372305
0.00056405
0.00204208
0.0045445
0.0047727
0.00398305
0.000541002
0.001002
0.00364855
7e-05
0.001851
9.9e-05
0.00516605
0.00243762
0.00433209
0.0040042
0.00255205
0.004861
0.00238635
0.00642835
0.00445135
0.00299405
0.00201885
0.0003417
0.00190355
0.00234135
0.0002047
0.0041682
0.00223855
0.00251127
0.0016552
0.0033802
0.0044902
0.00072385
0.00017885
0.00186505
0.000873034
0.00555835
0.00485805
0.00417504
0.00222805
0.00024085
0.00309034
0.0020642
0.00233235
0.00159953
0.00159785
0.00192135
0.00472104
0.00025735
0.00191755
1.55e-05
0.00271585
0.0040752
0.00012455
0.00516014
0.00467735
2.11766e-05
0.00122255
0.00047435
0.00252185
0.0039282
0.00251017
0.00136796
0.0042132
0.0005602
0.0002032
0.00407155
0.00458776
0.00167555
0.00149235
0.0033407
9.435e-05
0.00209605
0.0007417
0.00112767
0.00262605
0.00218585
0.00309422
0.004169
0.0008342
0.0006162
0.00434154
0.0003442
0.00364455
0.00363755
0.0010412
0.0038317
0.0003837
0.00311405
0.00518085
0.00261321
0.0034035
0.00302005
0.0030362
0.00409071
0.00056105
0.000727
0.00017035
0.00377114
0.00608705
0.00124785
0.00244805
0.000440118
0.0029967
0.00400685
0.0005612
0.0016235
0.00151105
0.00048135
0.0070432
)


// ************************************************************************* //
