/*--------------------------------*- C++ -*----------------------------------*\
  =========                 |
  \\      /  F ield         | OpenFOAM: The Open Source CFD Toolbox
   \\    /   O peration     | Website:  https://openfoam.org
    \\  /    A nd           | Version:  7
     \\/     M anipulation  |
\*---------------------------------------------------------------------------*/
FoamFile
{
    version     2.0;
    format      ascii;
    class       vectorField;
    location    "0.1175/lagrangian/reactingCloud1";
    object      U;
}
// * * * * * * * * * * * * * * * * * * * * * * * * * * * * * * * * * * * * * //


738
(
(407.51 -4.31926 -2.44216)
(371.973 9.95606 -2.02262)
(422.294 -1.46777 -1.10907)
(404.484 -1.51628 3.25586)
(440.435 -0.0575103 -5.60206e-05)
(440.701 -0.0399536 -2.30313e-05)
(441.968 -2.13909 3.98282)
(433.748 2.94303 7.07824)
(422.951 -0.443605 -0.204841)
(440.767 -0.0254263 -1.03499e-06)
(433.865 -9.17537 -0.220379)
(440.612 -0.0349298 -8.54241e-08)
(430.576 -3.72807 0.861811)
(440.522 -0.0328212 -2.00854e-06)
(440.246 -0.040532 -1.83512e-06)
(440.206 -0.0388913 -1.29968e-05)
(430.382 -5.51152 7.50562)
(377.519 10.3691 0.795389)
(440.067 -0.0349926 -2.15173e-05)
(441.039 -0.191406 0.643233)
(439.927 -0.0332329 -1.89201e-05)
(402.004 -2.4966 13.2146)
(385.029 15.6933 -0.398165)
(438.978 -11.612 3.39711)
(439.729 -0.0155375 -5.51617e-06)
(434.285 0.432866 -5.10259)
(439.653 -0.0076381 -2.93917e-05)
(440.062 0.00486359 -3.09119e-05)
(429.131 13.4334 -13.3205)
(429.763 -9.51123 8.56863)
(424.43 -5.71226 -1.86004)
(441.182 -3.28968 -0.213141)
(439.725 0.0375582 1.6738e-07)
(436.688 0.934259 0.261341)
(429.781 -12.9955 13.3194)
(369.208 8.31795 -4.70871)
(434.235 -1.44354 1.78598)
(439.799 0.0284961 -1.08684e-05)
(439.536 0.0868847 3.26156e-07)
(439.737 0.00197475 -1.17243e-07)
(439.612 0.0257868 -9.30046e-07)
(434.129 2.07407 -2.88083)
(439.097 -12.7243 -2.72565)
(439 0.238038 6.0169e-07)
(438.512 0.398213 -2.20396e-05)
(438.115 -10.9036 -2.24798)
(438.529 0.331463 -1.92094e-05)
(435.985 1.96659 1.25933)
(379.752 5.07639 -0.067508)
(395.14 -5.40299 4.30316)
(398.596 0.458909 0.821177)
(435.331 -5.16234 -4.09995)
(437.615 0.57236 -3.80469e-06)
(448.506 -8.61101 4.44828)
(442.364 8.0438 -2.28896)
(432.189 1.62299 -0.0765882)
(437.033 0.221246 -3.44783e-06)
(368.607 9.1138 3.2182)
(423.821 -3.5833 -2.00811)
(425.104 0.451987 0.0581803)
(435.677 8.56643 2.22393)
(406.504 -3.844 4.15067)
(53.6348 10.9541 -15.042)
(25.7865 10.7428 6.15185)
(106.583 18.6559 -5.15757)
(97.1398 26.9836 -0.79217)
(130.197 7.96725 0.000553961)
(133.374 1.20914 2.00354e-05)
(130.631 11.392 0.00036359)
(131.109 13.0598 0.00117964)
(135.53 5.77661 -0.000100175)
(104.573 8.82227 -2.49653)
(106.515 2.41393 -0.937115)
(161.032 16.7735 -0.851277)
(138.843 11.9205 0.000210226)
(141.245 1.65031 2.54529e-06)
(137.891 26.0758 -0.00115455)
(142.745 15.6007 -0.00125848)
(144.406 6.14439 -1.70319e-05)
(145.581 7.41146 -0.000165608)
(147.335 21.3324 -0.00369244)
(149.22 16.5476 -0.00297728)
(150.943 16.2649 -0.000969509)
(153.757 23.2746 -0.00147378)
(153.753 19.291 -2.43537e-05)
(155.771 24.3882 -0.00191364)
(154.901 12.7286 -0.000261974)
(82.537 0.460151 -4.96144)
(161.15 22.9995 -0.000621693)
(164.328 17.9336 -0.000622213)
(157.494 7.57941 -0.00013726)
(164.192 13.1257 -3.00843e-05)
(167.764 17.5715 -0.00346621)
(159.646 6.12075 -0.000721767)
(168.934 13.8468 -0.000155712)
(161.735 6.2213 -1.56618e-05)
(162.42 5.71019 1.31719e-05)
(166.67 6.9199 -0.000920514)
(170.008 2.76787 2.77797)
(161.962 3.38797 -0.000108548)
(167.919 5.1579 0.00152676)
(168.787 4.09104 0.00209398)
(162.916 2.57504 -0.000349624)
(164.971 3.18354 -0.000191378)
(163.206 1.94111 -0.000738404)
(166.234 2.76524 0.000364806)
(163.247 1.1074 4.46585e-05)
(167.289 1.26184 0.00113855)
(166.153 1.96926 0.000322486)
(166.533 1.49697 -0.000331768)
(166.654 0.435481 -2.78937e-05)
(166.63 0.583088 0.000513522)
(166.357 0.89199 0.000303789)
(164.417 0.531827 -2.2773e-05)
(166.229 0.213414 -0.00028871)
(165.387 1.03731 -6.94964e-05)
(164.916 0.671641 -2.79725e-05)
(163.731 -0.183603 -1.51293e-05)
(166.013 0.159918 -1.95815e-05)
(164.654 -0.132209 -2.79579e-05)
(165.867 0.253335 0.000446608)
(165.631 0.638872 -0.000101244)
(165.378 0.586485 -3.04549e-05)
(165.692 0.428149 2.59619e-05)
(145.612 -0.178264 -9.63922e-05)
(141.016 -0.155646 -0.000120943)
(165.641 0.392726 -5.86991e-06)
(165.108 -0.13168 8.44761e-06)
(165.334 -0.0921036 0.000288655)
(165.527 0.116527 1.93726e-06)
(165.609 0.329414 -3.00934e-06)
(165.599 0.412604 -6.60109e-07)
(165.558 -0.0495345 -0.000233898)
(97.8836 -17.1637 -3.09262)
(83.2871 -9.95051 3.20621)
(82.4119 -7.00749 -2.98028)
(103.697 -14.5023 2.77592)
(109.383 -14.7132 -2.35345)
(116.707 -15.5944 0.000837092)
(103.719 -16.9208 -1.95796)
(121.157 -27.4095 3.81102)
(126.696 -8.29669 -2.11081e-05)
(118.861 -10.9657 0.000329397)
(125.872 -6.90163 -1.77499e-05)
(112.25 -13.0427 -0.000426941)
(127.461 -0.59395 -1.90882e-08)
(105.896 -12.2005 0.00223153)
(115.692 -9.25928 1.58796e-06)
(110.334 -11.0877 -4.60028e-05)
(107.969 -9.73057 7.92377e-06)
(123.479 -1.13348 -0.000174356)
(104.683 -9.13765 0.000310974)
(105.334 -8.12555 0.00368607)
(118.075 -4.34218 4.8969e-05)
(107.34 -7.3877 0.00250671)
(118.722 -3.56844 2.0376e-05)
(116.034 -4.13328 4.4128e-05)
(97.203 -5.20559 0.000638842)
(90.9979 -3.99143 -1.43018)
(99.846 -3.20134 0.000887832)
(117.433 -1.4005 0.00139231)
(106.359 -2.5398 0.000120876)
(100.176 -0.89223 0.000178895)
(87.8484 -0.893051 -4.08308)
(106.659 -0.792377 0.000788829)
(113.204 0.24206 0.00126464)
(109.503 -0.218655 0.00184674)
(119.782 0.499717 0.00105466)
(96.485 2.32002 0.000332921)
(121.18 0.375226 2.64302e-05)
(102.138 4.29227 0.00158836)
(96.0697 5.95494 0.000166365)
(116.129 3.68338 -3.60898e-05)
(98.3891 6.53817 0.000671253)
(119.141 3.17306 -5.76412e-05)
(116.514 4.83392 0.0017853)
(122.145 3.29515 0.000463522)
(113.051 7.07536 0.00333934)
(120.084 5.54595 -4.42464e-05)
(120.586 6.81279 -0.000118654)
(112.135 10.1691 0.000703681)
(120.437 9.07245 -0.000162046)
(111.658 12.6519 -4.57976e-05)
(119.572 11.8797 0.00204969)
(125.136 9.98214 0.000695731)
(128.715 6.53847 -9.96021e-05)
(125.344 12.8493 -0.000500531)
(325.88 -14.9807 3.78075)
(347.934 -9.10617 -0.798238)
(347.754 -5.19823 -13.8957)
(342.932 -10.7178 1.29488)
(343.104 -24.3165 2.38419)
(337.963 -13.6023 -0.103553)
(253.954 -59.5736 0.22848)
(318.858 -11.4243 -0.00570052)
(291.244 -38.702 -3.15445)
(201.656 -51.2409 -2.02666)
(303.993 -15.0881 0.000149121)
(301.107 -26.7101 -0.00306789)
(295.138 -34.0793 2.24021)
(285.425 -46.826 0.851042)
(254.918 -55.7341 1.13475)
(273.451 -52.249 -1.33768)
(287.814 -18.7809 -0.00314274)
(287.142 -12.5739 0.000146978)
(231.312 -40.3294 0.00181205)
(237.281 -67.9158 4.00626)
(198.893 -43.4047 0.000465254)
(209.558 -25.025 0.00032197)
(195.297 -34.1118 7.83175e-05)
(168.065 -46.2149 -0.065163)
(161.712 -43.0416 1.02341)
(178.871 -38.2914 0.000687343)
(163.162 -38.0288 1.21109)
(164.242 -38.6323 1.23974)
(176.848 -31.7653 8.20233e-05)
(165.016 -35.3121 0.000102573)
(171.543 -30.0417 0.000376177)
(149.38 -36.0426 0.0017295)
(173.6 -12.5698 6.53028e-06)
(157.12 -31.9921 -0.000484616)
(160.957 -26.4346 0.00155729)
(162.381 -24.0332 0.00102218)
(141.775 -31.5282 0.00373109)
(115.108 -39.211 1.0437)
(147.033 -26.6665 2.01969e-05)
(141.179 -26.9791 -2.78786e-05)
(135.588 -37.2507 3.08343)
(151.221 -11.5642 0.000883167)
(131.946 -25.3146 0.00386944)
(134.529 -22.95 0.000350939)
(137.519 -19.6178 -3.45313e-05)
(135.156 -19.35 0.00144399)
(142.62 -5.94151 -1.5973e-05)
(131.218 -18.6252 0.00174065)
(117.213 -23.7021 0.00419634)
(125.363 -21.0986 -0.000267396)
(136.151 -8.50731 0.000565176)
(130.542 -15.7505 8.4679e-05)
(120.983 -16.2533 9.38689e-05)
(125.591 -11.9943 0.000224961)
(129.915 -6.16409 0.000609161)
(416.05 2.23022 -0.119116)
(433.326 1.66218 -3.36491e-05)
(428.101 1.1216 5.07154)
(433.685 0.989381 -7.52623e-05)
(430.868 -13.3648 3.93699)
(432.84 1.06846 -5.71219e-06)
(377.416 2.5502 -9.41695)
(408.377 2.26561 2.67247)
(430.039 9.91815 10.6011)
(431.539 -10.5525 20.4934)
(427.382 15.3466 -6.04463)
(442.038 -6.2098 -7.3772)
(415.908 3.56235 0.649969)
(426.259 -13.8948 -3.15618)
(411.134 -3.54141 -2.66062)
(423.271 1.09603 1.19081e-05)
(422.262 0.944187 4.17901e-05)
(419.489 0.325746 9.01784e-06)
(401.135 -10.11 13.6182)
(414.412 0.563428 -0.153975)
(404.929 0.589841 -0.457934)
(352.788 -1.13687 12.3008)
(410.334 -0.179513 0.000286966)
(409.626 -0.25234 5.36579e-05)
(377.287 -8.34111 12.4)
(392.922 -1.21722 -0.650533)
(388.867 -3.89651 -3.40289)
(401.851 -4.33821 4.1818)
(398.478 -1.7363 -0.0226738)
(386.096 -7.74257 2.6697)
(404.71 -6.53535 4.15684)
(398.258 -5.99677 -0.506947)
(379.094 -0.14732 0.00025541)
(371.789 -5.40549 1.18351)
(373.561 -3.48139 -0.000588252)
(364.751 -8.40056 -1.13448)
(371.591 -0.238445 -4.56991e-05)
(357.071 -5.75079 0.297941)
(319.945 8.33603 -5.23842)
(338.967 11.988 2.79245)
(339.34 5.41434 2.06847)
(346.123 0.0544269 1.01484)
(355.847 6.14795 1.44552)
(345.63 -2.60975 -0.310459)
(403.844 10.6995 -2.11184)
(420.147 0.200583 -3.3293)
(395.057 -19.4888 -5.881)
(460.494 -31.9683 5.45866)
(404.908 -0.592334 -0.293625)
(425.361 -2.77766 -1.51698)
(433.55 1.31451 -0.242744)
(446.488 0.339449 -4.991)
(293.748 42.4185 0.880385)
(378.376 16.7395 -7.72817)
(314.643 9.52751 -5.64386)
(424.606 -0.29823 5.7352)
(442.479 -11.3108 5.18222)
(428.358 -6.88191 1.06374)
(375.809 -1.89929 -3.42895)
(442.785 3.52784 0.844936)
(388.917 1.09468 1.417)
(445.33 7.83312 -7.64167)
(372.994 2.18115 3.23696)
(442.184 -1.9183 -2.90221)
(444.292 -2.89332 -0.442945)
(417.749 -9.8865 1.88284)
(426.574 1.07624 0.160578)
(393.627 5.68215 2.95326)
(418.593 -0.369229 0.0455237)
(448.927 3.80201 -7.37828)
(445.015 1.42805 -3.0268)
(424.459 6.87948 -0.180634)
(359.196 -4.3361 -4.65042)
(367.889 5.77315 4.80267)
(386.748 1.8084 -3.048)
(428.093 -0.709282 -3.92428)
(430.235 -7.36439 19.6548)
(386.883 4.08325 -2.141)
(437.475 -6.97117 8.60493)
(434.156 -8.56394 0.232208)
(441.418 -4.696 0.921628)
(404.036 7.22131 -1.50161)
(398.616 -0.640777 -0.0137129)
(370.957 7.71677 3.20716)
(434.715 -4.18391 -1.38449)
(394.469 -1.57122 -1.53776)
(436.862 -28.289 -7.57856)
(344.449 -4.84434 10.1948)
(432.17 -0.178291 0.920897)
(441.638 1.02159 1.01581)
(440.455 0.161938 -1.68641)
(443.025 -3.97046 10.6124)
(443.047 0.000303337 -0.0111253)
(436.636 1.62263 -0.607226)
(408.649 0.971892 -4.59089)
(445.033 -5.29032 1.39175)
(442.03 -0.281012 -1.00936)
(406.695 -0.678044 -0.261868)
(385.617 1.75309 0.798511)
(379.426 -0.627311 -0.0455965)
(436.25 -8.65307 0.236841)
(433.555 0.516379 2.5291)
(411.882 2.7416 0.334716)
(368.884 1.17313 1.18551)
(437.566 1.42706 0.946611)
(377.335 3.18385 9.20084)
(371.52 -3.22719 3.86416)
(379.414 6.30587 1.11643)
(426.802 2.67085 -2.51021)
(397.886 0.246953 -1.41815)
(442.87 -0.0382779 5.63386e-06)
(398.131 -1.59135 4.29383)
(434.635 -6.03045 0.943692)
(422.542 0.0117467 0.340067)
(439.126 -0.373946 0.575124)
(445.443 0.0019395 -0.0750436)
(440.709 -0.14647 -3.93513)
(389.278 1.6779 -1.85751)
(431.466 1.59266 -2.87082)
(426.414 -0.810348 1.17472)
(400.282 -1.69982 -0.909906)
(408.623 3.65762 0.49382)
(407.495 -2.41128 12.2515)
(368.281 9.52822 -2.21803)
(423.996 -8.71677 -1.98378)
(334.95 2.76153 -2.52334)
(438.471 0.193308 0.924031)
(415.798 6.28058 0.492384)
(440.817 -5.12045 -8.77465)
(443.257 -0.34813 0.969506)
(430.561 -0.9103 0.999777)
(443.81 -4.31568 -0.40668)
(427.161 -4.41228 7.95599)
(441.032 -8.65271 8.83603)
(404.819 3.16095 -3.6512)
(438.635 0.318653 0.25995)
(442.185 -3.71122 5.2202)
(416.865 -2.3383 -0.759903)
(438.542 -11.106 8.00522)
(443.786 0.696101 -0.916948)
(366.202 5.24051 2.07571)
(420.955 -2.70747 -4.25317)
(440.173 -3.92026 13.0715)
(367.906 11.3625 9.76514)
(437.866 -9.68121 8.72713)
(411.045 -5.71057 -18.4515)
(371.885 7.24866 11.0133)
(425.642 -1.09284 2.11168)
(440.764 -0.313238 0.0922672)
(383.5 2.95626 3.48922)
(433.353 -9.279 3.07849)
(417.827 5.37355 14.7671)
(420.225 1.61412 2.00188)
(443.98 -4.27065 -9.85075)
(444.202 -0.897978 -1.62653)
(428.219 -1.50078 -3.11583)
(440.02 -5.67584 -2.53859)
(413.759 4.12037 5.47981)
(426.387 -9.64743 -11.4313)
(441.91 -2.35967 0.0706328)
(424.411 7.08877 -9.94622)
(414.681 -1.4353 -0.994773)
(428.794 -8.58715 -10.2201)
(394.057 3.12213 -8.82829)
(437.994 -10.6014 1.93162)
(413.44 -0.120368 -1.074)
(437.933 -4.99831 1.59321)
(441.534 -0.0503298 -0.174279)
(408.575 0.0834069 -6.34875)
(357.248 12.6199 -8.17097)
(394.172 3.11315 8.30977)
(427.755 2.54925 6.76945)
(406.576 -0.204991 0.361141)
(405.499 -1.41831 -7.80428)
(417.661 16.865 -8.60796)
(442.519 -1.9034 1.95681)
(415.009 -11.5145 5.53331)
(442.789 -0.0124784 -2.47431e-05)
(442.296 0.56602 2.47414)
(442.988 -4.82128 -0.676234)
(436.738 -6.78945 1.30321)
(403.406 1.22566 -1.64681)
(434.664 1.37543 0.173965)
(421.13 -14.7239 4.80042)
(429.939 -3.58658 6.43884)
(451.911 -5.01873 1.12713)
(398.109 -3.966 -16.0833)
(412.971 -1.18143 -0.246051)
(410.7 -8.84129 -6.85326)
(423.773 4.05971 1.07668)
(379.59 4.7448 21.0533)
(422.381 -0.574586 0.287652)
(419.865 -1.38811 -1.38378)
(432.548 -29.4789 23.2369)
(435.547 6.38845 -7.76703)
(432.461 -4.64866 -14.5447)
(409.518 -0.141033 -0.0417744)
(393.493 -2.07136 1.30682)
(423.494 -3.89382 2.71058)
(440.755 0.693105 2.45954)
(407.437 0.344796 0.819883)
(442.594 -0.013332 -1.94672e-05)
(453.861 -4.89005 7.62503)
(437.135 4.69953 14.6993)
(392.148 -2.63225 0.0744327)
(393.735 1.50596 6.50563)
(410.725 9.99184 8.32879)
(442.139 2.58915 3.01674)
(429.964 -11.3088 -26.5131)
(425.085 -3.39762 -1.25993)
(437.987 -7.54204 -3.36617)
(442.816 -0.00963844 -2.2517e-07)
(445.395 1.92137 -2.95622)
(417.263 2.2434 -2.63952)
(432.137 -7.55264 9.06605)
(445.484 -10.3392 -3.21947)
(413.051 -0.160186 1.36794)
(419.556 -9.48949 -2.43049)
(429.467 -1.29201 0.511759)
(434.803 -6.68357 2.11739)
(442.441 -0.00414226 -7.94977e-06)
(439.891 -6.68651 -0.768925)
(451.54 -3.72554 5.87135)
(419.06 -11.0109 -1.22175)
(428.53 -4.80696 2.8851)
(412.215 1.00257 0.552869)
(438.781 -0.402208 -2.42811)
(410.983 9.33134 5.61508)
(400.777 -0.546806 -0.786567)
(442.593 0.00818866 -3.01042e-06)
(420.47 0.478593 -3.71038)
(443.045 -1.13537 -9.07361)
(410.781 -0.626387 23.3318)
(462.491 -12.4857 -7.28126)
(413.318 3.91049 2.76759)
(376.171 11.2219 -5.92545)
(376.331 6.93427 3.48206)
(441.098 0.345655 0.75484)
(442.135 0.00961452 -1.55472e-07)
(395.161 0.725922 0.607314)
(429.311 -2.88745 -3.71543)
(442.349 2.73264 -8.40031)
(421.554 -0.401666 -0.00923413)
(422.313 -2.01759 -3.85048)
(440.794 -1.4438 -2.38621)
(393.996 1.26258 2.24845)
(391.566 -0.00465809 2.80038)
(421.142 3.03648 -3.72467)
(441.272 -7.08041 3.54409)
(406.5 8.31207 8.58153)
(433.063 -6.49361 6.37898)
(411.476 15.2805 2.2434)
(436.084 -1.46605 -0.574018)
(451.23 -2.24949 8.27704)
(403.585 1.83468 -16.2345)
(408.741 -4.51126 5.09204)
(442.163 0.0145802 -3.85517e-06)
(401.488 5.53639 -6.72301)
(441.296 -0.497054 0.281564)
(434.586 -5.49089 -1.02407)
(439.546 -17.099 13.6087)
(357.528 -9.43385 10.3316)
(441.941 0.0124243 -1.27647e-05)
(431.112 -3.58737 2.80314)
(441.459 -0.00979572 -2.85443e-05)
(441.746 0.00802238 -6.18642e-07)
(442.349 -5.19149 -7.61705)
(419.683 -6.05494 6.78649)
(437.003 -5.58199 -3.87786)
(429.453 -5.87106 -7.98147)
(415.789 -14.1488 -3.51887)
(429.528 -2.47996 0.600169)
(432.928 -23.5847 22.7108)
(441.593 0.00780565 -9.61632e-07)
(436.114 -4.53087 -7.6668)
(436.67 3.20829 -2.7242)
(338.76 12.7579 12.2276)
(392.029 1.722 0.782783)
(419.266 -9.4057 7.15302)
(426.881 -3.74507 0.106257)
(437.966 -8.57938 -2.75802)
(440.006 1.77566 -0.27978)
(436.108 -5.20172 -11.5246)
(441.484 -0.00584256 5.8783e-07)
(395.374 5.66091 9.01669)
(432.472 -11.621 16.0408)
(440.211 -12.0259 10.8005)
(427.175 0.272572 -1.05565)
(441.162 -0.0226675 -4.53009e-06)
(441.53 -0.00208355 -1.51176e-06)
(435.01 -8.8049 6.29533)
(434.491 22.6921 0.4834)
(428.873 -9.97676 0.268225)
(440.179 3.57875 0.824608)
(441.13 -0.0280368 -7.2235e-06)
(440.937 -0.0397775 -6.46202e-06)
(441.212 -0.012947 -3.76548e-07)
(440.793 -0.0431978 -2.11416e-06)
(440.954 -0.0321162 1.52559e-06)
(440.367 -2.59321 -5.4043)
(388.157 0.00027806 -0.0729118)
(391.619 0.945809 1.61701)
(400.865 0.0125662 0.0261854)
(399.114 -0.245017 1.07416)
(393.303 2.01573 -14.3944)
(404.536 -4.89214 1.96646)
(403.001 6.0371 4.30572)
(410.665 0.0792901 -0.0363417)
(405.477 -1.87419 -1.8086)
(410.211 -7.72205 -11.7852)
(410.602 -3.43775 -2.42188)
(413.896 0.947569 2.18046)
(406.34 2.40578 -3.37485)
(414.304 0.00441796 -0.24453)
(379.419 -18.0314 -20.8732)
(351.956 6.91092 18.0402)
(381.119 -11.8833 -24.9851)
(369.059 15.2605 10.1017)
(414.528 0.111919 -0.00739633)
(413.303 0.00188789 -0.0978153)
(388.886 2.32303 -5.07798)
(411.883 -5.77986 12.0407)
(407.462 -3.36898 12.3205)
(414.506 12.0453 2.94389)
(415.077 -2.90761 -0.783994)
(407.073 3.24039 8.98714)
(408.555 2.05985 -10.518)
(403.794 4.63454 -5.83589)
(404.284 -7.92923 -12.4761)
(419.868 -7.11974 -8.1563)
(437.11 4.27486 -7.14297)
(417.09 0.000278923 -0.0165219)
(410.328 -1.92823 8.17864)
(420.035 0.769239 -7.93654)
(387.669 3.53642 -4.65496)
(413.423 -0.12914 -0.08644)
(424.421 -3.64502 -0.955738)
(388.384 -0.483007 4.97807)
(415.563 4.30063 7.60814)
(423.293 0.00109964 0.0446013)
(406.004 -2.89138 1.33211)
(420.44 0.000915943 0.0345684)
(351.238 -19.1934 -11.4198)
(389.062 -3.48772 12.2366)
(420.385 -1.69867 -1.39252)
(357.072 7.4988 19.6561)
(397.005 4.95202 -8.95585)
(427.999 -7.48269 0.316188)
(407.845 3.12288 3.87765)
(421.338 1.20236 9.13993)
(415.815 -0.0609937 0.404282)
(423.086 10.8598 -6.07591)
(425.539 1.67206 -9.6978)
(426.96 0.0868083 0.0315232)
(406.857 -7.27592 4.12479)
(423.212 0.971109 -6.91565)
(398.088 -3.30493 -5.09908)
(410.743 -2.52715 -2.53446)
(424.532 -6.60436 -1.98827)
(411.498 -10.6576 10.3799)
(439.053 7.34826 5.31422)
(410.283 -7.89095 -2.08053)
(421.096 7.69414 3.18894)
(377.724 4.16296 7.46781)
(423.828 -2.08572 -0.521979)
(427.845 -22.3183 -4.6038)
(352.682 5.80352 14.7143)
(444.145 10.1297 -5.54302)
(390.18 -9.62324 -2.40231)
(392.831 -0.207779 1.62337)
(376.436 4.7441 -2.29981)
(427.764 -3.24519 2.27687)
(426.281 -5.48512 -9.02049)
(406.382 -9.65312 -1.71803)
(413.663 -11.558 -3.353)
(409.937 -5.4134 1.20215)
(409.532 -0.283224 5.39697)
(340.053 -8.43893 -0.831194)
(408.286 -1.22681 -7.19377)
(421.945 -8.57127 7.23985)
(416.392 -5.31429 3.01427)
(437.865 -8.00026 1.74779)
(367.353 8.8407 6.04946)
(433.215 0.847022 0.460358)
(392.528 -2.44652 4.87972)
(398.203 9.89958 -5.64196)
(387.878 -12.6223 12.0158)
(419.379 4.39021 -7.83848)
(414.896 -5.211 1.87364)
(390.26 -2.56922 1.23042)
(368.731 8.2942 -11.4411)
(364.766 2.8724 -27.1679)
(439.31 0.0610878 2.59413)
(407.886 -1.74284 1.71911)
(434.3 0.000353721 -0.0145758)
(440.384 -5.26967 0.22971)
(431.076 17.5521 -7.96232)
(377.792 -3.84379 0.383056)
(435.183 1.05382 2.56808)
(410.389 -0.541692 -0.00660959)
(388.552 2.95897 -1.54107)
(403.811 -5.01923 9.36951)
(354.302 -0.321669 -0.000217729)
(438.253 -23.51 -4.87971)
(304.128 20.3956 -8.90227)
(369.759 1.36731 14.3747)
(410.664 -6.41805 2.00223)
(416.585 -1.24171 -8.48353)
(418.557 0.746549 -4.07147)
(433.983 -0.340814 -0.000131753)
(381.104 7.96331 3.58331)
(426.62 -12.5352 -0.298169)
(394.406 0.174128 -8.83173)
(419.891 -7.55021 4.99467)
(408.409 7.65408 -4.48097)
(347.164 -5.64514 1.41823)
(458.064 -12.4004 -7.14985)
(424.241 -2.31201 -3.37876)
(419.789 1.36434 1.0435)
(430.876 -3.25534 6.02745)
(389.174 -0.200995 1.99014)
(446.635 0.0327091 -0.0392172)
(426.785 -8.55001 1.30812)
(417.736 -4.69276 -6.24697)
(426.124 -8.05935 -9.4135)
(429.999 -4.09327 4.58976)
(388.282 -4.61805 11.8276)
(422.244 0.438358 -2.84172)
(432.028 0.730828 0.056691)
(411.066 -0.971009 0.888147)
(438.984 0.000648416 0.0263208)
(422.911 7.14734 -2.93939)
(405.604 9.62499 2.68742)
(442.502 0.00139337 0.0788593)
(407.369 -0.498818 1.49384)
(376.288 -7.34675 -3.6036)
(382.818 -9.04461 6.03084)
(421.797 -2.8871 7.25723)
(438.376 -8.83859 -2.25111)
(378.084 6.08159 -0.0996622)
(437.753 0.397369 -0.539912)
(436.553 -15.1781 2.77006)
(445.683 0.118584 -7.15527)
(399.216 10.0754 0.654544)
(418.029 -0.055643 6.61177)
(407.582 1.74693 -3.93448)
(377.076 1.27835 -13.5246)
(441.074 2.08018 -0.0332086)
(446.774 4.58742 -6.52469)
(373.259 10.8938 7.96385)
(408.179 -1.83985 1.99635)
(378.375 -3.50305 -6.33351)
(425.067 -11.0526 13.2136)
(421.081 4.40234 -0.917391)
(384.332 -12.3046 5.36015)
(387.431 -0.560193 -0.203518)
(436.127 -3.94955 -0.704093)
(390.324 -8.33757 5.44495)
(397.669 3.19862 -8.69301)
(347.113 11.6054 -15.3595)
(427.839 -0.225726 -7.72894)
(443.857 -5.01223 -0.124725)
(414.982 -9.65485 4.09518)
(441.706 0.000415837 -0.0136787)
(444.88 -0.275389 -0.0265775)
(418.514 -2.912 0.363851)
(438.511 4.53073 4.73997)
(428.085 0.904665 -1.41314)
(341.928 -0.5022 1.36051)
(412.2 0.65376 1.64738)
(317.223 2.78256 -24.7479)
(411.091 5.50324 -10.4903)
(328.693 6.86858 6.36252)
(353.584 -10.1731 -7.05249)
(421.163 -8.96613 -12.3755)
(360.518 10.8935 -15.0882)
(440.528 0.00155453 -0.0512501)
(432.501 -2.13076 0.514276)
(409.825 -2.0881 3.84053)
(430.912 -5.59342 -11.9821)
(442.104 0.208279 -0.0233015)
(411.154 -15.6202 2.75889)
(397.95 6.35234 -22.6782)
(423.697 1.74836 -3.62331)
(441.447 -3.09691 -4.39195)
(427.176 -8.26606 3.59371)
(391.047 0.440169 -1.2293)
(420.051 -7.13485 4.7185)
(433.6 -0.22692 -1.88497)
(417.144 -6.66113 -0.386661)
(414.646 0.0162114 0.610478)
(425.404 6.60454 -4.86703)
(444.257 1.10753 -1.5885)
(431.744 -0.337104 -0.42424)
(430.987 0.447759 -0.887095)
(445.248 -9.08958 -0.226852)
)


// ************************************************************************* //
