/*--------------------------------*- C++ -*----------------------------------*\
  =========                 |
  \\      /  F ield         | OpenFOAM: The Open Source CFD Toolbox
   \\    /   O peration     | Website:  https://openfoam.org
    \\  /    A nd           | Version:  7
     \\/     M anipulation  |
\*---------------------------------------------------------------------------*/
FoamFile
{
    version     2.0;
    format      ascii;
    class       vectorField;
    location    "0.1175/lagrangian/reactingCloud1";
    object      UTurb;
}
// * * * * * * * * * * * * * * * * * * * * * * * * * * * * * * * * * * * * * //


738
(
(-8.65877 -3.84802 -2.44217)
(3.48359 10.5663 -2.02264)
(-2.23848 -1.05239 -1.10907)
(5.21451 -0.934998 3.25587)
(0 0 0)
(0 0 0)
(3.1385 -1.98509 3.9829)
(-6.25959 3.02521 7.07826)
(-0.0495757 -0.0176491 -0.204829)
(0 0 0)
(4.23177 -8.81153 -0.220322)
(0 0 0)
(-3.60515 -3.43031 0.861832)
(0 0 0)
(0 0 0)
(0 0 0)
(0.580065 -5.1798 7.50564)
(-6.82443 10.9328 0.795397)
(0 0 0)
(1.32399 -0.137623 0.643233)
(0 0 0)
(-19.2854 -2.15426 13.2149)
(3.31463 16.2321 -0.398163)
(-0.756646 -11.5956 3.39713)
(0 0 0)
(-4.98395 0.465398 -5.10255)
(0 0 0)
(0 0 0)
(8.5228 13.7075 -13.3202)
(-1.59454 -9.34118 8.56878)
(-10.0472 -5.5862 -1.86003)
(2.02201 -3.32469 -0.213098)
(0 0 0)
(0.171149 0.968138 0.261553)
(-2.53808 -12.9398 13.3196)
(1.75404 8.64071 -4.70863)
(-3.79372 -1.52649 1.78614)
(0 0 0)
(0 0 0)
(0 0 0)
(0 0 0)
(-3.67441 1.69805 -2.88083)
(0.78804 -13.1091 -2.72556)
(0 0 0)
(0 0 0)
(-0.396859 -11.3106 -2.24797)
(0 0 0)
(-1.53719 1.26783 1.25938)
(0.771808 4.52291 -0.0674006)
(-4.36249 -6.05475 4.30316)
(-0.271378 -0.401439 0.821528)
(0.855594 -6.29069 -4.09992)
(0 0 0)
(12.5779 -9.73116 4.44838)
(9.54181 6.80516 -2.28873)
(-1.00107 0.295665 -0.0764176)
(0 0 0)
(-7.68796 7.78604 3.21857)
(-10.8907 -5.1159 -2.00792)
(-1.00027 -1.34449 0.0583453)
(4.36257 6.78693 2.2242)
(-2.88133 -5.77419 4.15084)
(10.3649 -2.68277 -15.0436)
(-0.432416 2.37375 6.14935)
(4.06932 -5.77291 -5.1628)
(-0.264716 0.869693 -0.845193)
(0 0 0)
(0 0 0)
(0 0 0)
(0 0 0)
(0 0 0)
(-1.87593 -2.18946 -2.50135)
(-4.48794 -2.86756 -0.936737)
(0.629071 -4.92284 -0.850123)
(0 0 0)
(0 0 0)
(0 0 0)
(0 0 0)
(0 0 0)
(0 0 0)
(0 0 0)
(0 0 0)
(0 0 0)
(0 0 0)
(0 0 0)
(0 0 0)
(0 0 0)
(4.29433 0.436354 -4.96153)
(0 0 0)
(0 0 0)
(0 0 0)
(0 0 0)
(0 0 0)
(0 0 0)
(0 0 0)
(0 0 0)
(0 0 0)
(0 0 0)
(1.71984 -1.86702 2.78049)
(0 0 0)
(0 0 0)
(0 0 0)
(0 0 0)
(0 0 0)
(0 0 0)
(0 0 0)
(0 0 0)
(0 0 0)
(0 0 0)
(0 0 0)
(0 0 0)
(0 0 0)
(0 0 0)
(0 0 0)
(0 0 0)
(0 0 0)
(0 0 0)
(0 0 0)
(0 0 0)
(0 0 0)
(0 0 0)
(0 0 0)
(0 0 0)
(0 0 0)
(0 0 0)
(0 0 0)
(0 0 0)
(0 0 0)
(0 0 0)
(0 0 0)
(0 0 0)
(0 0 0)
(0 0 0)
(-1.03538 -0.12744 -3.0897)
(-5.68448 4.22078 3.20683)
(3.97843 4.46392 -2.98094)
(8.96515 1.36106 2.77749)
(2.93221 1.64222 -2.35265)
(0 0 0)
(1.07983 -3.02233 -1.95797)
(12.0863 -11.7302 3.81307)
(0 0 0)
(0 0 0)
(0 0 0)
(0 0 0)
(0 0 0)
(0 0 0)
(0 0 0)
(0 0 0)
(0 0 0)
(0 0 0)
(0 0 0)
(0 0 0)
(0 0 0)
(0 0 0)
(0 0 0)
(0 0 0)
(0 0 0)
(-1.15409 -0.521408 -1.4328)
(0 0 0)
(0 0 0)
(0 0 0)
(0 0 0)
(8.47508 -0.910296 -4.0831)
(0 0 0)
(0 0 0)
(0 0 0)
(0 0 0)
(0 0 0)
(0 0 0)
(0 0 0)
(0 0 0)
(0 0 0)
(0 0 0)
(0 0 0)
(0 0 0)
(0 0 0)
(0 0 0)
(0 0 0)
(0 0 0)
(0 0 0)
(0 0 0)
(0 0 0)
(0 0 0)
(0 0 0)
(0 0 0)
(0 0 0)
(3.81741 -0.746603 3.78479)
(-0.723326 1.56696 -0.79705)
(0.950881 5.6215 -13.8957)
(-3.19283 0.341709 1.2949)
(9.64025 -9.12805 2.38532)
(1.39266 0.787469 -0.100871)
(0.519394 0.858939 0.224483)
(0 0 0)
(-4.60331 0.8581 -3.15439)
(-4.00358 3.50703 -2.01946)
(0 0 0)
(0 0 0)
(0.36408 -0.123108 2.24244)
(-0.101536 -1.38814 0.851837)
(-2.36411 0.293853 1.13267)
(5.6692 -1.51929 -1.34069)
(0 0 0)
(0 0 0)
(0 0 0)
(18.4199 -13.7366 4.00492)
(0 0 0)
(0 0 0)
(0 0 0)
(1.43141 -3.34166 -0.0682379)
(0.0701628 0.218808 1.01892)
(0 0 0)
(0.0414619 2.21188 1.21145)
(2.52526 0.833036 1.23553)
(0 0 0)
(0 0 0)
(0 0 0)
(0 0 0)
(0 0 0)
(0 0 0)
(0 0 0)
(0 0 0)
(0 0 0)
(-8.23877 -6.53469 1.04205)
(0 0 0)
(0 0 0)
(1.45273 -6.70402 3.08471)
(0 0 0)
(0 0 0)
(0 0 0)
(0 0 0)
(0 0 0)
(0 0 0)
(0 0 0)
(0 0 0)
(0 0 0)
(0 0 0)
(0 0 0)
(0 0 0)
(0 0 0)
(0 0 0)
(-0.465879 0.0737899 -0.119107)
(0 0 0)
(-1.55958 -0.937453 5.0716)
(0 0 0)
(-2.03202 -14.7719 3.93698)
(0 0 0)
(10.8401 0.670202 -9.41711)
(-7.49493 -0.0181604 2.67246)
(3.42378 7.74406 10.6011)
(1.25988 -12.2219 20.4934)
(1.17271 13.5387 -6.04478)
(15.4787 -8.13518 -7.37721)
(-2.95735 1.52942 0.64998)
(0.912647 -15.1819 -3.15653)
(3.67816 -5.30378 -2.66056)
(0 0 0)
(0 0 0)
(0 0 0)
(-9.34763 -10.8276 13.6181)
(-0.847479 -0.18585 -0.15401)
(-9.35089 0.183262 -0.458039)
(-0.248844 -0.845556 12.3008)
(0 0 0)
(0 0 0)
(6.04699 -7.53565 12.3992)
(-1.0106 -0.194823 -0.650963)
(-4.33638 -2.65399 -3.40361)
(0.111037 -3.22312 4.18185)
(-0.0244297 0.0509722 -0.0228952)
(-8.66628 -6.0655 2.66886)
(10.9126 -4.41674 4.15676)
(8.69582 -3.68352 -0.507147)
(0 0 0)
(-2.32472 -1.02744 1.18417)
(0 0 0)
(0.594061 -1.34648 -1.13414)
(0 0 0)
(-8.74046 0.816363 0.297585)
(6.99134 7.84449 -5.23843)
(3.10331 11.8544 2.79239)
(1.51224 5.27838 2.06846)
(0.00657982 0.0756024 1.01472)
(0.274317 6.40392 1.44539)
(3.79382 -2.72388 -0.310629)
(11.6601 11.3305 -2.11196)
(1.07045 0.806806 -3.3293)
(5.24614 -18.8521 -5.88116)
(19.6152 -31.9591 5.45871)
(-0.0710625 -0.0252985 -0.293604)
(-5.3779 -2.38998 -1.51681)
(-0.28706 1.5911 -0.242744)
(5.74516 0.355201 -4.99098)
(-0.324796 41.8034 0.88039)
(1.49929 17.309 -7.72818)
(-2.28495 8.92003 -5.64385)
(-3.25564 0.198396 5.73521)
(2.44061 -11.2629 5.18239)
(-8.4102 -6.67066 1.06374)
(-0.72283 -1.34368 -3.42899)
(0.161507 3.52137 0.844935)
(1.61057 1.72925 1.41693)
(4.88931 7.86363 -7.64147)
(-2.65363 2.72954 3.23693)
(-0.415402 -1.93804 -2.90221)
(2.02145 -2.92692 -0.442937)
(1.5658 -9.381 1.88286)
(1.75544 1.59768 0.160641)
(-2.46233 6.32844 2.95326)
(0.00704869 0.114597 0.0455117)
(6.19289 3.78518 -7.37828)
(2.6923 1.40843 -3.02683)
(1.50487 7.36951 -0.18077)
(2.74999 -4.11722 -4.65045)
(-8.5129 6.32091 4.80245)
(3.34269 2.40097 -3.04801)
(3.07682 -0.249331 -3.92437)
(8.10806 -6.89426 19.6548)
(-0.067116 4.68947 -2.14124)
(-4.35828 -6.94329 8.60488)
(-6.32339 -8.44313 0.232182)
(0.766406 -4.5917 0.921601)
(2.58623 7.84447 -1.50161)
(-0.00726799 -0.00806535 -0.013762)
(2.34466 8.1839 3.20706)
(-7.47858 -4.15804 -1.3845)
(-1.55994 -0.934331 -1.53784)
(8.83566 -27.8714 -7.57848)
(-9.42818 -4.73408 10.1948)
(-0.415427 0.210022 0.920861)
(-1.23989 1.02262 1.01581)
(-0.315057 0.308096 -1.68642)
(4.37785 -3.72247 10.6124)
(0.148995 -0.539056 -0.635682)
(-0.825469 1.90456 -0.607048)
(5.68055 1.58954 -4.5909)
(2.51369 -5.24251 1.39175)
(-0.169146 -0.202112 -1.00938)
(0.0455068 -0.0693954 -0.261865)
(2.08442 2.32951 0.79851)
(0.62227 -0.0669164 -0.045605)
(-6.45064 -8.61303 0.236854)
(0.588387 0.872736 2.52912)
(3.65772 3.329 0.33472)
(-2.67445 1.67022 1.18543)
(1.32689 1.72999 0.946637)
(-20.6196 3.78022 9.20078)
(-1.47101 -2.70973 3.86414)
(0.438338 6.86531 1.11642)
(-3.21662 3.02607 -2.51019)
(-1.25589 0.844491 -1.41831)
(0 0 0)
(3.47463 -1.00451 4.29385)
(-7.46135 -5.91807 0.943725)
(-2.86884 0.410372 0.340067)
(1.1839 -0.123062 0.575177)
(2.45406 -0.527663 2.07385)
(2.55135 0.100269 -3.93511)
(-2.33854 2.2534 -1.85751)
(-1.433 1.91094 -2.8708)
(-1.7255 -0.440988 1.17478)
(-1.8516 -1.11174 -0.909907)
(10.0879 4.24118 0.493827)
(-17.8795 -1.99722 12.2515)
(2.03245 9.93628 -2.21813)
(0.622455 -8.27559 -1.98378)
(1.67495 2.23145 -2.52334)
(-0.741584 0.402952 0.924088)
(-4.22483 6.76821 0.49241)
(11.157 -4.76741 -8.77462)
(26.2439 0.178228 0.96951)
(3.32484 -0.511219 0.999774)
(3.8316 -4.13734 -0.406646)
(4.76819 -3.92934 7.95601)
(-1.68373 -8.58411 8.83606)
(-1.55962 3.72055 -3.65125)
(0.962039 0.542739 0.259964)
(0.403437 -3.60257 5.2202)
(-6.40981 -1.8605 -0.759869)
(4.53139 -10.7999 8.00528)
(0.754887 0.698239 -0.916949)
(-6.66266 5.72874 2.0757)
(-21.4421 -2.63914 -4.25315)
(16.3625 -3.45039 13.0716)
(6.76141 11.6491 9.76512)
(-1.624 -9.51381 8.72714)
(-5.59166 -5.19512 -18.4516)
(7.07159 7.61888 11.0132)
(3.38204 -0.606423 2.1117)
(-0.375292 -0.205508 0.0922742)
(-2.07834 3.52486 3.48893)
(-9.64006 -9.26683 3.07849)
(2.0793 5.88177 14.767)
(-5.54636 2.06832 2.00192)
(7.79231 -3.99838 -9.85069)
(1.91284 -0.842134 -1.62649)
(0.596112 -1.05664 -3.11581)
(-2.53756 -5.63563 -2.53855)
(-3.26158 4.61539 5.4798)
(-15.6567 -9.58579 -11.4313)
(1.13455 -2.23811 0.0706519)
(-10.6977 7.39943 -9.94606)
(-2.00782 -0.943947 -0.99479)
(-13.9978 -8.57015 -10.2201)
(0.611386 3.69943 -8.82833)
(-2.68074 -10.475 1.93163)
(-0.00576477 0.383322 -1.074)
(-4.48388 -4.95878 1.59327)
(0.337872 0.0520173 -0.174276)
(-6.20116 0.57906 -6.34873)
(0.113724 12.7471 -8.17109)
(15.1894 3.63753 8.30949)
(-5.98652 2.89324 6.76947)
(-0.314755 0.331582 0.361145)
(-4.43421 -0.894327 -7.80428)
(0.837558 17.3455 -8.60797)
(0.281421 -1.85472 1.95682)
(-0.896035 -11.0283 5.53332)
(0 0 0)
(1.77471 0.7057 2.47435)
(1.02339 -4.75363 -0.676229)
(1.08376 -6.49304 1.30322)
(1.38717 1.77938 -1.64685)
(1.90112 1.73026 0.173972)
(-15.0322 -14.4502 4.80045)
(3.85897 -3.18007 6.43891)
(10.6201 -4.91503 1.12723)
(-1.7598 -3.41461 -16.0833)
(-0.447101 -0.680554 -0.246)
(-17.4265 -8.45532 -6.85322)
(0.20581 4.48729 1.0767)
(-19.6683 5.29486 21.0533)
(0.806613 -0.12963 0.287674)
(-20.3933 -1.24661 -1.38369)
(-4.04095 -29.214 23.2369)
(-0.169902 6.66488 -7.76692)
(-0.409094 -4.31376 -14.5446)
(-0.120156 0.379432 -0.0417607)
(0.377434 -1.51822 1.30682)
(2.99146 -3.44027 2.7106)
(0.418537 0.831976 2.45956)
(-5.83605 0.839954 0.819894)
(0 0 0)
(12.8118 -4.78145 7.62506)
(4.67306 5.03122 14.6994)
(-1.10218 -2.08572 0.0743842)
(-12.3992 2.02453 6.50564)
(12.1301 10.534 8.32879)
(1.90395 2.71582 3.01691)
(6.34222 -10.8876 -26.5131)
(-1.48646 -2.99742 -1.25992)
(-3.36481 -7.47287 -3.36614)
(0 0 0)
(3.34548 1.95279 -2.95621)
(2.91735 2.71873 -2.63948)
(-4.59199 -7.31561 9.06631)
(2.87184 -10.32 -3.21947)
(-0.617122 0.31199 1.36795)
(4.38768 -9.02481 -2.43047)
(-0.385125 -0.925898 0.51176)
(-5.95938 -6.59056 2.11756)
(0 0 0)
(-2.32723 -6.67424 -0.768915)
(9.86517 -3.68175 5.87136)
(-3.6978 -10.6049 -1.22175)
(-0.0431256 -4.43841 2.88513)
(-9.35235 1.41114 0.552874)
(1.90368 -0.154265 -2.42807)
(-5.1646 9.77466 5.61513)
(0.740372 -0.00879202 -0.786568)
(0 0 0)
(1.19298 0.899156 -3.71038)
(2.77465 -1.00969 -9.07361)
(10.067 -0.0907531 23.3318)
(22.128 -12.3652 -7.28125)
(-2.81656 4.34951 2.76776)
(20.6496 11.0564 -5.92552)
(-2.90316 7.46143 3.48199)
(0.32117 0.443009 0.754873)
(0 0 0)
(-3.74693 1.26217 0.607316)
(-11.2354 -2.7866 -3.7153)
(1.48868 2.8216 -8.40028)
(-0.00482208 -0.00535111 -0.00913067)
(3.3415 -1.60079 -3.85031)
(2.80632 -1.23549 -2.38621)
(0.417906 1.79874 2.24834)
(-0.664708 0.541574 2.80037)
(-1.63176 3.42471 -3.72468)
(-0.573911 -7.06362 3.5441)
(-10.655 8.7461 8.58156)
(-6.34034 -6.35503 6.37899)
(1.46401 15.7647 2.24344)
(-4.84206 -1.40545 -0.574016)
(10.3608 -2.18481 8.27704)
(-29.95 2.10848 -16.2343)
(-1.68538 -4.03706 5.09219)
(0 0 0)
(2.98448 6.06646 -6.72302)
(0.0040825 -0.469927 0.281573)
(-6.63144 -5.46207 -1.02406)
(-2.36659 -17.1092 13.6087)
(-26.381 -8.87455 10.3316)
(0 0 0)
(-1.82793 -3.29686 2.80314)
(0 0 0)
(0 0 0)
(1.19849 -5.17142 -7.61705)
(-17.3289 -5.82942 6.78649)
(-1.5104 -5.41678 -3.87786)
(2.23611 -5.51223 -7.98139)
(-26.0936 -14.1576 -3.51886)
(2.99095 -2.11529 0.600239)
(-4.24009 -23.3568 22.7109)
(0 0 0)
(9.74825 -4.16545 -7.66669)
(-3.49075 3.28396 -2.72412)
(-15.182 12.462 12.2276)
(2.04322 2.28346 0.782727)
(-5.11576 -9.02027 7.15304)
(1.70652 -3.36644 0.106271)
(-1.14747 -8.43404 -2.75801)
(-0.330827 1.83368 -0.279754)
(-4.83537 -5.19182 -11.5246)
(0 0 0)
(5.78965 6.23773 9.0167)
(-8.24969 -11.5851 16.0408)
(-1.17558 -12.0142 10.8005)
(-0.934764 0.628558 -1.05565)
(0 0 0)
(0 0 0)
(3.56363 -8.49339 6.29561)
(-0.178342 22.9538 0.483413)
(-7.30506 -9.75388 0.268227)
(0.15651 3.65372 0.82466)
(0 0 0)
(0 0 0)
(0 0 0)
(0 0 0)
(0 0 0)
(3.09208 -2.38112 -5.40421)
(-15.6299 -7.56011 2.60752)
(-1.91524 1.49927 1.61679)
(-5.73962 -3.13087 -0.832302)
(1.65683 0.302047 1.0741)
(-13.8647 2.0456 -14.3944)
(-3.59081 -4.85184 1.96646)
(3.56048 6.55708 4.30558)
(1.62922 -2.8675 0.337739)
(1.22733 -1.37612 -1.80866)
(-1.67515 -7.61517 -11.7852)
(-0.988394 -3.41774 -2.42188)
(3.1383 1.09202 2.18046)
(-5.71097 2.66063 -3.37487)
(2.07241 -8.94234 -13.1713)
(-28.5891 -17.5036 -20.8735)
(-1.5055 7.25014 18.0402)
(-10.483 -11.2558 -24.9852)
(-27.8369 15.8647 10.1017)
(0.107414 0.117592 -0.00739633)
(-1.52982 -0.285193 1.78461)
(-1.03257 2.95893 -5.07799)
(-4.24362 -5.75122 12.0408)
(-0.886275 -2.81958 12.3205)
(3.27146 12.4967 2.9437)
(-1.024 -2.69427 -0.783996)
(-1.90613 3.76525 8.98717)
(-8.11265 2.3114 -10.5181)
(3.5852 5.24649 -5.8359)
(-0.14925 -7.33659 -12.4764)
(1.7935 -7.08475 -8.15633)
(19.5146 4.39148 -7.143)
(0.721898 -1.3497 0.870572)
(-3.20724 -1.47454 8.17865)
(2.24453 0.786765 -7.93657)
(2.85975 4.18488 -4.65503)
(-0.261291 0.323287 -0.0864352)
(6.57115 -3.39538 -0.955781)
(10.3556 0.120106 4.97804)
(4.87233 4.82058 7.60791)
(2.42126 -3.64879 2.35099)
(3.53181 -2.26789 1.3321)
(0.664328 -2.041 -1.99757)
(34.7052 -19.3934 -11.4198)
(-0.880241 -2.80038 12.2367)
(0.463122 -1.42284 -1.39256)
(-1.64035 7.89954 19.6561)
(24.4674 5.50603 -8.95588)
(10.9176 -7.08627 0.316179)
(4.69376 3.75513 3.87765)
(-2.25031 1.23787 9.13995)
(-1.43538 0.335788 0.404288)
(2.26338 11.1498 -6.07591)
(1.67574 1.73433 -9.69782)
(2.50178 -2.70141 -0.265513)
(-13.2925 -6.93765 4.12481)
(1.195 1.23677 -6.91566)
(14.0108 -2.65917 -5.09909)
(1.71986 -1.92837 -2.53449)
(-2.69765 -6.55456 -1.98827)
(-10.317 -10.3409 10.3799)
(12.1097 7.47987 5.31423)
(-16.7786 -7.74379 -2.08052)
(-7.6172 7.71438 3.18895)
(4.78244 4.73164 7.46754)
(-3.59949 -1.96346 -0.521962)
(1.33109 -22.1427 -4.60378)
(-3.12078 6.16462 14.7141)
(19.3165 10.3426 -5.54298)
(-19.375 -8.9421 -2.40247)
(2.50375 0.456442 1.62314)
(-8.99992 5.39655 -2.29982)
(-1.58053 -3.16739 2.27691)
(-0.107908 -5.30439 -9.0205)
(-11.1255 -9.16366 -1.71805)
(-4.54928 -11.0536 -3.353)
(5.02895 -4.71053 1.20216)
(-5.5114 0.294578 5.39701)
(7.83199 -8.45693 -0.831205)
(-0.0681803 -0.529128 -7.19388)
(6.40574 -7.9697 7.23987)
(3.10436 -4.67821 3.01427)
(16.4667 -7.62086 1.74779)
(-16.6703 9.50068 6.04946)
(0.386121 0.868606 0.460359)
(-2.11784 -1.79647 4.87969)
(19.6616 10.5274 -5.64201)
(-11.943 -11.9707 12.0158)
(-10.2483 4.57145 -7.83848)
(-3.42121 -4.62268 1.87359)
(1.02015 -1.90733 1.23024)
(-8.58428 8.9209 -11.4411)
(-50.1211 3.52852 -27.168)
(5.39645 0.0625891 2.59414)
(-3.17451 -1.07389 1.71898)
(-0.219908 -0.325301 0.665716)
(7.93312 -5.14912 0.229746)
(1.54471 17.8334 -7.96232)
(1.84763 -3.2519 0.383015)
(3.69614 1.28613 2.56805)
(0.0952513 0.104277 -0.00655884)
(-6.03077 3.61618 -1.54109)
(-6.50866 -4.41259 9.36956)
(9.75109e-05 -0.000130471 -0.000231618)
(1.41087 -23.47 -4.87973)
(1.72707 19.9387 -8.90228)
(-3.53911 1.94684 14.3746)
(-12.001 -5.80481 2.00211)
(-0.0804062 -0.624009 -8.48387)
(3.04145 1.35993 -4.07177)
(5.66721e-05 -7.58283e-05 -0.000134613)
(-8.55918 8.66838 3.58331)
(5.72682 -11.9246 -0.29816)
(2.49773 0.875518 -8.83188)
(-3.46696 -6.94782 4.99452)
(1.66923 8.22292 -4.48096)
(5.9316 -5.55602 1.41794)
(21.7288 -12.1421 -7.1499)
(9.28419 -1.76209 -3.3789)
(0.875184 1.96879 1.04345)
(-4.18693 -2.83856 6.0273)
(-4.15373 0.516298 1.99009)
(8.01149 -3.70775 0.850347)
(-10.3422 -8.20302 1.30809)
(-0.894183 -4.17178 -6.24723)
(-12.8931 -7.89379 -9.41353)
(0.121866 -3.53747 4.58971)
(-10.4397 -3.92386 11.8276)
(2.12266 0.949106 -2.84172)
(-7.60827 0.785334 0.0566913)
(-0.293371 -0.433972 0.888107)
(-0.789344 -0.356618 -0.979968)
(-3.41345 7.67258 -2.93976)
(5.8535 10.322 2.68738)
(2.5812 -0.555 2.1813)
(0.00968671 0.111301 1.49386)
(-5.38155 -6.68358 -3.60378)
(-4.18634 -8.38944 6.03084)
(-6.40566 -2.40763 7.25726)
(4.06405 -8.35915 -2.2512)
(1.14153 6.68953 -0.0996876)
(-2.83195 0.460251 -0.539913)
(-3.84437 -15.0218 2.77009)
(8.23667 0.509241 -7.15543)
(-0.692109 10.7922 0.654537)
(-6.75196 0.360884 6.61182)
(-5.01834 2.31912 -3.9345)
(-13.0269 1.92199 -13.5246)
(0.3798 2.22568 -0.0331672)
(6.26412 4.76291 -6.52465)
(18.1474 11.2092 7.96384)
(-3.68675 -1.24718 1.99636)
(-4.30553 -2.84946 -6.34556)
(-6.69257 -10.6621 13.2136)
(5.06486 4.92169 -0.917382)
(2.52432 -11.6492 5.36014)
(0.598855 0.100041 -0.20352)
(-4.55936 -3.75538 -0.704078)
(-5.52004 -7.66133 5.44496)
(-3.44396 3.89672 -8.69316)
(-11.5243 11.9763 -15.3596)
(-5.02678 0.115058 -7.72891)
(2.39562 -4.98823 -0.124725)
(-13.2979 -9.30719 4.09523)
(0.222339 -0.164556 0.481669)
(3.38475 -1.56951 -0.0313227)
(4.53192 -2.29631 0.363846)
(6.3854 4.85164 4.73984)
(-0.0934519 1.25288 -1.41312)
(0.627949 -0.464752 1.36037)
(0.306194 1.31791 1.64732)
(-45.657 3.21425 -24.7482)
(-3.45097 6.12521 -10.4904)
(8.57143 6.5126 6.36252)
(-2.7469 -9.85126 -7.0525)
(1.94718 -8.40199 -12.3754)
(14.4858 11.0142 -15.0883)
(-1.51552 -1.00299 -2.2336)
(2.56267 -1.81239 0.514288)
(-1.66684 -1.41391 3.84055)
(-5.02726 -5.39786 -11.982)
(-0.0670444 0.211714 -0.0233015)
(-3.8288 -14.961 2.75887)
(18.3107 6.95674 -22.6783)
(-4.62144 2.1357 -3.62332)
(1.23046 -3.03319 -4.39188)
(-11.6697 -8.16759 3.5938)
(-6.44881 1.04806 -1.22947)
(-4.78365 -6.63929 4.71859)
(-3.84269 -0.0923617 -1.88496)
(3.67052 -6.03523 -0.386832)
(-4.34541 0.625413 0.610477)
(0.77104 7.10205 -4.86688)
(1.97981 1.10882 -1.5885)
(1.35644 0.0257522 -0.42424)
(4.49361 0.929925 -0.887104)
(4.35667 -9.0716 -0.226825)
)


// ************************************************************************* //
