/*--------------------------------*- C++ -*----------------------------------*\
  =========                 |
  \\      /  F ield         | OpenFOAM: The Open Source CFD Toolbox
   \\    /   O peration     | Website:  https://openfoam.org
    \\  /    A nd           | Version:  7
     \\/     M anipulation  |
\*---------------------------------------------------------------------------*/
FoamFile
{
    version     2.0;
    format      ascii;
    class       labelField;
    location    "0.1475/lagrangian/reactingCloud1";
    object      cellId;
}
// * * * * * * * * * * * * * * * * * * * * * * * * * * * * * * * * * * * * * //


1205
(
89
22
19
15
54
51
54
45
51
79
116
154
189
182
189
185
259
259
255
410
293
287
291
357
361
363
355
429
433
549
468
463
583
537
612
575
572
609
611
606
604
637
639
709
713
786
741
814
813
836
839
836
866
865
865
866
923
920
950
946
1001
1024
1026
1028
1032
1048
800
980
1046
1024
800
1009
1008
992
962
950
945
927
881
903
882
865
856
829
805
806
782
700
641
727
722
703
681
666
649
630
604
585
569
573
544
537
506
484
466
470
448
434
401
387
386
372
345
322
309
303
281
276
245
252
221
205
188
184
162
142
122
126
119
60
40
62
51
26
5
3
755
715
1038
1039
1021
1023
979
1004
980
961
736
968
836
925
922
887
777
797
865
716
716
799
824
737
737
825
784
760
767
740
742
475
555
679
709
684
664
596
666
648
599
579
475
537
559
539
523
521
497
456
478
478
456
458
460
445
439
428
409
600
620
420
400
540
964
1028
923
924
943
968
948
978
957
925
822
823
893
784
833
663
729
705
666
667
698
671
551
553
535
442
424
383
343
412
300
372
303
307
283
309
284
160
299
249
255
205
184
212
145
130
128
106
69
67
41
43
50
437
466
431
548
433
485
518
685
573
539
567
625
591
735
758
811
811
841
836
888
893
951
977
999
1001
399
404
339
296
279
279
283
201
187
40
61
0
22
37
163
118
40
0
49
160
14
159
77
154
79
320
149
149
149
148
192
145
192
279
141
277
189
142
189
358
232
183
318
274
273
275
229
230
226
272
227
228
272
271
269
270
224
312
270
353
308
264
353
566
477
525
479
350
352
347
346
347
391
604
433
387
387
474
432
428
431
424
428
471
518
512
470
466
467
555
552
552
551
595
635
594
763
590
634
633
634
586
630
625
721
627
670
758
664
671
667
666
667
708
712
707
712
756
754
841
792
791
787
791
788
834
830
835
824
833
827
829
873
874
908
907
957
915
908
911
913
949
956
956
954
945
12
12
29
0
23
8
6
4
94
6
21
20
209
42
93
39
94
36
59
32
58
94
37
51
55
83
89
127
126
124
231
156
195
157
193
193
192
187
187
228
191
301
226
298
331
330
329
327
294
355
363
400
364
474
397
364
394
436
392
470
578
433
466
461
463
462
499
615
608
608
498
532
569
569
605
605
601
603
598
633
628
662
622
630
628
663
654
693
688
691
680
680
688
721
719
747
738
749
748
739
843
779
803
799
835
835
862
863
892
892
920
921
909
918
947
952
949
947
950
946
948
978
979
1011
1005
1004
992
1031
1031
1033
890
691
519
773
579
517
866
787
70
185
111
149
78
143
16
153
15
15
44
142
109
73
77
141
46
105
167
140
74
82
139
176
114
112
73
165
136
102
205
137
105
227
107
135
166
132
102
164
134
227
174
134
110
163
134
286
198
107
254
140
131
256
193
253
228
162
326
191
199
199
199
189
221
189
251
248
228
189
353
219
217
285
278
219
291
308
337
245
335
276
276
365
247
245
393
306
245
273
273
301
304
274
307
333
301
301
302
374
273
330
391
421
410
421
361
385
311
390
392
399
329
329
420
422
448
389
371
418
357
418
429
418
366
418
420
480
478
385
481
417
386
424
413
474
470
473
441
475
442
442
474
424
443
503
455
470
532
452
502
516
500
497
563
530
561
529
527
478
525
557
558
618
556
584
585
566
584
615
615
596
676
610
674
639
701
591
702
637
624
701
589
590
668
667
695
668
698
730
665
696
623
729
617
727
757
699
695
725
722
618
648
723
753
716
787
214
782
785
676
675
780
781
806
810
777
813
810
810
773
805
732
810
806
840
834
833
833
801
770
866
862
864
762
864
760
895
864
861
891
924
889
924
891
919
793
815
951
920
951
951
951
979
978
977
978
978
979
973
975
885
885
1004
1006
1006
101
1006
1006
906
1016
1014
1018
1016
1015
900
933
1022
1031
1027
1025
1027
1030
1026
1036
936
1037
1036
1039
1035
1033
1050
1047
1043
961
956
1043
1045
1050
1051
1055
111
5
54
4
111
34
3
159
33
185
26
156
31
77
105
152
24
127
48
51
49
51
48
58
204
74
72
50
48
125
126
97
74
207
96
126
120
285
120
224
99
122
120
294
149
171
305
224
168
169
292
248
196
169
144
168
168
222
193
220
192
192
217
217
324
247
216
303
217
375
268
242
244
319
320
267
373
264
320
291
430
312
288
290
319
292
313
315
337
313
288
340
341
317
312
336
391
337
313
337
336
360
449
470
343
366
417
390
414
385
410
416
410
467
408
410
456
437
464
411
464
408
408
411
434
461
432
483
432
545
462
435
408
456
563
456
457
460
485
590
480
509
508
460
528
484
510
505
528
559
507
531
564
532
556
532
528
529
528
583
611
634
552
634
576
577
579
558
552
629
576
580
578
633
576
576
576
663
600
631
660
603
471
601
631
653
625
684
681
648
648
677
737
672
705
703
723
672
672
703
673
672
749
695
696
698
718
784
718
776
796
742
745
770
741
741
741
768
769
825
743
764
767
764
794
787
766
816
788
845
872
839
845
810
842
844
787
810
843
838
868
833
834
838
888
833
857
834
856
857
856
878
881
878
878
905
910
903
902
902
934
904
923
940
931
923
922
937
928
923
957
954
937
922
956
947
926
955
953
952
950
944
944
970
969
966
972
968
998
990
992
990
991
1003
1014
1010
1013
1012
1012
1017
1015
1015
1024
1041
1035
1043
1032
1033
1032
1033
60
590
635
847
996
183
430
191
491
520
554
543
509
562
676
493
646
562
645
686
683
686
143
790
808
883
503
809
920
765
992
1041
)


// ************************************************************************* //
