/*--------------------------------*- C++ -*----------------------------------*\
  =========                 |
  \\      /  F ield         | OpenFOAM: The Open Source CFD Toolbox
   \\    /   O peration     | Website:  https://openfoam.org
    \\  /    A nd           | Version:  7
     \\/     M anipulation  |
\*---------------------------------------------------------------------------*/
FoamFile
{
    version     2.0;
    format      ascii;
    class       vectorField;
    location    "0.1475/lagrangian/reactingCloud1";
    object      coordinates;
}
// * * * * * * * * * * * * * * * * * * * * * * * * * * * * * * * * * * * * * //


1205
(
(1.76424 0.0970436 -1.21935e-07)
(1.80673 0.074147 1.1065e-07)
(1.82052 0.0538581 -8.54422e-08)
(1.81207 0.0258363 8.05267e-14)
(1.77483 0.0776329 -8.88362e-08)
(1.77556 0.0560651 -2.95404e-07)
(1.77056 0.0788438 9.99996e-09)
(1.77732 0.0148515 1.1013e-13)
(1.7702 0.0534497 2.21786e-07)
(1.76145 0.0246097 1.33224e-13)
(1.72661 0.0579318 -1.65457e-07)
(1.69227 0.0821576 -5.21837e-07)
(1.68463 0.0799798 3.64248e-07)
(1.68955 0.0341949 -9.35067e-14)
(1.66904 0.0808421 3.24632e-07)
(1.67359 0.0555166 1.152e-07)
(1.63125 0.0813374 1.68873e-07)
(1.63644 0.0794379 -4.00058e-08)
(1.63834 0.0501434 1.72927e-07)
(1.53187 0.134575 3.80095e-07)
(1.6065 0.0721242 4.13282e-07)
(1.61457 0.0320823 -4.33495e-07)
(1.59986 0.0606914 -2.83754e-07)
(1.5713 0.0351385 -3.62057e-13)
(1.56989 0.0608951 -7.42958e-08)
(1.55886 0.0734427 7.93726e-08)
(1.56193 0.0200456 -2.19879e-13)
(1.51842 0.0447769 -3.32257e-13)
(1.50892 0.0731659 -3.86655e-07)
(1.44788 0.125667 -7.48892e-08)
(1.48838 0.0736567 -1.21547e-07)
(1.49206 0.0400439 6.42532e-15)
(1.43873 0.119519 -3.7537e-07)
(1.45125 0.0686465 2.55533e-07)
(1.42423 0.0945776 2.47088e-07)
(1.43187 0.0846302 3.42752e-07)
(1.44603 0.0646769 2.72626e-07)
(1.40874 0.082134 4.37875e-07)
(1.41884 0.0898715 2.23599e-08)
(1.41398 0.0562225 1.49917e-08)
(1.41476 0.04325 -4.40651e-13)
(1.40659 0.0316666 1.85007e-13)
(1.40062 0.0471585 -6.96451e-12)
(1.3633 0.055255 -4.09211e-08)
(1.3559 0.0835895 -1.6539e-07)
(1.33172 0.108541 -4.01147e-07)
(1.34912 0.0454826 -1.31544e-13)
(1.31316 0.0789667 -4.98297e-07)
(1.30114 0.0725557 -1.92944e-08)
(1.29822 0.0432933 -7.149e-13)
(1.29476 0.0683138 -3.87834e-07)
(1.28919 0.0437135 -4.79069e-13)
(1.28094 0.06544 1.22915e-07)
(1.27485 0.058467 5.94106e-07)
(1.27809 0.0600337 2.72305e-08)
(1.27451 0.0650105 -5.40209e-08)
(1.24855 0.0833528 1.76085e-08)
(1.24216 0.0619564 8.44294e-08)
(1.23414 0.0826054 1.97621e-07)
(1.2223 0.060112 2.5121e-07)
(1.20487 0.0663612 2.3357e-07)
(1.1893 0.0394786 -2.98261e-12)
(1.18583 0.0491201 -1.38874e-13)
(1.1827 0.0651529 6.37037e-09)
(1.18779 0.0880721 8.95342e-08)
(1.16325 0.0168914 -2.41937e-13)
(0.377936 0.137307 1.0053e-07)
(0.414938 0.142512 7.00118e-08)
(0.427855 0.100844 1.39913e-10)
(0.425135 0.121644 6.34012e-11)
(0.381059 0.13897 1.87763e-07)
(0.420772 0.0816556 -9.11634e-12)
(0.4183 0.0896145 -5.73178e-12)
(0.4141 0.0526361 2.44389e-11)
(0.413357 0.133445 7.17351e-11)
(0.407786 0.0700913 -2.74057e-11)
(0.407004 0.108605 9.97772e-12)
(0.402855 0.0942063 2.69757e-11)
(0.396028 0.131817 -3.89402e-07)
(0.398403 0.121611 1.71251e-12)
(0.394673 0.128208 7.48129e-12)
(0.38999 0.099622 -8.57173e-12)
(0.383331 0.0237931 -2.14382e-12)
(0.381731 0.0764109 -3.75586e-11)
(0.380026 0.0975365 -1.98401e-12)
(0.376239 0.09533 -3.53632e-11)
(0.374144 0.120753 -3.22764e-12)
(0.355472 0.129607 1.5739e-07)
(0.342937 0.12243 9.03683e-07)
(0.360964 0.0840405 -2.55156e-11)
(0.359302 0.114806 -1.86113e-11)
(0.355569 0.11106 -2.08293e-11)
(0.3516 0.121755 -3.48704e-11)
(0.345791 0.0923256 -7.7343e-11)
(0.340779 0.0721372 -5.21532e-11)
(0.337505 0.0633359 -9.62523e-12)
(0.334722 0.101982 -4.54562e-11)
(0.330889 0.0943067 3.7156e-12)
(0.32545 0.0709412 -8.85919e-14)
(0.321532 0.0440332 -5.78487e-15)
(0.319422 0.0982823 -1.18918e-10)
(0.31371 0.0140655 -4.27266e-12)
(0.311021 0.0857757 6.86808e-13)
(0.306754 0.10222 -1.67263e-11)
(0.302443 0.0894197 4.06458e-12)
(0.297712 0.0643154 -4.21714e-12)
(0.29434 0.0733964 2.27658e-12)
(0.289605 0.0374532 -2.08878e-11)
(0.287313 0.118909 4.18316e-11)
(0.282287 0.0830062 -7.06399e-12)
(0.279195 0.0897904 -8.69527e-12)
(0.27477 0.0479603 3.19171e-13)
(0.271227 0.0965313 -4.94633e-11)
(0.266622 0.112586 -6.91218e-13)
(0.262265 0.0661096 2.57659e-12)
(0.258919 0.105639 4.42465e-11)
(0.254764 0.12091 8.97584e-12)
(0.250908 0.0225377 7.09611e-13)
(0.247364 0.0956406 4.23022e-13)
(0.242966 0.0460416 7.08515e-13)
(0.238445 0.11624 -1.1082e-12)
(0.23545 0.0962573 -1.26479e-11)
(0.231378 0.0769824 -3.60939e-12)
(0.227506 0.102108 1.07566e-11)
(0.223519 0.115225 -7.75305e-13)
(0.219494 0.111314 -2.22982e-12)
(0.215105 0.113532 6.98346e-12)
(0.211432 0.0850232 6.11684e-12)
(0.206709 0.0054494 -6.07066e-14)
(0.197375 0.126579 -8.72762e-15)
(0.192066 0.1276 -2.48737e-13)
(0.195148 0.114935 5.25398e-12)
(0.191001 0.0572802 -5.11311e-13)
(0.187534 0.0844796 -2.01022e-13)
(0.182944 0.0921424 1.13395e-11)
(0.179574 0.107489 -3.53629e-13)
(0.507628 0.162261 4.38872e-07)
(0.498836 0.163671 -1.73286e-07)
(0.568469 0.125456 -1.25202e-10)
(0.565665 0.118702 -1.53308e-12)
(0.563686 0.10527 -5.04317e-12)
(0.562457 0.0905231 5.88394e-11)
(0.555493 0.119072 -4.17081e-11)
(0.556521 0.0785825 3.36892e-11)
(0.552238 0.107923 7.4119e-11)
(0.548396 0.101035 9.3834e-11)
(0.503906 0.154272 1.5419e-07)
(0.548389 0.0539491 8.62375e-11)
(0.523752 0.147801 4.1565e-07)
(0.539685 0.0739199 1.68737e-13)
(0.538595 0.0968489 -4.80052e-12)
(0.533162 0.0601166 4.85623e-13)
(0.512127 0.142368 -2.39226e-08)
(0.514916 0.139715 -3.10201e-07)
(0.527945 0.0777399 7.6585e-11)
(0.498827 0.152074 -1.10939e-08)
(0.499211 0.149972 1.71741e-07)
(0.515063 0.127155 2.39399e-11)
(0.518629 0.0864877 2.65486e-11)
(0.504558 0.142456 1.79304e-07)
(0.505104 0.140539 -2.69738e-08)
(0.517761 0.0726251 1.65045e-11)
(0.511669 0.0831862 2.28474e-11)
(0.508975 0.114165 2.33541e-11)
(0.507775 0.0605398 3.88464e-12)
(0.502559 0.121373 7.75634e-11)
(0.501494 0.101872 2.9032e-11)
(0.448053 0.160485 -5.01581e-07)
(0.464154 0.158347 4.14406e-07)
(0.490447 0.130654 1.355e-10)
(0.494429 0.0432486 1.65281e-11)
(0.489346 0.0871541 4.85492e-12)
(0.486679 0.089536 1.05185e-10)
(0.473475 0.149917 4.90849e-08)
(0.484469 0.072286 6.74518e-13)
(0.479576 0.0504972 -1.61372e-13)
(0.475998 0.129133 5.08875e-11)
(0.470926 0.129989 4.99254e-11)
(0.448454 0.156903 -1.94465e-08)
(0.463145 0.143481 -5.53139e-09)
(0.464211 0.12768 4.98463e-11)
(0.461837 0.12898 1.38285e-10)
(0.456277 0.0905349 9.06107e-11)
(0.458309 0.112385 5.52038e-13)
(0.453286 0.144551 -4.39945e-07)
(0.447123 0.148519 -2.19996e-07)
(0.449826 0.136996 2.41374e-10)
(0.448823 0.129683 2.82411e-10)
(0.445744 0.145202 -4.29992e-07)
(0.4464 0.131281 5.79053e-12)
(0.444537 0.113912 1.39034e-10)
(0.439364 0.0766611 -5.18517e-12)
(0.442252 0.121117 -2.66965e-12)
(0.435617 0.0534809 3.94125e-11)
(0.429763 0.0414871 -8.55755e-12)
(0.7014 0.112429 -9.12428e-07)
(0.705079 0.110564 -4.34059e-08)
(0.661544 0.12399 -7.80277e-08)
(0.657829 0.125697 6.08684e-08)
(0.686317 0.115387 1.42073e-07)
(0.799412 0.0826234 9.36879e-09)
(0.816984 0.0589747 7.74808e-12)
(0.785454 0.0852519 -3.88446e-07)
(0.783822 0.0830566 2.08652e-07)
(0.793946 0.0851814 -1.37576e-07)
(0.797758 0.061339 -1.82738e-10)
(0.793866 0.0589995 1.34681e-12)
(0.798113 0.00792252 -8.5428e-12)
(0.789628 0.011825 -4.86113e-12)
(0.787643 0.0731827 1.18067e-07)
(0.754944 0.0894117 -1.19621e-07)
(0.75855 0.0832588 1.39363e-07)
(0.774526 0.0338623 -1.28514e-10)
(0.744752 0.0787271 -1.72737e-08)
(0.759762 0.0325193 3.94694e-11)
(0.715969 0.0897221 -2.03693e-07)
(0.731985 0.0541129 7.37085e-11)
(0.723202 0.0764882 1.27686e-10)
(0.715736 0.0732014 4.89086e-07)
(0.717849 0.0647448 1.0498e-11)
(0.72165 0.00973092 -1.11738e-13)
(0.717676 0.0431792 7.57052e-13)
(0.688811 0.0466877 2.1276e-11)
(0.688014 0.0393469 1.13569e-11)
(0.681652 0.0279747 7.79151e-12)
(0.66594 0.110593 1.91003e-08)
(0.662622 0.0993092 1.64785e-11)
(0.652847 0.104856 -7.44846e-11)
(0.644609 0.109857 4.55422e-11)
(0.653886 0.0487549 1.20433e-12)
(0.632543 0.127502 6.2715e-08)
(0.646123 0.0458884 6.95252e-11)
(0.634971 0.106569 1.3096e-10)
(0.63247 0.0831862 7.81725e-07)
(0.631352 0.107455 4.08468e-11)
(0.633751 0.0703081 2.02292e-11)
(0.629937 0.102273 1.02131e-10)
(0.605633 0.139011 -3.41219e-07)
(0.627611 0.0052811 2.08577e-12)
(0.619043 0.0743877 -4.87462e-13)
(0.618829 0.0311948 -1.59611e-12)
(0.611478 0.0992145 1.97244e-11)
(0.609359 0.107043 6.78157e-12)
(0.610593 0.0535956 -4.34916e-13)
(0.598973 0.105453 -4.44849e-13)
(0.594299 0.0700874 1.50876e-11)
(0.59385 0.0825185 -5.05097e-12)
(0.591681 0.0973862 7.49355e-12)
(0.582452 0.0809281 1.39815e-10)
(0.582193 0.0912808 2.81357e-11)
(0.58116 0.134058 1.07639e-07)
(0.578735 0.124598 4.22719e-11)
(0.578241 0.0701002 1.43697e-11)
(1.16178 0.0746317 4.26198e-07)
(1.1429 0.0862951 3.50767e-08)
(1.15888 0.0380126 -1.08241e-12)
(1.10383 0.0940828 2.26945e-08)
(1.15153 0.0501301 -5.66046e-13)
(1.12611 0.0378205 -4.96135e-13)
(1.10931 0.0756188 1.80195e-07)
(1.04663 0.100538 -4.1052e-07)
(1.09372 0.0826417 2.84699e-10)
(1.09757 0.0376402 -6.32835e-14)
(1.08504 0.0396255 -1.56969e-14)
(1.06995 0.0679376 7.15804e-07)
(1.07849 0.0224917 3.32884e-12)
(1.01848 0.079071 -2.06285e-08)
(1.01528 0.0568388 3.16773e-12)
(0.992371 0.0473347 3.85898e-12)
(0.986527 0.0450785 1.47785e-11)
(0.978855 0.0707848 3.53177e-07)
(0.978568 0.0331567 1.28417e-11)
(0.964531 0.0255464 4.82236e-13)
(0.956592 0.057078 3.86343e-13)
(0.945792 0.0792849 5.41872e-08)
(0.936144 0.0744793 2.03755e-07)
(0.926319 0.0377864 2.78452e-12)
(0.920902 0.0551868 -1.61487e-11)
(0.905048 0.0868124 2.71961e-07)
(0.906067 0.0575824 -3.39806e-11)
(0.885293 0.0833743 2.34019e-07)
(0.867236 0.0962945 -1.76441e-07)
(0.864618 0.0830257 -4.22906e-07)
(0.863716 0.0859748 1.09559e-07)
(0.86485 0.0598356 5.94666e-11)
(0.834123 0.0717405 3.39353e-08)
(0.830846 0.0383871 -1.04281e-06)
(4.5487 0.158398 6.05772e-07)
(4.4775 0.205324 5.26911e-07)
(4.66935 0.0928325 -6.57639e-07)
(4.62819 0.148273 -5.53235e-07)
(4.56664 0.145484 5.09084e-07)
(4.33307 0.167438 -6.40207e-08)
(4.40642 0.152115 -1.79167e-07)
(4.55296 0.159087 3.81778e-07)
(4.71093 0.0936133 7.07386e-07)
(4.51762 0.128985 -4.55876e-07)
(4.30303 0.151915 -2.8077e-08)
(4.61997 0.0827924 6.42507e-08)
(4.30404 0.144618 -1.01949e-07)
(4.44837 0.0970977 -1.50828e-08)
(4.31925 0.119636 -7.70489e-08)
(4.43604 0.111272 -1.85587e-07)
(4.04746 0.127933 -5.66625e-08)
(4.32373 0.0739423 -5.91005e-07)
(4.31291 0.0784372 8.37523e-08)
(4.30163 0.0763501 -9.71514e-08)
(4.33087 0.066049 -2.6909e-07)
(4.23879 0.0815534 2.89961e-07)
(4.33776 0.0361936 -9.19921e-08)
(4.2391 0.0793753 1.11274e-07)
(4.11983 0.121413 -1.10328e-07)
(4.30863 0.0119391 5.12068e-08)
(4.1475 0.111214 6.04976e-08)
(4.2546 0.0562975 -4.03064e-07)
(4.29695 0.0170686 -1.4783e-07)
(4.23892 0.0568027 -1.00245e-07)
(4.03753 0.116053 -1.03818e-06)
(4.21699 0.0673811 3.23061e-07)
(4.23601 0.0101192 -3.10854e-08)
(4.07766 0.115695 -2.96468e-07)
(4.124 0.0831612 -9.58e-07)
(4.12348 0.0738078 -6.74738e-08)
(4.11348 0.0952419 -7.94806e-07)
(4.2102 0.0409773 2.67874e-08)
(4.18279 0.0426022 3.35856e-08)
(4.2004 0.0131102 -2.95131e-08)
(4.12355 0.0606322 1.72371e-08)
(4.17974 0.0240762 -8.17757e-09)
(4.1733 0.0288312 -2.94227e-07)
(4.11815 0.0623199 5.44865e-08)
(4.14586 0.0544788 2.93775e-07)
(4.14877 0.037401 -2.05131e-08)
(4.12365 0.0474132 6.07877e-07)
(4.17618 7.6008e-05 -1.30823e-07)
(4.04601 0.0644449 -1.13344e-08)
(4.11272 0.0432111 1.09397e-07)
(4.0238 0.0712307 -2.11603e-07)
(4.0996 0.0294032 4.93334e-07)
(4.10917 5.07075e-11 -1.03472e-14)
(4.02126 0.0717327 -4.92425e-08)
(3.70594 0.154549 -7.90032e-08)
(3.84978 0.10526 5.61744e-08)
(3.81007 0.147737 6.00132e-07)
(3.82828 0.120882 -5.02003e-07)
(3.99223 0.0491047 2.93221e-07)
(3.9963 0.0628858 8.59809e-07)
(4.012 0.0219427 -5.1645e-07)
(4.00669 0.016944 -5.74087e-08)
(4.02703 0.0246437 -1.05068e-07)
(3.94778 0.0554859 -2.08807e-07)
(3.67281 0.140814 -2.75333e-07)
(3.88735 0.0746702 -1.82189e-07)
(3.96322 0.0235568 1.93242e-07)
(3.94601 0.02412 9.46937e-08)
(3.8606 0.0813016 4.77185e-07)
(3.91109 0.0615324 -2.78515e-07)
(3.91035 0.0300769 4.13278e-07)
(3.88361 0.0523517 1.87368e-09)
(3.90537 0.00426473 2.37398e-08)
(3.91775 0.0293754 -5.66764e-07)
(3.86269 0.0555967 -2.90075e-07)
(3.76337 0.114422 -4.41645e-08)
(3.8014 0.0636498 -3.73232e-07)
(3.83747 0.0477972 -1.51186e-07)
(3.82048 0.0164366 -3.71829e-08)
(3.83002 0.0229423 2.77226e-08)
(3.72745 0.08889 -3.37208e-07)
(3.74055 0.0623653 -4.39324e-08)
(3.73294 0.0588623 -2.20284e-07)
(3.72909 0.0529016 -2.34255e-08)
(3.67333 0.0882448 7.50101e-08)
(3.64219 0.0889641 9.49155e-08)
(3.65458 0.081712 1.30672e-07)
(3.4445 0.135396 -3.69445e-07)
(3.66731 0.0438049 -5.96679e-08)
(3.61721 0.080669 1.74696e-07)
(3.63045 0.0680008 1.21e-08)
(3.6207 0.0779531 -9.5714e-10)
(3.65378 0.0169885 5.97413e-09)
(3.64287 0.0406727 -1.10531e-08)
(3.63682 0.0107415 4.64133e-13)
(3.49306 0.125573 4.60422e-09)
(3.62963 0.0223939 -8.73975e-08)
(3.56561 0.0416926 -7.11392e-07)
(3.47447 0.106815 7.07562e-07)
(3.58496 0.00233394 7.45749e-08)
(3.57373 0.0495282 1.00556e-07)
(3.58003 0.0231728 2.67902e-07)
(3.55509 0.0135845 1.78194e-07)
(3.54756 0.024183 8.11048e-08)
(3.52762 0.0285687 2.12136e-07)
(3.50637 0.0554561 -5.93005e-07)
(3.50775 0.0219592 9.7955e-08)
(3.4899 0.0617057 -7.08492e-08)
(3.46436 0.0936821 -6.28275e-07)
(3.45792 0.0768052 -1.28231e-07)
(3.35599 0.125237 1.06526e-07)
(3.42609 0.0630801 3.9411e-07)
(3.42749 0.0545442 3.59106e-08)
(3.39806 0.0221064 -4.73428e-08)
(3.38684 0.0515194 1.12733e-07)
(3.37931 0.0273255 -2.05573e-08)
(3.36101 0.0762459 -1.32992e-07)
(3.36081 0.0436712 3.45801e-07)
(3.33876 0.0861417 -1.85054e-09)
(3.36052 0.00249155 7.79799e-07)
(3.34259 0.0642914 -2.27024e-07)
(3.33271 0.0203013 -8.1838e-08)
(3.32785 0.0369497 -3.68325e-07)
(3.29277 0.0674411 -2.52508e-07)
(3.28485 0.0718273 7.16143e-07)
(3.27513 0.0266279 2.08257e-07)
(3.27059 0.0195878 5.03374e-12)
(3.19961 0.0989827 -1.29162e-07)
(3.23075 0.0816168 1.32772e-07)
(3.23818 0.0296979 -4.98977e-07)
(3.2339 0.046591 6.36217e-09)
(3.22651 0.0626072 -3.81186e-07)
(3.22386 0.0310034 1.54294e-07)
(3.20981 0.0911282 9.20026e-09)
(3.20005 0.0884231 8.15907e-08)
(3.19749 0.0716624 8.06314e-08)
(3.17986 0.00876896 7.12791e-13)
(3.16177 0.0932658 -1.25853e-09)
(3.1728 0.0887147 -1.41093e-07)
(3.08238 0.115192 1.32062e-07)
(3.15013 0.00256533 7.97298e-07)
(3.10286 0.072925 1.80849e-08)
(3.14391 0.056709 9.14263e-08)
(3.15601 0.0427323 -7.92659e-08)
(3.16838 0.0250634 -1.37556e-07)
(2.98462 0.0814495 6.92321e-07)
(3.13001 0.040602 -7.3635e-07)
(3.11639 0.0558787 3.33217e-08)
(3.09033 0.0503757 1.75593e-08)
(2.83861 0.150016 6.02445e-08)
(3.03398 0.0851591 -8.35854e-08)
(2.96649 0.0758956 2.01851e-07)
(3.06755 0.0548939 5.59379e-07)
(2.96875 0.0843904 -4.34028e-07)
(3.05822 0.0348089 -1.36571e-08)
(2.98694 0.0704975 -2.06547e-07)
(3.0507 0.00764106 -1.98842e-13)
(3.0042 0.0651751 -2.30196e-08)
(2.94067 0.0804617 -5.07041e-08)
(3.03332 0.0379401 4.03599e-07)
(3.02951 0.0115658 -2.21147e-13)
(3.02037 0.0426364 1.69064e-07)
(2.97157 5.97394e-11 -2.50043e-13)
(2.95226 0.040091 3.2702e-07)
(2.91572 0.0682883 -3.84e-08)
(2.91839 0.0630169 6.46551e-07)
(2.92889 0.0497307 -2.16359e-08)
(2.78152 0.0901597 -8.20181e-08)
(2.86964 0.0296106 7.58336e-08)
(2.83187 0.070114 -1.82857e-07)
(2.85613 0.0428388 8.17952e-09)
(2.84595 0.0514272 5.16688e-07)
(2.83449 0.0575036 -4.34705e-08)
(2.84474 0.0490549 5.34763e-07)
(2.83219 0.0124996 -3.52515e-07)
(2.83087 0.0110554 1.12757e-07)
(2.79034 0.0646472 5.47973e-08)
(2.80857 0.0412093 1.75443e-08)
(2.69925 0.0999523 8.38414e-07)
(2.77895 0.0499255 -1.73285e-08)
(2.7001 0.0765294 -2.98814e-08)
(2.65494 0.0699442 -3.51509e-07)
(2.6687 0.0581251 1.00652e-07)
(2.65364 0.0505423 -2.34796e-08)
(2.65134 0.0360898 1.08186e-07)
(2.69244 0.0435497 -1.13426e-07)
(2.63316 3.38776e-11 1.03972e-13)
(2.63005 0.0514296 1.02181e-07)
(2.59064 0.0780175 5.88599e-08)
(2.60592 0.0599771 2.4333e-07)
(2.47775 0.113636 -1.76955e-07)
(2.59375 0.0564065 -7.10211e-08)
(2.59765 0.0590295 1.99425e-07)
(2.58164 0.0325968 -3.99314e-07)
(2.52443 0.0925553 9.07608e-07)
(2.56831 0.0194277 -1.91572e-14)
(2.48292 0.0900048 4.2023e-07)
(2.38842 0.120809 6.17772e-08)
(2.51632 0.0659427 1.38162e-08)
(2.51334 0.0610395 8.48614e-09)
(2.49352 0.0239461 -1.81132e-14)
(2.49098 0.0378916 1.83592e-07)
(2.47961 0.0291534 1.92124e-12)
(2.46571 0.0503482 2.89894e-07)
(2.34537 0.132765 1.04343e-07)
(2.35356 0.103181 1.01207e-07)
(2.34999 0.100923 3.71243e-07)
(2.43992 0.0426926 4.05812e-08)
(2.43047 0.0444251 2.3559e-08)
(2.37323 0.0680514 -4.26158e-08)
(2.38578 0.0636394 2.29773e-07)
(2.33969 0.0797227 2.97164e-08)
(2.33592 0.0798707 -3.57962e-07)
(2.35506 0.0549907 -2.8836e-07)
(2.33419 0.067674 4.2121e-07)
(2.34848 0.0310998 -8.60794e-14)
(2.31645 0.0771091 -8.63756e-08)
(2.32337 0.0391372 -4.69653e-07)
(2.25917 0.0769866 -1.09148e-07)
(2.30824 3.55895e-12 -8.80999e-15)
(2.30282 0.05198 -7.14234e-07)
(2.29223 0.0343799 -6.69041e-14)
(2.25835 0.0777662 -4.36338e-08)
(2.27103 0.020024 -9.72778e-13)
(2.22083 0.0849392 1.28648e-07)
(2.25053 0.0501708 7.19888e-08)
(2.23786 0.0734331 -3.62193e-07)
(2.22548 4.00839e-11 -1.19818e-13)
(2.22344 0.00282089 -4.28197e-15)
(2.2205 0.0509453 8.06792e-08)
(2.19225 0.0802595 -6.65687e-09)
(2.19724 0.0631103 2.12841e-07)
(2.17138 0.0609149 1.78276e-07)
(2.16818 0.00472125 -2.50704e-07)
(2.15346 0.0735315 -1.47303e-08)
(2.15679 0.0621855 -6.73515e-08)
(2.1591 0.00877798 6.16533e-15)
(2.08519 0.115547 6.82354e-08)
(2.12155 0.0775118 8.3213e-08)
(2.10973 0.0451417 -5.75817e-09)
(2.10416 0.0167507 -1.71479e-13)
(2.06665 0.0664814 -6.00258e-08)
(2.06649 0.063391 4.06769e-07)
(2.05122 0.0522755 -6.6773e-08)
(2.04586 0.0600446 -5.54837e-08)
(2.02398 0.0595994 -1.79734e-08)
(2.01539 0.0575148 -4.94643e-07)
(1.98614 0.0485927 9.21576e-08)
(1.9763 0.0580113 1.51581e-07)
(1.9984 0.151598 -9.75862e-08)
(1.97227 0.0372489 5.05766e-07)
(1.96093 0.0374398 2.6735e-13)
(1.95806 0.0675414 -4.66019e-07)
(1.96005 0.0470412 -3.81645e-07)
(1.94529 0.0319522 1.63129e-08)
(1.94843 0.0574231 -1.15395e-07)
(1.94071 0.0253728 2.80642e-13)
(1.9351 0.0427669 -5.4163e-07)
(1.92554 0.0473823 2.54683e-07)
(1.91317 0.0572755 3.62848e-07)
(1.90059 0.0925093 -1.96556e-08)
(1.90153 0.0489606 -1.15626e-08)
(1.89403 0.0397014 1.95702e-07)
(1.92402 0.128151 1.01847e-06)
(1.87157 0.0484701 -8.32023e-13)
(1.85654 0.050632 1.24544e-07)
(1.84898 0.0593246 3.31676e-07)
(7.19681 0.571591 9.49475e-08)
(5.98933 0.260885 1.19136e-07)
(6.77483 0.326779 9.57948e-08)
(5.64485 0.280453 -9.89697e-07)
(6.5101 0.277741 -1.26078e-07)
(6.79125 0.308564 1.70053e-07)
(5.23257 0.234278 -5.79568e-07)
(5.58087 0.255257 -3.85993e-08)
(7.08814 0.235254 1.20361e-07)
(6.81874 0.223894 7.89421e-08)
(6.96443 0.0999208 1.07594e-07)
(6.89608 0.173445 -5.21602e-07)
(6.99713 0.0550194 -1.04337e-07)
(6.89006 0.122827 -4.79429e-07)
(7.19171 0.0120557 8.81674e-09)
(6.84648 0.193773 -2.1567e-07)
(7.13598 0.00105944 3.64472e-07)
(7.1496 1.25167e-10 5.4372e-13)
(7.08119 5.65047e-12 -4.36039e-14)
(6.90441 0.112229 -6.13845e-07)
(6.9084 0.071647 -1.3798e-07)
(7.029 4.88664e-10 2.26723e-12)
(7.04329 0.0366329 -8.75016e-07)
(6.90502 0.110577 6.04608e-08)
(7.09359 0.021475 2.08298e-08)
(6.9664 0.0302917 -2.04512e-08)
(6.79202 0.0697419 -5.19974e-08)
(6.88721 0.0929016 -8.14797e-08)
(7.0311 0.0108682 -1.2044e-07)
(7.02962 0.0941309 2.83849e-07)
(6.90233 0.0835809 -5.68719e-07)
(6.82131 0.160263 -2.2319e-07)
(6.96301 0.130264 -7.35696e-07)
(6.97825 0.104819 4.92032e-07)
(7.04143 0.00609549 -1.61117e-07)
(6.8214 0.0548295 1.6763e-07)
(6.85057 0.0517509 4.9693e-07)
(6.94923 0.00232815 2.72529e-08)
(6.74999 0.159802 1.83117e-07)
(6.87729 0.0661328 -9.07158e-07)
(6.9159 0.0343435 1.47095e-07)
(6.63769 0.109053 -2.63358e-07)
(6.92005 0.0457617 5.52909e-07)
(6.86511 0.0434663 -1.31019e-07)
(6.76473 0.0579707 -1.00301e-07)
(6.90363 0.0121461 -8.97533e-07)
(6.94521 0.00345963 -1.85797e-08)
(6.83314 0.0444089 1.83803e-07)
(6.89627 0.0334416 -4.26376e-07)
(6.64655 0.107225 5.74576e-07)
(6.78511 0.142663 -3.47037e-08)
(6.86848 0.0259859 -2.13098e-07)
(6.91602 0.0871203 8.01931e-08)
(6.78189 0.0341888 -2.00395e-07)
(6.85892 0.0294692 -2.07015e-07)
(6.53692 0.133092 8.33398e-07)
(6.70203 0.0958464 -9.80544e-08)
(6.91544 0.0466671 -2.08398e-07)
(6.5631 0.0929485 4.15579e-07)
(6.87339 0.0914293 2.99674e-07)
(6.87472 1.63115e-10 1.3888e-12)
(6.6033 0.116551 7.33889e-07)
(6.74074 0.0399548 -7.08083e-08)
(6.60488 0.0784734 4.49523e-07)
(6.66701 0.112727 -6.36733e-08)
(6.79345 0.0228422 4.7648e-07)
(6.40551 0.214108 6.54957e-08)
(6.72129 0.0199714 2.23037e-07)
(6.75452 0.102973 4.36176e-07)
(6.72581 0.103045 -3.9839e-08)
(6.70959 0.106107 4.39326e-07)
(6.76184 0.00227866 1.1943e-06)
(6.65798 0.0406222 2.13292e-07)
(6.73993 0.00544415 6.76935e-07)
(6.56432 0.0572451 4.302e-07)
(6.60088 0.0314975 3.36407e-07)
(6.66616 0.115239 -1.35158e-06)
(6.70993 0.00572716 4.61044e-08)
(6.36012 0.203233 -7.77469e-07)
(6.66141 0.0187624 -6.063e-08)
(6.67037 0.00109445 2.87393e-07)
(6.54443 0.127947 9.25538e-08)
(6.54064 0.048484 -1.22344e-09)
(6.6463 0.0210726 2.68937e-07)
(6.47511 0.16703 -1.05545e-06)
(6.43201 0.0677606 -2.23315e-08)
(6.37624 0.0767436 4.13676e-07)
(6.60033 7.52734e-09 4.31721e-11)
(6.39312 0.06372 7.16753e-07)
(6.52285 0.0290107 2.37643e-08)
(6.53277 0.0277573 9.03091e-09)
(6.30342 0.0812888 4.1692e-07)
(6.54685 0.0192117 -1.9462e-06)
(6.56063 5.17986e-11 2.90657e-14)
(6.22666 0.0830287 3.9069e-07)
(6.47252 0.0451068 3.6205e-08)
(6.55204 0.00452401 8.81509e-08)
(6.53402 1.54128e-08 8.99717e-11)
(6.49227 1.3297e-10 2.17067e-13)
(6.46149 0.00124295 4.12942e-07)
(6.4414 0.0321696 1.12361e-07)
(6.48312 0.0156802 -2.02808e-08)
(6.44892 0.0581581 4.1517e-07)
(6.39072 0.0402633 2.02971e-08)
(6.41314 0.00628282 3.23657e-08)
(6.44589 0.0052053 -6.92103e-09)
(6.43182 0.0131473 1.89815e-07)
(6.2754 0.159144 -6.25501e-08)
(6.54573 0.000893082 -3.20034e-07)
(6.35302 0.014326 -1.54302e-07)
(6.23753 0.0529285 3.52215e-08)
(6.15897 0.0790104 -6.33378e-07)
(6.18882 0.209176 3.34178e-07)
(6.14657 0.082133 -3.42907e-08)
(6.27709 0.0345568 1.69005e-07)
(6.25244 5.69151e-12 -4.86338e-14)
(6.43087 0.107269 3.01763e-07)
(6.2307 0.045937 1.26414e-07)
(6.20325 0.0630759 -6.33427e-07)
(6.24907 0.143366 -1.97761e-07)
(6.34468 0.000488877 -1.81054e-08)
(6.3353 0.00047877 -1.35781e-08)
(6.16095 0.0724532 -1.55051e-07)
(6.15078 0.0845986 3.48369e-07)
(6.10042 0.0661938 9.04444e-08)
(6.19739 0.0377585 4.61096e-07)
(6.29454 0.139723 -6.9615e-07)
(6.18563 0.0449997 6.0946e-08)
(6.30009 8.76004e-11 -3.99917e-14)
(6.17742 0.0458645 4.29009e-07)
(6.16596 0.153757 -3.95129e-08)
(6.16543 0.0482127 -8.19137e-07)
(6.29994 0.0906281 -2.23154e-08)
(6.12523 0.0505108 -6.36163e-08)
(6.1345 0.0634632 2.51761e-07)
(6.01395 0.113152 -8.5087e-08)
(6.02425 0.0884827 -9.56363e-08)
(6.22003 3.64348e-10 -4.21934e-13)
(5.98652 0.117627 -5.63792e-08)
(6.1553 0.0403343 -6.49141e-07)
(6.21083 0.0129165 -5.15122e-07)
(6.1254 0.109351 -3.92957e-07)
(6.14202 0.00395781 2.16673e-08)
(6.01145 0.0481517 4.88425e-07)
(6.03533 0.0115172 3.46257e-08)
(5.9909 0.0374008 -1.97282e-08)
(6.09045 0.00319567 -1.21194e-08)
(5.98034 0.0582227 -3.35773e-09)
(6.05286 0.0087836 1.82077e-07)
(6.05858 0.00930637 -1.96845e-07)
(6.00841 0.0424927 -5.83303e-09)
(6.18477 0.115506 4.08061e-07)
(6.07176 0.0175103 2.97064e-08)
(5.94989 0.0570552 -8.24591e-07)
(6.04907 0.137044 7.57677e-07)
(5.99359 0.00969461 -1.64238e-08)
(5.84205 0.0673971 2.66944e-07)
(6.08946 0.114183 -8.5988e-07)
(5.93514 0.0481654 1.28797e-07)
(5.946 0.167067 -6.11879e-07)
(5.90801 0.0312582 3.6111e-07)
(5.93771 0.00211134 -2.92646e-08)
(5.80292 0.093895 2.22802e-07)
(5.82924 0.0416458 -1.03149e-07)
(5.77146 0.0789685 1.69083e-07)
(5.89152 0.0355302 -3.08975e-07)
(5.89351 0.0165455 2.07718e-07)
(6.03749 0.0849302 5.379e-07)
(5.85441 0.00160371 1.23041e-07)
(5.75888 0.0402782 -3.00683e-08)
(5.76367 0.0456946 -6.05434e-08)
(5.65217 0.090491 2.67725e-07)
(5.78891 0.0248416 1.76173e-07)
(5.74316 0.0245383 2.26663e-07)
(5.72224 0.0343254 -3.5605e-09)
(5.81654 0.130373 -3.215e-08)
(5.71658 0.0272484 -5.38506e-07)
(5.66822 0.0525522 4.31256e-07)
(5.63829 0.049732 -9.03937e-08)
(5.75279 0.142489 -1.25219e-06)
(5.49662 0.108352 -4.74921e-07)
(5.6413 0.0117312 -7.97643e-08)
(5.49228 0.0826899 1.11241e-07)
(5.56939 0.020896 2.92261e-09)
(5.46614 0.0749088 -8.85756e-08)
(5.69744 0.0948133 -7.38964e-07)
(5.45207 0.0880908 -2.79473e-07)
(5.58213 1.715e-11 -1.22857e-13)
(5.66908 0.144188 -5.62508e-07)
(5.42287 0.0774345 -8.5012e-08)
(5.7019 0.0783382 3.83222e-07)
(5.69948 0.0809357 1.77379e-09)
(5.49834 0.0302965 -2.85918e-07)
(5.52567 0.0218945 -2.2851e-07)
(5.4582 0.0200607 -6.18232e-07)
(5.49057 0.0248192 -5.12268e-08)
(5.41675 0.0468447 9.72135e-08)
(5.38245 0.0796544 3.35167e-07)
(5.49882 0.00670176 7.92384e-09)
(5.47311 0.0271526 -5.74757e-07)
(5.63489 0.133369 -3.20062e-07)
(5.33793 0.0705894 3.53753e-07)
(5.63705 0.0782958 2.27446e-08)
(5.34978 0.0544779 6.60849e-07)
(5.33671 0.071862 3.27931e-08)
(5.41609 0.0562581 3.21623e-07)
(5.41584 0.0162962 9.46322e-09)
(5.37252 0.0309822 -1.80595e-07)
(5.38131 0.0128022 -7.81204e-08)
(5.62037 0.0855779 6.39676e-08)
(5.56893 0.106882 9.00783e-10)
(5.35489 0.0147459 8.56745e-09)
(5.32817 0.0304984 1.49069e-07)
(5.44432 0.184251 -1.67487e-07)
(5.20257 0.0868635 -2.84404e-08)
(6.71511 0.215729 -6.75483e-07)
(5.24194 0.0459841 -7.51315e-08)
(5.23807 0.0706367 -1.16794e-07)
(5.4858 0.101662 -1.04197e-07)
(5.50526 0.094312 -7.91294e-07)
(5.2441 0.0280564 -1.47239e-07)
(5.22361 0.0356596 -9.77977e-08)
(5.18914 0.0133792 -4.25083e-08)
(5.16612 0.0394398 -6.07651e-07)
(5.21939 8.77003e-10 3.54954e-12)
(5.15605 0.0671217 6.72254e-08)
(5.17032 0.0401072 2.45498e-07)
(5.18417 0.038295 -1.81552e-07)
(5.31909 0.188902 -8.2516e-08)
(5.1902 0.000195105 1.79613e-07)
(5.38799 0.105444 -8.53034e-08)
(5.16078 0.0408302 4.22061e-07)
(5.15303 0.00803791 2.10236e-08)
(5.07168 0.0604634 -2.31859e-08)
(5.11906 0.0102556 4.09597e-08)
(5.1168 2.94783e-10 -2.07597e-12)
(5.10899 1.60132e-11 -1.10507e-13)
(5.26006 0.186603 -1.60178e-07)
(5.26851 0.170071 -1.42193e-06)
(5.05379 0.0398942 -5.38617e-07)
(5.05729 0.00981457 1.07171e-07)
(5.02563 0.0228444 1.8229e-07)
(5.2922 0.1183 5.96249e-08)
(5.02994 0.0223392 -4.90653e-07)
(5.28537 0.104596 2.31454e-07)
(4.97699 0.0505116 -3.18996e-07)
(5.01455 0.0250174 -2.11778e-07)
(5.01219 0.00021834 4.69571e-07)
(4.98431 0.0164377 9.01932e-08)
(4.92461 0.0622191 -6.08395e-07)
(4.96069 0.00302824 -5.03084e-07)
(4.913 0.0625671 3.29374e-07)
(4.94383 0.0196719 -6.17167e-10)
(4.92533 0.0188637 2.2927e-07)
(5.20213 0.144606 3.95441e-07)
(5.13632 0.0886162 -7.71253e-07)
(4.85005 0.0535025 -7.08075e-07)
(4.86685 0.0216254 7.74651e-08)
(4.80745 0.0532958 -6.92428e-08)
(4.80305 0.0462938 -5.55284e-07)
(4.80053 0.0481043 -1.07142e-07)
(4.78058 0.0492718 -3.72383e-07)
(4.78857 0.0390318 -5.60794e-08)
(4.79085 0.0331137 3.28446e-07)
(4.75779 0.0432811 -6.00792e-07)
(4.77472 0.0441307 1.5051e-07)
(4.75853 0.0508495 -1.40215e-07)
(4.75332 2.0282e-11 -9.39502e-14)
(4.74018 0.0140904 7.37737e-08)
(5.01916 0.181908 6.77469e-07)
(4.99828 0.186812 -4.39995e-08)
(4.72898 0.0259862 7.91035e-10)
(4.70074 0.0447674 1.49702e-07)
(4.70622 0.0446799 6.90167e-07)
(6.98877 0.254593 3.74061e-07)
(4.67188 0.03954 -1.25045e-07)
(4.66751 0.0399866 -1.2676e-07)
(4.97485 0.142607 2.55296e-07)
(4.65673 0.0309158 -8.72906e-09)
(4.66474 0.013399 7.42268e-08)
(4.63855 0.0477533 -4.32556e-10)
(4.64075 0.0322384 -7.01934e-08)
(4.63341 0.0234526 -1.29557e-07)
(4.96411 0.100299 -2.76817e-07)
(4.91949 0.13654 1.55837e-07)
(4.59114 8.28122e-05 1.8882e-07)
(4.57565 0.0763116 2.03534e-07)
(4.58264 0.0404181 5.87411e-07)
(4.56928 0.0236027 9.47762e-07)
(4.56289 0.0431041 -4.29897e-07)
(4.55015 0.0661687 -9.02374e-08)
(4.54687 0.0355367 2.94091e-07)
(4.53756 0.0305094 -1.93167e-10)
(4.87483 0.152238 -6.77933e-07)
(4.51843 0.0401207 4.94029e-07)
(4.51125 0.0287945 2.1025e-07)
(4.49583 0.0554961 -1.04021e-08)
(4.48985 0.024436 -4.82914e-07)
(4.48412 0.00870134 -2.61927e-07)
(4.46794 0.070003 5.37378e-07)
(4.46085 0.0435272 -1.89896e-07)
(4.4637 0.0120418 8.82998e-08)
(4.80643 0.138959 -3.34385e-07)
(4.80909 0.0952881 -3.38102e-07)
(4.43715 0.0120072 2.15689e-07)
(4.43509 0.0214817 3.1246e-08)
(4.41723 0.0646611 1.70312e-06)
(4.41225 0.0710339 3.85671e-08)
(4.38879 0.0228257 8.79571e-08)
(9.75748 0.186743 -3.21423e-07)
(10.0011 0.0583054 -1.70011e-07)
(9.9071 0.0818855 3.19127e-07)
(9.9813 0.0480997 1.68559e-08)
(9.77281 0.187463 6.7533e-07)
(9.91551 0.127814 4.97387e-07)
(9.99137 0.0446397 1.76322e-09)
(9.65235 0.189256 1.51516e-07)
(9.94617 0.123043 -7.79357e-08)
(9.62372 0.199998 9.03049e-07)
(9.91768 0.0216691 -5.45306e-07)
(9.67293 0.153438 5.11914e-08)
(9.92492 0.0981157 -1.89959e-07)
(9.84376 0.0584572 -5.47429e-08)
(9.79248 0.119279 -2.09957e-07)
(9.69735 0.10936 -5.53432e-07)
(9.94265 0.00345776 -1.08356e-06)
(9.70176 0.0942845 1.77992e-06)
(9.90583 1.77388e-08 -1.79917e-11)
(9.86259 0.0368592 -5.41799e-10)
(9.88061 0.012756 4.02044e-08)
(9.90463 0.0415655 -4.97191e-07)
(9.87338 1.02665e-07 -1.51518e-10)
(9.87069 0.128689 -4.95892e-07)
(9.53935 0.158401 -2.34722e-07)
(9.82439 0.023434 -3.33112e-08)
(9.83595 3.90876e-05 4.2291e-08)
(9.88995 0.0225128 3.51543e-07)
(9.87607 0.00521856 1.07022e-07)
(9.70794 0.0640923 -3.19031e-08)
(9.72158 0.0744827 1.15027e-07)
(9.79047 0.0111795 1.00717e-06)
(9.85297 0.0289472 -1.79444e-07)
(9.54157 0.186195 1.75507e-07)
(9.76716 2.89013e-05 4.52869e-10)
(9.7465 0.0710521 -8.1464e-07)
(9.70771 0.000332732 -3.29916e-07)
(9.37083 0.223573 -2.71493e-07)
(9.74044 0.00317533 6.85643e-08)
(9.52537 0.109145 -2.69304e-07)
(9.79368 0.0404713 1.07984e-06)
(9.73054 0.0244804 1.7743e-07)
(9.75157 1.0205e-07 -7.42226e-10)
(9.34343 0.0683218 8.356e-07)
(9.67055 0.0636286 2.06007e-07)
(9.62185 0.0385745 -6.43567e-09)