/*--------------------------------*- C++ -*----------------------------------*\
  =========                 |
  \\      /  F ield         | OpenFOAM: The Open Source CFD Toolbox
   \\    /   O peration     | Website:  https://openfoam.org
    \\  /    A nd           | Version:  7
     \\/     M anipulation  |
\*---------------------------------------------------------------------------*/
FoamFile
{
    version     2.0;
    format      ascii;
    class       scalarField;
    location    "0.1475/lagrangian/reactingCloud1";
    object      d;
}
// * * * * * * * * * * * * * * * * * * * * * * * * * * * * * * * * * * * * * //


1205
(
1.11287e-06
2e-07
2e-07
2e-07
2e-07
2e-07
2e-07
2e-07
2e-07
2e-07
2e-07
2e-07
2e-07
2e-07
2e-07
2e-07
2e-07
2e-07
2e-07
4.6557e-07
2e-07
2e-07
2e-07
2e-07
2e-07
2e-07
2e-07
2e-07
2e-07
6.62931e-07
2e-07
2e-07
6.3655e-07
2e-07
2.11683e-07
2e-07
2e-07
2e-07
2e-07
2e-07
2e-07
2e-07
2e-07
2e-07
2e-07
7.49373e-07
2e-07
2e-07
2e-07
2e-07
2e-07
2e-07
2e-07
2e-07
2e-07
2e-07
2e-07
2e-07
2e-07
2e-07
2e-07
2e-07
2e-07
2e-07
2e-07
2e-07
2e-07
2e-07
2e-07
2e-07
2e-07
2e-07
2e-07
2e-07
2e-07
2e-07
2e-07
2e-07
2e-07
2e-07
2e-07
2e-07
2e-07
2e-07
2e-07
2e-07
2e-07
2e-07
2e-07
2e-07
2e-07
2e-07
2e-07
2e-07
2e-07
2e-07
2e-07
2e-07
2e-07
2e-07
2e-07
2e-07
2e-07
2e-07
2e-07
2e-07
2e-07
2e-07
2e-07
2e-07
2e-07
2e-07
2e-07
2e-07
2e-07
2e-07
2e-07
2e-07
2e-07
2e-07
2e-07
2e-07
2e-07
2e-07
2e-07
2e-07
2e-07
2e-07
2e-07
2e-07
2e-07
2e-07
2e-07
2e-07
2e-07
2e-07
2e-07
2e-07
2e-07
2e-07
2e-07
2e-07
2e-07
2e-07
2e-07
2e-07
2e-07
2e-07
2e-07
2e-07
2e-07
2e-07
2e-07
2e-07
2e-07
2e-07
2e-07
2e-07
2e-07
2e-07
2e-07
2e-07
2e-07
2e-07
2e-07
2e-07
2e-07
2e-07
2e-07
2e-07
2e-07
2e-07
2e-07
2e-07
2e-07
2e-07
2e-07
2e-07
2e-07
2e-07
2e-07
2e-07
2e-07
2e-07
2e-07
2e-07
2e-07
2e-07
2e-07
2e-07
2e-07
2e-07
2e-07
2e-07
2e-07
2e-07
2e-07
2e-07
2e-07
2e-07
2e-07
2e-07
2e-07
2e-07
2e-07
2e-07
2e-07
2e-07
2e-07
2e-07
2e-07
2e-07
2e-07
2e-07
2e-07
2e-07
2e-07
2e-07
2e-07
2e-07
2e-07
2e-07
2e-07
2e-07
2e-07
2e-07
2e-07
2e-07
2e-07
2e-07
2e-07
2e-07
2e-07
2e-07
2e-07
2e-07
2e-07
2e-07
2e-07
2e-07
2e-07
2e-07
2e-07
2e-07
2e-07
2e-07
2e-07
2e-07
2e-07
2e-07
2e-07
2e-07
2e-07
2e-07
2e-07
2e-07
2e-07
2e-07
2e-07
2e-07
1.01308e-06
2e-07
2e-07
2e-07
2e-07
2e-07
2e-07
2e-07
2e-07
2e-07
2e-07
2e-07
2e-07
2e-07
2e-07
2e-07
2e-07
2e-07
2e-07
2e-07
2e-07
2.25266e-07
2e-07
2e-07
2e-07
2e-07
2e-07
1.00666e-06
9.56114e-07
1.1309e-06
1.08728e-06
9.64016e-07
5.67495e-07
8.57384e-07
1.18473e-06
1.66504e-06
1.82112e-06
9.43953e-07
8.69011e-07
1.24491e-06
1.95703e-06
2.75311e-06
1.00337e-06
8.98198e-07
2e-07
2e-07
3.68599e-06
2e-07
2e-07
2e-07
2e-07
1.82204e-06
2e-07
1.55229e-06
2e-07
2e-07
2e-07
1.73482e-06
2e-07
2e-07
1.36993e-06
2e-07
2e-07
1.03281e-06
2e-07
2e-07
2e-07
2e-07
2e-07
2e-07
2e-07
2e-07
2e-07
2e-07
2e-07
2e-07
2e-07
2e-07
2e-07
2e-07
2e-07
1.22639e-06
1.5715e-06
1.06111e-06
1.38978e-06
2e-07
2e-07
2e-07
2e-07
2e-07
2e-07
1.38441e-06
2e-07
2e-07
2e-07
2e-07
2e-07
2e-07
2e-07
2e-07
2e-07
2e-07
1.06154e-06
2e-07
2e-07
2e-07
2e-07
2e-07
2e-07
2e-07
2e-07
2e-07
2e-07
2e-07
1.15169e-06
2e-07
2e-07
2e-07
2e-07
2e-07
2e-07
2e-07
1.38277e-06
2e-07
2e-07
2.76844e-06
2e-07
2e-07
2e-07
2e-07
2e-07
2e-07
2e-07
2e-07
2e-07
7.42213e-07
2e-07
1.06209e-06
2e-07
2e-07
2e-07
2e-07
2e-07
2e-07
2e-07
2e-07
2e-07
2e-07
2e-07
2e-07
2e-07
2e-07
2e-07
2e-07
1.12355e-06
2e-07
2e-07
2e-07
2e-07
2e-07
2e-07
2e-07
2e-07
2e-07
2.25485e-06
2e-07
1.71965e-06
2e-07
2e-07
2e-07
2e-07
2e-07
2e-07
2e-07
2e-07
2e-07
8.1175e-07
2e-07
2e-07
2e-07
2e-07
2e-07
2e-07
2e-07
2e-07
2e-07
2e-07
2e-07
2e-07
2e-07
2e-07
2e-07
2e-07
2e-07
2e-07
2e-07
2e-07
2e-07
2e-07
2e-07
2e-07
2e-07
2e-07
2e-07
2e-07
5.38236e-07
2e-07
2e-07
2e-07
2e-07
2e-07
2e-07
2e-07
2e-07
2e-07
2e-07
2e-07
1.16209e-06
2e-07
2e-07
2e-07
2e-07
2e-07
2e-07
9.68671e-07
2e-07
2e-07
2e-07
2e-07
2e-07
2e-07
9.37157e-07
1.32485e-06
1.65064e-06
2e-07
2e-07
2e-07
2e-07
2e-07
2e-07
2e-07
2e-07
2e-07
2e-07
2e-07
2e-07
2e-07
2e-07
2e-07
2e-07
2e-07
2e-07
2e-07
2e-07
2e-07
2e-07
2e-07
2e-07
2e-07
2e-07
2e-07
2e-07
2e-07
2e-07
6.54664e-07
2e-07
2e-07
2e-07
2e-07
2e-07
2e-07
2e-07
2e-07
2e-07
2e-07
2e-07
6.13392e-07
2e-07
2e-07
2e-07
2e-07
2e-07
2e-07
2e-07
2e-07
2e-07
2e-07
2.0027e-06
2e-07
2e-07
7.92055e-07
2e-07
2e-07
2e-07
7.61717e-07
7.15259e-07
1.20461e-06
9.02105e-07
8.35478e-07
1.0755e-06
1.42258e-06
1.05726e-06
1.53568e-06
1.30503e-06
2.37788e-06
8.52828e-07
2.28455e-06
1.79011e-06
2e-07
2.96314e-06
2e-07
2e-07
2e-07
1.63007e-06
2.13363e-06
2e-07
2e-07
2.49756e-06
2e-07
2e-07
2.09961e-06
1.38122e-06
2e-07
2.91092e-06
1.08575e-06
1.79499e-06
2.41579e-06
3.56322e-06
2e-07
1.00457e-06
2e-07
2e-07
1.90772e-06
1.05911e-06
2e-07
2.14003e-06
2.87218e-07
2e-07
8.89952e-07
2e-07
2e-07
2e-07
2e-07
1.22707e-06
1.72419e-06
2e-07
3.10367e-06
2e-07
2e-07
1.5698e-06
1.83823e-06
3.45628e-06
2.16944e-06
3.81786e-06
2e-07
2.66405e-06
2e-07
1.82429e-06
1.29016e-06
2e-07
9.30226e-07
2e-07
2.31253e-06
2.2208e-06
3.01505e-06
2e-07
2e-07
2e-07
3.18907e-07
2e-07
2.62306e-06
2e-07
4.28739e-07
2e-07
2e-07
2.11457e-06
2e-07
2e-07
1.75831e-06
2.2704e-06
1.07789e-06
2e-07
2e-07
2e-07
2e-07
2.06942e-06
2e-07
2e-07
2.07867e-06
2e-07
2e-07
2e-07
2e-07
2e-07
2e-07
2e-07
2e-07
2e-07
2e-07
2e-07
2e-07
1.48404e-06
3.64369e-06
2e-07
2e-07
1.44937e-06
8.49336e-07
1.89502e-06
2e-07
2e-07
2.95908e-06
2e-07
4.80817e-07
1.83374e-06
2e-07
2e-07
6.77965e-07
1.42146e-06
1.45463e-06
2e-07
2.15836e-06
2e-07
2e-07
2e-07
6.69635e-07
2e-07
2.3389e-06
2e-07
5.99188e-07
1.59585e-06
1.58338e-06
2e-07
1.60518e-06
2e-07
2e-07
2.14655e-06
2e-07
2e-07
2e-07
2e-07
2e-07
2e-07
2e-07
2e-07
2e-07
2.44212e-06
2e-07
2e-07
1.72511e-06
2e-07
2e-07
2.00416e-06
2e-07
2.08153e-06
2e-07
2e-07
1.00932e-06
2e-07
9.05719e-07
2e-07
2e-07
4.25867e-06
2e-07
2e-07
2e-07
1.12676e-06
2e-07
2e-07
2e-07
2.78164e-06
2e-07
2e-07
2e-07
1.59434e-06
1.2934e-06
2e-07
1.2949e-06
2e-07
2e-07
1.99693e-06
1.08983e-06
2e-07
2.77786e-06
2e-07
2.02223e-06
2.07618e-06
2e-07
2e-07
2e-07
2e-07
2e-07
1.14112e-06
2e-07
2e-07
2.60864e-06
2e-07
2.51609e-06
2e-07
2e-07
2e-07
2e-07
2e-07
2e-07
3.18047e-06
2.40905e-06
2e-07
2e-07
1.27963e-06
8.64312e-07
8.92174e-07
2e-07
2e-07
2.32246e-06
1.32036e-06
2e-07
2e-07
2e-07
2e-07
2e-07
2e-07
2e-07
2e-07
9.36838e-07
2e-07
1.67065e-06
2e-07
2e-07
2e-07
2e-07
2e-07
2e-07
1.12029e-06
1.45612e-06
2e-07
2e-07
2e-07
2.03713e-06
2e-07
1.5158e-06
2e-07
2e-07
2e-07
2e-07
2e-07
2e-07
2e-07
2e-07
2e-07
1.52597e-06
2.09122e-06
2e-07
2e-07
2e-07
2e-07
2e-07
2e-07
2e-07
2e-07
2e-07
2e-07
2e-07
2e-07
2e-07
1.23225e-06
2.25265e-06
2e-07
2e-07
2e-07
8.83907e-07
2e-07
2e-07
1.31269e-06
2e-07
2e-07
2e-07
2e-07
2e-07
2.98129e-06
1.5974e-06
2e-07
2e-07
2e-07
2e-07
2e-07
2e-07
2e-07
2e-07
1.23335e-06
2e-07
2e-07
2e-07
2e-07
2e-07
2e-07
2e-07
2e-07
1.2193e-06
2.09431e-06
2e-07
2e-07
2e-07
2e-07
2e-07
3.71247e-06
4.02241e-06
2.7899e-06
2.90326e-06
3.02419e-06
2.40319e-06
2.63617e-06
3.68448e-06
2.356e-06
2.12926e-06
3.63039e-06
2.38485e-06
2.28804e-06
2.96248e-06
2.52476e-06
2.71798e-06
3.71768e-06
2.91715e-06
2.46193e-06
2.89912e-06
2.45701e-06
2.49533e-06
2.44793e-06
2.5603e-06
2.47354e-06
2.51229e-06
2.42637e-06
2.48011e-06
2.59277e-06
4.96422e-06
2.68299e-06
2.4139e-06
2.53285e-06
1.65471e-06
2.40213e-06
2.67784e-06
3.52008e-06
2.02347e-06
2.39137e-06
2.68955e-06
2.35055e-06
2.4501e-06
2.36986e-06
2.23721e-06
2.66098e-06
2.60199e-06
3.31579e-06
2.88364e-06
2.34987e-06
2.41513e-06
3.59054e-06
3.05779e-06
2.74988e-06
2.32041e-06
4.038e-06
2.32665e-06
2.32505e-06
2.34184e-06
2.3952e-06
3.58658e-06
2.38988e-06
2.29757e-06
2.28946e-06
2.26706e-06
2.84987e-06
2.3851e-06
2.27134e-06
1.9855e-06
3.50398e-06
1.31459e-06
3.95734e-06
2.40348e-06
2.48452e-06
3.44699e-06
3.49974e-06
2.37541e-06
2.55414e-06
2.22092e-06
2.33577e-06
2.17817e-06
2.45731e-06
2.20254e-06
2.19516e-06
2.18554e-06
2.19948e-06
2.13304e-06
2.25522e-06
2.4357e-06
2.25107e-06
2.25309e-06
2.16455e-06
3.12223e-06
3.14233e-06
2.09724e-06
2.15531e-06
4.08558e-06
3.6277e-06
2.32837e-06
2.118e-06
2.11348e-06
2.48008e-06
3.22534e-06
2.43891e-06
2.61966e-06
2.06207e-06
2.27182e-06
2.24831e-06
3.3655e-06
4.32432e-06
2.05868e-06
2.34077e-06
2.2598e-06
2.03772e-06
2.21579e-06
2.03543e-06
2.01616e-06
2.02893e-06
1.98204e-06
2.83498e-06
4.53065e-06
1.92413e-06
2.01164e-06
2.00056e-06
3.04121e-06
1.96825e-06
2.91648e-06
1.97882e-06
1.94437e-06
1.96306e-06
1.69595e-06
2.7857e-06
2.0365e-06
1.96641e-06
1.9579e-06
3.53702e-06
1.94532e-06
3.37593e-06
1.98587e-06
2.18869e-06
4.13614e-06
1.91269e-06
2.56564e-06
3.0335e-06
1.87702e-06
3.42175e-06
1.95855e-06
1.96681e-06
1.86514e-06
4.88961e-06
2.8759e-06
2.66768e-06
2.64069e-06
2.13191e-06
2.51059e-06
2.3322e-06
2.11867e-06
1.79855e-06
1.78976e-06
1.79394e-06
2.4228e-06
2.60277e-06
2.75232e-06
1.77389e-06
2.42031e-06
1.73697e-06
1.7243e-06
2.07641e-06
4.61426e-06
1.72159e-06
3.15634e-06
1.7149e-06
2.05731e-06
3.17933e-06
2.23805e-06
1.69044e-06
1.68874e-06
1.69026e-06
2.73293e-06
1.67678e-06
2.84569e-06
2.58187e-06
1.88478e-06
1.27769e-06
1.63594e-06
2.65319e-06
2.18048e-06
1.57124e-06
2.5652e-06
2.89359e-06
2.9904e-06
1.54995e-06
2.10608e-06
9.78623e-07
1.51277e-06
2.26387e-06
3.4357e-06
3.31044e-06
1.4571e-06
1.45467e-06
2.28656e-06
1.43781e-06
1.43276e-06
2.50775e-06
1.39298e-06
1.38412e-06
1.65964e-06
1.33834e-06
1.80684e-06
1.31117e-06
2.2738e-06
1.63523e-06
1.23665e-06
1.73582e-06
1.673e-06
1.2158e-06
1.21404e-06
1.21994e-06
1.7031e-06
1.66495e-06
3.01979e-06
1.16438e-06
1.15414e-06
1.29339e-06
1.11186e-06
2.75224e-06
1.07852e-06
1.26322e-06
1.81611e-06
1.00996e-06
2.49345e-06
1.70489e-06
2.54878e-06
2.70342e-06
9.13345e-07
2.33955e-06
1.51686e-06
9.68892e-07
9.26267e-07
2.40739e-06
1.7597e-06
1.78554e-06
3.76666e-06
8.18393e-07
1.74453e-06
2.28825e-06
7.48056e-07
6.90091e-07
7.16179e-07
6.2174e-07
6.28321e-07
5.98843e-07
4.58222e-07
1.04725e-06
3.33202e-07
4.77789e-06
1.9343e-06
3.98256e-06
1.27976e-06
6.56026e-07
6.5896e-07
2.19899e-06
5.68526e-06
4.95953e-07
2.66943e-06
3.34297e-06
2e-07
2e-07
1.17616e-06
2.23634e-06
2e-07
2.03846e-06
2.08433e-06
1.4697e-06
2e-07
2.02936e-06
7.27145e-07
1.47519e-06
2.41318e-06
1.51698e-06
3.14511e-06
3.57119e-06
2e-07
2e-07
9.82329e-07
4.11697e-07
2e-07
2.11619e-06
2e-07
1.95795e-06
2e-07
3.1003e-06
2e-07
2e-07
2.30211e-06
7.23897e-07
2e-07
2e-07
2e-07
2e-07
1.97992e-06
1.0861e-06
3.29646e-06
1.91495e-06
1.87188e-06
2e-07
2.25135e-06
2e-07
2e-07
2e-07
2e-07
7.15755e-07
1.09534e-06
1.08532e-06
1.71212e-06
1.36852e-06
7.15953e-07
1.46233e-06
1.45338e-06
1.12592e-06
3.20526e-06
1.15251e-06
6.07978e-07
1.38398e-06
1.59589e-06
1.18598e-06
3.80657e-06
1.22406e-06
2.02118e-06
3.29062e-06
1.81822e-06
1.94451e-06
1.86443e-06
1.83889e-06
1.47185e-06
2.38614e-06
2.28764e-06
2.15946e-06
1.56616e-06
1.26605e-06
1.32704e-06
1.50732e-06
1.0319e-06
)


// ************************************************************************* //
