/*--------------------------------*- C++ -*----------------------------------*\
  =========                 |
  \\      /  F ield         | OpenFOAM: The Open Source CFD Toolbox
   \\    /   O peration     | Website:  https://openfoam.org
    \\  /    A nd           | Version:  7
     \\/     M anipulation  |
\*---------------------------------------------------------------------------*/
FoamFile
{
    version     2.0;
    format      ascii;
    class       labelField;
    location    "0.1475/lagrangian/reactingCloud1";
    object      origId;
}
// * * * * * * * * * * * * * * * * * * * * * * * * * * * * * * * * * * * * * //


1205
(
1683
1736
1747
1751
1746
1750
1744
1755
1752
1756
1757
1722
1749
1762
1754
1760
1748
1753
1765
1716
1639
1759
1767
1773
1770
1764
1775
1777
1774
1745
1772
1780
1591
1768
1766
1758
1782
1761
1763
1785
1787
1789
1788
1790
1778
1617
1793
1786
1791
1798
1794
1799
1795
1779
1796
1797
1776
1800
1792
1801
1803
1809
1808
1805
1804
1813
1921
1947
1949
1950
1951
1952
1953
1954
1955
1956
1957
1958
1959
1960
1961
1962
1963
1964
1965
1966
1967
1968
1969
1970
1971
1972
1973
1974
1975
1976
1977
1978
1979
1980
1981
1982
1983
1984
1985
1986
1987
1988
1989
1990
1991
1992
1993
1994
1995
1996
1997
1998
1999
2000
2001
2002
2003
2004
2005
2006
2007
2008
2009
2010
2011
2012
2013
2014
2015
2016
1820
1868
1890
1893
1896
1898
1897
1901
1900
1902
1878
1905
1903
1907
1906
1910
1908
1909
1911
1904
1875
1912
1914
1899
1913
1915
1917
1916
1919
1918
1920
1859
1895
1923
1925
1926
1927
1924
1928
1930
1929
1931
1922
1932
1935
1936
1939
1938
1934
1937
1940
1941
1933
1942
1943
1945
1944
1946
1948
1674
1658
1710
1657
1816
1836
1844
1831
1839
1840
1846
1847
1851
1852
1837
1842
1845
1853
1849
1855
1848
1857
1854
1843
1858
1862
1861
1866
1867
1869
1856
1863
1864
1865
1874
1850
1876
1870
1860
1871
1877
1873
1769
1882
1881
1884
1880
1879
1885
1883
1889
1888
1887
1892
1891
1872
1886
1894
1715
1781
1812
1696
1811
1815
1806
1783
1802
1818
1819
1810
1821
1814
1823
1827
1828
1824
1830
1832
1829
1817
1826
1835
1833
1703
1834
1825
1771
1807
1822
1838
1784
1841
1402
1398
1360
1409
1373
1378
1375
1411
1434
1423
1421
1451
1438
1452
1123
1397
1404
1473
1450
1374
1496
1477
1503
1486
1341
1509
1498
1505
1506
1446
1493
1512
1502
1501
1510
1480
1495
1519
1515
1523
1507
1525
1522
1511
1524
1526
1521
1440
1494
1529
1528
1532
1533
1453
1504
1513
1430
1514
1534
1540
1520
1542
1535
1539
1461
1500
1546
1538
1518
1516
1549
1543
1530
1536
1537
1544
1531
1554
1553
1559
1552
1560
1545
1558
1562
1550
1517
1547
1564
1556
1551
1561
1576
1574
1578
1548
1569
1563
1449
1570
1580
1583
1541
1586
1587
1567
1589
1581
1572
1431
1577
1568
1593
1600
1595
1601
1565
1588
1573
1604
1579
1606
1596
1571
1585
1610
1612
1575
1594
1614
1609
1603
1615
1582
1592
1607
1621
1557
1555
1566
1602
1605
1618
1619
1599
1584
1616
1620
1622
1590
1624
1608
1626
1597
1631
1613
1633
1628
1629
1634
1635
1632
1627
1640
1630
1636
1641
1611
1638
1642
1649
1647
1648
1651
1645
1625
1646
1653
1652
1655
1656
1659
1664
1667
1669
1644
1623
1668
1662
1643
1650
1672
1673
1676
1661
1678
1654
1663
1665
1679
1686
1685
1687
1677
1637
1598
1660
1689
1690
1680
1691
1681
1688
1693
1671
1699
1670
1682
1675
1684
1697
1704
1692
1707
1695
1706
1702
1666
1712
1708
1698
1705
1700
1711
1694
1713
1718
1701
1709
1720
1723
1719
1721
1714
1724
1726
1729
1730
1727
1508
1732
1735
1725
1734
1728
1733
1738
1731
1737
1717
1488
1739
1740
1527
1742
1743
1741
892
1081
806
1140
1094
1060
1246
1321
1048
1190
1179
1054
1194
1209
1212
1107
1225
1200
1217
1220
1098
1228
1207
1171
1230
1216
1197
1229
1238
1058
1232
1186
1161
1147
1198
1206
1222
1188
1110
1235
1237
1199
1231
1233
1219
1247
1211
1218
1249
1134
1191
1251
1177
1210
1250
1144
1252
1180
1236
1079
1109
1224
1240
1227
1221
1241
1125
1254
1104
1214
1162
1259
1268
1262
1248
1265
1195
1253
1086
1275
1148
1182
1267
1270
1151
1244
1245
1260
1273
1277
1285
1257
1239
1261
1272
1281
1284
1234
1282
1271
1266
1290
1291
1279
1095
1286
1296
1174
1193
1302
1288
1301
1173
1297
1308
1278
1183
1289
1299
1205
1314
1274
1287
1310
1280
1305
1242
1300
1317
1292
1129
1293
1263
1303
1312
1315
1295
1319
1311
1306
1298
1256
1323
1316
1332
1204
1313
1329
1318
1327
1328
1276
1338
1333
1215
1344
1145
1264
1347
1243
1334
1304
1342
1350
1330
1349
1357
1203
1337
1359
1358
1352
1364
1351
1343
1255
1370
1371
1340
1294
1348
1322
1366
1381
1365
1331
1362
1368
1006
1361
1326
1335
1383
1385
1376
1384
1363
1355
1391
1386
1307
1377
1325
1379
1382
1395
1403
1396
1400
1196
1320
1406
1407
1160
1389
1105
1339
1412
1324
1258
1418
1408
1399
1410
1353
1416
1415
1390
1269
1414
1283
1417
1424
1422
1420
1401
1380
1336
1356
1428
1419
1436
1354
1429
1387
1439
1443
1426
1447
1425
1448
1413
1405
1309
1372
1392
1441
1455
1444
1456
1432
1454
1463
1445
1442
1427
1458
1459
1468
1388
1346
1466
1469
1467
939
1471
1472
1393
1475
1478
1474
1479
1460
1345
1369
1464
1465
1481
1457
1483
1435
1484
1487
1367
1489
1491
1433
1490
1492
1470
1462
1485
1226
1394
1499
1497
1437
1482
1476
753
785
851
839
740
862
865
703
827
722
814
861
855
856
871
843
859
850
868
853
894
898
874
888
866
897
908
890
891
807
881
911
844
744
879
901
875
883
916
732
914
876
889
829
896
906
813
878
903
932
834
826
910
927
822
925
930
912
920
872
929
945
924
941
895
935
923
946
909
812
815
952
915
867
857
936
798
961
951
963
849
984
969
944
955
938
964
948
967
965
949
943
926
974
956
877
922
918
980
966
904
959
950
886
978
968
982
913
885
990
985
989
981
973
993
983
954
987
762
934
1002
1008
976
962
1003
958
1012
1013
880
994
937
1017
1016
997
917
1018
972
1000
1007
676
1015
992
828
995
979
1024
1028
1019
931
975
1010
1014
1031
1025
1023
1041
1042
1022
1035
1027
902
971
1036
977
1033
1051
1040
1011
1043
928
1055
1049
996
1044
991
1053
1021
933
1059
630
919
1038
699
1065
1034
1037
1032
900
999
907
1068
1069
751
1061
1052
1004
1030
1071
1062
1045
1085
1091
1029
1097
1080
1066
1087
1039
1056
1064
1067
1100
1084
1082
1088
1112
1093
1090
1099
986
1114
1072
1122
1116
1050
1126
1115
1111
1078
998
1075
905
1005
1131
1074
1127
1092
1137
1073
1121
988
1057
1135
1133
970
1146
1130
1138
1136
1142
1154
1156
1119
1158
1096
1152
1070
1103
1157
1165
1106
1113
1150
1009
1063
1166
1132
1001
1118
1153
1149
1108
1020
1159
1143
1170
1168
1089
1181
1083
1139
1124
1076
1192
1155
1184
1141
1175
1128
1178
1120
1164
1201
1101
1187
1202
1167
1077
1163
947
1208
1102
1117
1172
1189
1169
1176
1185
1213
1223
568
515
707
565
706
588
777
789
717
737
887
667
899
820
921
591
836
832
783
835
860
940
642
1026
942
953
873
1046
957
893
1047
960
)


// ************************************************************************* //
