/*--------------------------------*- C++ -*----------------------------------*\
  =========                 |
  \\      /  F ield         | OpenFOAM: The Open Source CFD Toolbox
   \\    /   O peration     | Website:  https://openfoam.org
    \\  /    A nd           | Version:  7
     \\/     M anipulation  |
\*---------------------------------------------------------------------------*/
FoamFile
{
    version     2.0;
    format      ascii;
    class       Cloud<passiveParticle>;
    location    "0.1475/lagrangian/reactingCloud1";
    object      positions;
}
// * * * * * * * * * * * * * * * * * * * * * * * * * * * * * * * * * * * * * //

1205
(
(0.279633 0.130261 0.233701 0.356406) 46199 91717 2
(0.209953 0.395571 0.35764 0.0368365) 46108 91536 1
(0.0496544 0.500321 0.342047 0.107978) 46105 91529 1
(0.490523 0.0938254 0.161126 0.254526) 46101 91522 2
(0.52706 0.0991633 0.232015 0.141762) 46152 91711 2
(0.582378 0.00437725 0.20824 0.205005) 46149 91705 2
(0.204077 0.081499 0.39436 0.320065) 46152 91711 2
(0.346578 0.327105 0.184508 0.141809) 46143 91606 1
(0.176728 0.431596 0.116446 0.27523) 46149 91705 1
(0.163252 0.165741 0.252998 0.418008) 46189 91698 2
(0.0314273 0.485149 0.381151 0.102272) 46238 91796 1
(0.0550753 0.489464 0.0587701 0.396691) 46285 91977 1
(0.215026 0.176958 0.215545 0.392471) 46329 91978 2
(0.166481 0.214573 0.221208 0.397739) 46322 91963 2
(0.156219 0.429369 0.230574 0.183838) 46329 92065 1
(0.514176 0.24281 0.235861 0.00715402) 46325 91972 1
(0.783752 0.108158 0.102564 0.00552599) 46417 92154 1
(0.201352 0.184028 0.215606 0.399014) 46417 92154 2
(0.110847 0.148239 0.296404 0.44451) 46413 92146 2
(0.171968 0.192017 0.410241 0.225773) 46604 92615 2
(0.18809 0.40615 0.337593 0.0681671) 46460 92240 1
(0.436667 0.305498 0.212856 0.0449787) 46454 92227 1
(0.288255 0.32514 0.336926 0.049679) 46458 92323 2
(0.080247 0.0780366 0.459732 0.381985) 46542 92406 2
(0.363139 0.225351 0.106116 0.305394) 46546 92411 2
(0.641193 0.18058 0.152979 0.0252486) 46548 92503 1
(0.719865 0.140261 0.099017 0.0408571) 46540 92400 1
(0.831606 0.0842672 0.0405892 0.0435375) 46632 92584 1
(0.0214189 0.507877 0.0996125 0.371092) 46636 92679 1
(0.0601701 0.475383 0.202901 0.261546) 46779 92965 1
(0.0552617 0.490774 0.450258 0.00370594) 46680 92767 2
(0.407155 0.0339164 0.293699 0.265229) 46675 92757 2
(0.107209 0.380833 0.0661732 0.445784) 46822 92964 2
(0.372152 0.313731 0.302072 0.0120446) 46767 92856 1
(0.00495032 0.173272 0.32431 0.497468) 46860 93040 2
(0.432867 0.284133 0.260814 0.0221859) 46814 93035 1
(0.126713 0.448129 0.205554 0.219605) 46811 92941 1
(0.0406296 0.102371 0.475977 0.381022) 46857 93121 2
(0.298545 0.30618 0.0449058 0.350369) 46859 93038 2
(0.273985 0.363218 0.15536 0.207437) 46854 93028 1
(0.610494 0.194796 0.0270093 0.167701) 46852 93024 1
(0.186494 0.355824 0.0827021 0.37498) 46894 93107 2
(0.226637 0.296432 0.38624 0.0906916) 46896 93114 2
(0.127122 0.361222 0.0757563 0.4359) 46986 93292 2
(0.333724 0.334585 0.295009 0.0366817) 46990 93387 1
(0.393727 0.0609078 0.243313 0.302052) 47083 93485 2
(0.423563 0.0908402 0.203982 0.281615) 47028 93375 2
(0.540857 0.188298 0.0490303 0.221814) 47121 93561 2
(0.0471906 0.383491 0.459023 0.110295) 47120 93647 2
(0.302893 0.372722 0.283367 0.0410177) 47160 93639 1
(0.0382257 0.339443 0.480164 0.142167) 47163 93648 2
(0.614173 0.191624 0.178941 0.0152622) 47160 93727 2
(0.383757 0.218619 0.100693 0.296931) 47207 93733 2
(0.780455 0.109269 0.0659607 0.0443153) 47206 93734 1
(0.341246 0.19606 0.329167 0.133527) 47206 93734 2
(0.828265 0.0526847 0.0830981 0.035952) 47207 93821 2
(0.411591 0.299827 0.154401 0.134182) 47298 93915 1
(0.293743 0.353327 0.239549 0.113381) 47295 93910 1
(0.257306 0.376059 0.132844 0.233791) 47342 94003 1
(0.175983 0.411783 0.401854 0.0103793) 47338 93998 1
(0.124859 0.112402 0.330801 0.431938) 47427 94173 2
(0.0199139 0.115575 0.489901 0.37461) 47467 94256 2
(0.734037 0.135016 0.026874 0.104073) 47469 94257 1
(0.643915 0.178133 0.0845937 0.0933579) 47471 94264 1
(0.460556 0.271872 0.0714392 0.196133) 47475 94269 1
(0.0236555 0.488213 0.0308782 0.457253) 47508 94336 1
(0.300302 0.350196 0.0789326 0.270569) 3200 96664 2
(0.0788523 0.0181068 0.460695 0.442346) 3380 6569 2
(0.0167441 0.427604 0.493797 0.061855) 3446 6698 2
(0.377134 0.310753 0.129421 0.182692) 3424 6653 1
(0.0387331 0.0356584 0.445189 0.480419) 3200 96664 1
(0.447551 0.273358 0.216015 0.0630764) 3409 6662 1
(0.274816 0.361615 0.023457 0.340112) 3408 6621 1
(0.0294495 0.281324 0.486723 0.202504) 3392 6593 2
(0.222618 0.387823 0.174402 0.215157) 3362 6532 1
(0.614638 0.179686 0.202664 0.00301206) 3350 6547 2
(0.47485 0.0599084 0.202374 0.262868) 3345 6499 2
(0.161582 0.298923 0.118863 0.420633) 3327 6464 2
(0.772039 0.113755 0.0247172 0.0894895) 3281 6376 1
(0.262045 0.0228322 0.34604 0.369083) 3303 6417 2
(0.132304 0.157551 0.27559 0.434555) 3282 6376 2
(0.0973931 0.24199 0.452354 0.208263) 3265 6345 2
(0.416232 0.167979 0.0959081 0.319881) 3256 6325 2
(0.127827 0.434359 0.431872 0.00594199) 3229 6273 1
(0.0411501 0.479396 0.471861 0.00759293) 3205 6228 1
(0.217773 0.387639 0.0972913 0.297297) 3206 6227 1
(0.892117 0.0133694 0.0405228 0.0539909) 3182 6181 2
(0.320261 0.223018 0.110912 0.34581) 3100 6021 2
(0.852706 0.0730189 0.00813684 0.0661385) 3041 5905 1
(0.618861 0.140415 0.19642 0.0443033) 3127 6112 2
(0.146973 0.0423344 0.426646 0.384046) 3122 6066 2
(0.601881 0.195973 0.104957 0.0971895) 3103 6026 1
(0.57865 0.0568252 0.21083 0.153695) 3081 5986 2
(0.101694 0.191711 0.256962 0.449634) 3066 5955 2
(0.102522 0.209543 0.238717 0.449218) 3049 5922 2
(0.730986 0.134423 0.0406141 0.0939762) 3030 5885 1
(0.492639 0.24804 0.0788263 0.180495) 3004 5872 1
(0.0680311 0.410491 0.480645 0.0408326) 2985 5835 2
(0.154007 0.421966 0.401364 0.0226623) 2969 5804 1
(0.452764 0.00140588 0.27221 0.27362) 2973 5774 2
(0.312448 0.322944 0.344129 0.020479) 2944 5719 2
(0.323789 0.337994 0.204857 0.13336) 2937 5706 1
(0.478689 0.0264878 0.261675 0.233149) 2906 5681 2
(0.346753 0.32661 0.0449519 0.281685) 2884 5600 1
(0.119446 0.437139 0.355545 0.0878701) 2866 5603 1
(0.070819 0.0326229 0.431965 0.464593) 2870 5573 2
(0.652984 0.0411531 0.130484 0.175379) 2848 5529 2
(0.405943 0.294827 0.00220181 0.297028) 2834 5503 2
(0.614338 0.114538 0.196012 0.0751111) 2801 5476 2
(0.280851 0.359574 0.0509849 0.30859) 2787 5411 1
(0.176898 0.0661609 0.34539 0.411551) 2786 5409 2
(0.817041 0.0135785 0.0769312 0.0924494) 2772 5381 2
(0.0867372 0.456631 0.430972 0.0256593) 2745 5329 1
(0.881085 0.0594574 0.0554568 0.00400062) 2722 5286 1
(0.333979 0.0737435 0.336697 0.25558) 2709 5297 2
(0.108685 0.313412 0.122451 0.455452) 2703 5246 2
(0.398926 0.298749 0.0679297 0.234395) 2681 5203 1
(0.591674 0.17589 0.00625212 0.226184) 2676 5233 1
(0.347959 0.325723 0.317391 0.00892721) 2645 5172 1
(0.178542 0.0426931 0.364986 0.413779) 2652 5147 2
(0.0216075 0.0554034 0.489196 0.433793) 2621 5089 2
(0.17267 0.413665 0.376578 0.037087) 2605 5056 1
(0.145913 0.427043 0.127902 0.299142) 2588 5023 1
(0.0463697 0.471946 0.155822 0.325862) 2584 5014 1
(0.29555 0.109085 0.24314 0.352225) 2562 4972 2
(0.490416 0.254792 0.0149395 0.239852) 2542 4935 1
(0.59692 0.198396 0.0915061 0.113178) 2522 4932 1
(0.11759 0.114469 0.322333 0.445607) 2526 4901 2
(0.467004 0.0376423 0.228856 0.266498) 2519 4889 2
(0.780918 0.109541 0.0862909 0.02325) 2460 96701 2
(0.461744 0.236414 0.0327134 0.269128) 2440 96702 1
(0.171495 0.411298 0.106383 0.310824) 2462 4776 1
(0.254361 0.24729 0.125529 0.372819) 2451 4756 2
(0.177326 0.411337 0.247017 0.16432) 2426 4709 1
(0.128756 0.211962 0.443192 0.216091) 2405 4704 2
(0.691784 0.00262699 0.154031 0.151558) 2403 97389 2
(9.81545e-07 0.49941 0.322686 0.177903) 3820 96633 2
(2.41239e-06 0.49954 0.218297 0.282161) 3780 96635 2
(0.0549431 0.461361 0.103986 0.37971) 4103 8015 1
(0.690564 0.154458 0.00833911 0.14664) 4104 7978 1
(0.111357 0.440988 0.354321 0.0933337) 4086 7982 1
(0.206373 0.397238 0.169909 0.22648) 4088 7948 1
(0.128757 0.422363 0.0246012 0.424279) 4044 7900 1
(0.511525 0.121868 0.243936 0.122671) 4069 7913 2
(0.0197526 0.206852 0.489616 0.283779) 4045 7866 2
(0.117387 0.276891 0.440632 0.165091) 4026 7829 2
(0.114541 0.408084 0.0354649 0.44191) 3801 7388 2
(0.0393245 0.48137 0.421325 0.0579807) 4033 7841 1
(0.482565 0.253108 0.207196 0.0571311) 3901 7582 1
(0.769691 0.0729151 0.0381885 0.119205) 3990 7756 2
(0.0349679 0.360598 0.106894 0.497541) 3987 7750 2
(0.228898 0.370168 0.15481 0.246124) 3952 7721 1
(0.721818 0.122226 0.0171575 0.138798) 3842 7468 2
(0.323584 0.205426 0.12687 0.34412) 3862 7506 2
(0.367026 0.317109 0.261733 0.0541319) 3930 7640 1
(0.524509 0.233688 0.15436 0.0874435) 3781 7348 1
(0.665573 0.0291543 0.167227 0.138046) 3781 7351 2
(0.377087 0.0618061 0.249794 0.311313) 3864 7511 2
(0.390523 0.0849019 0.220035 0.30454) 3889 7560 2
(0.66049 0.165098 0.0092836 0.165128) 3802 7428 1
(0.384118 0.0884182 0.31053 0.216934) 3802 7428 2
(0.13656 0.0630241 0.431573 0.368844) 3890 7564 2
(0.62034 0.189987 0.121955 0.0677167) 3849 7484 1
(0.208893 0.395671 0.344595 0.0508403) 3825 7437 1
(0.439704 0.253035 0.298222 0.00903879) 3832 7487 2
(0.219907 0.166282 0.224121 0.389689) 3805 7396 2
(0.199172 0.384554 0.412348 0.0039249) 3807 7399 1
(0.166269 0.416962 0.0934322 0.323337) 3540 96647 2
(0.0593177 0.283028 0.179712 0.477942) 3620 7035 2
(0.232657 0.234047 0.149872 0.383424) 3744 7277 2
(0.533681 0.233299 0.136235 0.0967843) 3774 7338 1
(0.498807 0.243292 0.160711 0.097191) 3749 7286 1
(0.259799 0.370272 0.266805 0.103124) 3729 7248 1
(0.397568 0.0639908 0.301268 0.237172) 3661 7117 2
(0.274361 0.357636 0.093298 0.274705) 3731 7251 1
(0.08271 0.0818075 0.37002 0.465462) 3713 7216 2
(0.14687 0.418411 0.17378 0.260939) 3664 7159 1
(0.417354 0.291259 0.0708319 0.220556) 3644 7082 1
(0.565429 0.175439 0.0372375 0.221895) 3540 6879 2
(0.334364 0.323837 0.0183893 0.32341) 3602 7038 1
(0.264164 0.358517 0.300838 0.0764816) 3624 7042 1
(0.494239 0.25256 0.190028 0.0631721) 3604 7004 1
(0.217923 0.235476 0.39153 0.155072) 3588 6975 2
(0.462334 0.268682 0.264772 0.00421083) 3586 7007 1
(0.381373 0.287337 0.0214355 0.309855) 3562 6922 2
(0.0275412 0.439273 0.498344 0.0348412) 3521 6880 2
(0.0947703 0.451785 0.283472 0.169973) 3543 6885 1
(0.136546 0.379937 0.432846 0.0506714) 3543 6887 2
(0.159189 0.419711 0.162458 0.258641) 3521 6844 1
(0.280136 0.183885 0.365679 0.170301) 3523 6884 2
(0.401909 0.258078 0.299914 0.0400998) 3525 6852 2
(0.63552 0.179744 0.0499254 0.134811) 3510 6820 1
(0.228447 0.0462799 0.387319 0.337954) 3504 6847 2
(0.474498 0.247298 0.0144106 0.263794) 3493 6788 2
(0.227638 0.198256 0.168099 0.406007) 3474 6750 2
(5.81612e-06 0.496701 0.452681 0.0506115) 4720 96588 2
(0.270176 0.364194 0.109078 0.256552) 4740 96587 2
(0.185206 0.243298 0.162742 0.408755) 4540 96597 1
(2.91492e-05 0.177887 0.321175 0.500909) 4520 96598 1
(0.359475 0.317672 0.100852 0.222001) 4660 9063 1
(0.321514 0.336938 0.266343 0.0752051) 5084 9940 1
(0.584803 0.0765567 0.211572 0.127069) 5148 10068 2
(0.807248 0.0689496 0.0962106 0.0275916) 5043 9821 2
(0.0421915 0.170477 0.30803 0.479302) 5044 9821 2
(0.158225 0.24201 0.427933 0.171833) 5063 9898 2
(0.319651 0.339864 0.293678 0.0468071) 5088 9909 1
(0.218135 0.331814 0.407524 0.0425272) 5068 9908 2
(0.706888 0.146852 0.0751891 0.0710709) 5098 9929 1
(0.295124 0.29011 0.373951 0.0408148) 5077 9886 1
(0.0931761 0.453152 0.342192 0.11148) 5045 9825 1
(0.27547 0.352072 0.000194201 0.372264) 4942 9616 2
(0.448108 0.00595655 0.276225 0.26971) 4943 9658 2
(0.311594 0.344744 0.277456 0.0662066) 5013 9759 1
(0.648996 0.124963 0.0463948 0.179646) 4904 9540 2
(0.030537 0.450423 0.0533343 0.465706) 4953 9678 1
(0.766889 0.116956 0.0405677 0.0755874) 4783 9303 1
(0.173228 0.394409 0.0148842 0.417478) 4849 9470 1
(0.191011 0.367333 0.0240423 0.417613) 4825 9384 2
(0.90345 0.0479434 0.00614709 0.0424595) 4786 9309 1
(0.0206097 0.0496279 0.491763 0.437999) 4787 9349 2
(0.367872 0.315385 0.314028 0.00271504) 4818 9410 1
(0.058018 0.0112889 0.471697 0.458997) 4791 9357 2
(0.0865467 0.457334 0.354991 0.101129) 4671 9087 1
(0.477713 0.261519 0.0626645 0.198103) 4673 9089 1
(0.552066 0.0710008 0.15338 0.223553) 4655 9054 2
(0.0879971 0.457477 0.269206 0.18532) 4562 8872 1
(0.00115814 0.499542 0.0223637 0.476936) 4544 8837 1
(0.474856 0.254702 0.00286508 0.267577) 4503 8795 1
(0.1023 0.449227 0.0738062 0.374666) 4463 8679 1
(0.34602 0.319048 0.127063 0.207868) 4532 8813 1
(0.0822498 0.0791154 0.377649 0.460985) 4420 8595 2
(0.236542 0.318335 0.380094 0.0650285) 4492 8738 2
(0.163028 0.419669 0.179213 0.23809) 4423 8603 1
(0.390294 0.292269 0.313768 0.00366984) 4427 8608 1
(0.163703 0.418513 0.343548 0.074237) 4403 8564 1
(0.822079 0.0892125 0.0506726 0.0380363) 4429 8613 1
(0.51769 0.24215 0.0370782 0.203081) 4404 8566 1
(0.588716 0.204027 0.137121 0.0701357) 4280 8361 1
(0.639976 0.0642491 0.116075 0.1797) 4419 8594 2
(0.26328 0.367269 0.0239989 0.345452) 4369 8495 1
(0.528266 0.216734 0.19133 0.0636698) 4375 8507 1
(0.429061 0.047101 0.285253 0.238585) 4325 8412 2
(0.520176 0.239958 0.229863 0.0100034) 4304 8371 1
(0.517396 0.237059 0.0678962 0.17765) 4332 8423 1
(0.585496 0.207188 0.00192225 0.205394) 4265 8292 1
(0.619528 0.052193 0.138272 0.190007) 4250 8264 2
(0.389004 0.201853 0.0944695 0.314673) 4248 8259 2
(0.75739 0.121367 0.107045 0.0141982) 4226 8219 1
(0.15699 0.421489 0.00176272 0.419758) 4189 8145 2
(0.608825 0.0801345 0.195255 0.115785) 4187 8143 2
(0.0187239 0.490819 0.412676 0.0777816) 4161 8092 1
(0.630854 0.0767214 0.108074 0.184351) 4163 8094 2
(0.781944 0.10917 0.0601838 0.0487024) 4170 8110 1
(0.126561 0.43855 0.0501844 0.384705) 47561 94441 1
(0.131668 0.377466 0.0570104 0.433856) 47607 94534 2
(0.426274 0.0604566 0.286792 0.226478) 47555 94432 2
(0.621199 0.120893 0.189317 0.0685912) 47740 94802 2
(0.385958 0.225841 0.292142 0.0960589) 47557 94521 2
(0.41815 0.291025 0.203643 0.087182) 47643 94608 1
(0.00513883 0.512523 0.1296 0.352738) 47693 94793 1
(0.374047 0.317756 0.252211 0.0559859) 47962 95243 1
(0.472493 0.235734 0.0360951 0.255678) 47782 94883 2
(0.146546 0.130562 0.41609 0.306802) 47731 94869 2
(0.123302 0.443072 0.378882 0.0547441) 47776 94959 1
(0.375831 0.314368 0.0575376 0.252263) 47868 95055 1
(0.432447 0.261493 0.0225884 0.283472) 47817 94954 2
(0.117464 0.441445 0.218391 0.2227) 48046 95412 1
(0.035868 0.272264 0.225919 0.465949) 48086 95491 2
(0.41451 0.304403 0.152247 0.128841) 48173 95665 1
(0.082597 0.458853 0.176054 0.282496) 48173 95666 1
(0.382012 0.308896 0.0503526 0.25874) 48220 95762 1
(0.399425 0.300492 0.221121 0.0789626) 48215 95750 1
(0.0294229 0.080547 0.412795 0.477235) 48301 95921 2
(0.299394 0.0340206 0.348282 0.318303) 48306 96019 2
(0.0182846 0.499087 0.223092 0.259536) 48398 96115 1
(0.144441 0.44457 0.388792 0.0221969) 48441 96201 1
(0.00798988 0.177671 0.318473 0.495867) 48480 96280 2
(0.390203 0.217592 0.29195 0.100255) 48482 96381 2
(0.578529 0.00330989 0.207243 0.210919) 5404 10541 2
(0.0825602 0.378861 0.0795424 0.459037) 5409 10551 2
(0.421373 0.289119 0.273123 0.0163844) 5344 10423 1
(0.262691 0.199008 0.368804 0.169497) 5301 10337 2
(0.0942263 0.264621 0.461009 0.180144) 5284 10340 2
(0.225162 0.387242 0.0606592 0.326936) 5284 10301 1
(0.0696282 0.353978 0.484819 0.0915751) 5288 10348 2
(0.852034 0.0540529 0.0176652 0.076248) 5206 10144 2
(0.224916 0.389077 0.00217269 0.383834) 5192 10117 1
(0.336993 0.333914 0.173884 0.15521) 43433 86273 1
(0.0991203 0.0553232 0.449357 0.396199) 43483 86373 2
(0.0859046 0.460849 0.385666 0.06758) 43335 86077 1
(0.176366 0.412922 0.0930226 0.31769) 43386 86094 1
(0.895899 0.0526585 0.0032976 0.0481446) 43430 86267 1
(0.51034 0.247569 0.138139 0.103952) 43611 86541 1
(0.156995 0.427393 0.366341 0.0492717) 43564 86447 1
(0.469701 0.268527 0.0543277 0.207444) 43433 86273 1
(0.305197 0.1657 0.181789 0.347314) 43335 85990 2
(0.540838 0.0489378 0.229243 0.180982) 43471 86264 2
(0.519668 0.0482647 0.239408 0.192659) 43608 86623 2
(0.184933 0.408101 0.186098 0.220868) 43378 86076 1
(0.0471493 0.477165 0.252959 0.222726) 43607 86534 1
(0.401058 0.211971 0.298812 0.0881588) 43511 86344 2
(0.567299 0.19467 0.215758 0.0222728) 43602 86526 2
(0.783226 0.111435 0.0273672 0.0779713) 43513 86433 1
(0.0841089 0.467421 0.0516873 0.396783) 43780 86967 1
(0.810052 0.00123632 0.0942236 0.0944879) 43597 86514 2
(0.198018 0.401975 0.0795269 0.320481) 43597 86516 1
(0.474438 0.0779066 0.258116 0.189539) 43597 86601 2
(0.581603 0.154306 0.0653493 0.198741) 43596 86511 2
(0.430556 0.289643 0.191965 0.0878349) 43642 86691 1
(0.34896 0.00484016 0.320849 0.325351) 43593 86506 2
(0.137665 0.43158 0.151736 0.27902) 43642 86604 1
(0.506406 0.247797 0.211927 0.0338687) 43735 86877 1
(0.300764 0.350073 0.149215 0.199948) 43589 86500 1
(0.30974 0.132106 0.34478 0.213373) 43733 86788 2
(0.910995 0.0449451 0.0271309 0.0169287) 43639 86600 1
(0.323139 0.227552 0.298282 0.151027) 43590 86587 2
(0.434634 0.164561 0.270254 0.13055) 43639 86685 2
(0.251557 0.217573 0.163851 0.36702) 43822 86963 2
(0.282418 0.0667241 0.296239 0.354619) 43684 86687 2
(0.340136 0.247395 0.266404 0.146065) 43633 86673 2
(0.903778 0.00468758 0.0437098 0.0478244) 43778 86875 2
(0.644581 0.0924564 0.172223 0.0907401) 43730 86867 2
(0.627332 0.122686 0.179015 0.0709668) 43729 86865 2
(0.094543 0.453511 0.35122 0.100725) 43731 86784 1
(0.350678 0.0776971 0.324418 0.247208) 43681 86684 2
(0.0855684 0.45809 0.253574 0.202768) 43682 86684 1
(0.123686 0.352057 0.0874242 0.436833) 43678 86676 2
(0.259962 0.37064 0.185238 0.184161) 43728 86776 1
(0.491283 0.101049 0.240904 0.166763) 43679 86765 2
(0.279956 0.385518 0.162115 0.172411) 43680 86767 1
(0.450672 0.281618 0.176681 0.0910285) 43728 86863 1
(0.629495 0.194452 0.107975 0.0680778) 43727 86773 1
(0.532555 0.25204 0.152557 0.0628484) 43725 86769 1
(0.632851 0.0525187 0.179809 0.134822) 43726 86859 2
(0.0148327 0.180383 0.802347 0.00243734) 43676 141082 1
(0.0357861 0.370672 0.457337 0.136204) 43772 86951 2
(0.270391 0.366403 0.346098 0.0171069) 43726 86859 1
(0.717781 0.141906 0.00917324 0.13114) 43817 86953 1
(0.166683 0.464803 0.341459 0.0270558) 43768 86855 1
(1.21166e-08 0.0765312 0.923469 1.94028e-10) 43720 141126 1
(0.803992 0.0995419 0.0222217 0.0742446) 43817 86953 1
(0.210056 0.158538 0.392087 0.239318) 44050 87507 2
(0.698328 0.156136 0.138649 0.00688696) 43953 87225 1
(0.0873629 0.4587 0.150773 0.303164) 44005 87329 1
(0.549772 0.0116291 0.224569 0.21403) 43955 87317 2
(0.148631 0.42546 0.393637 0.0322716) 43814 86950 1
(0.350865 0.346867 0.0025796 0.299688) 43816 87039 1
(0.808918 0.0972291 0.0362924 0.0575606) 43811 86942 1
(0.669764 0.165348 0.148774 0.0161138) 43810 86942 1
(0.397571 0.105244 0.300603 0.196582) 43811 86944 2
(0.64109 0.179748 0.153508 0.0256538) 43859 87040 1
(0.224399 0.380852 0.00805049 0.386699) 44092 87504 2
(0.255569 0.372917 0.194474 0.17704) 43905 87132 1
(0.673722 0.0527194 0.163378 0.11018) 43855 87032 2
(0.482875 0.258621 0.183858 0.0746457) 43855 87032 1
(0.319496 0.202878 0.147773 0.329852) 43950 87219 2
(0.569544 0.223628 0.105052 0.101776) 43904 87127 1
(0.595466 0.103407 0.109711 0.191416) 43900 87119 2
(0.479713 0.271664 0.118941 0.129682) 43903 87213 1
(0.767984 0.0309076 0.100327 0.100781) 43896 87112 1
(0.338856 0.32497 0.0429406 0.293234) 43900 87119 2
(0.246343 0.11609 0.269784 0.367782) 43947 87213 2
(0.260646 0.0159314 0.369161 0.354262) 43998 87403 2
(0.394586 0.0852711 0.223486 0.296657) 43992 87303 2
(0.24854 0.376992 0.0629826 0.311486) 43946 87214 1
(0.277001 0.203857 0.325949 0.193193) 43942 87291 2
(0.609923 0.063995 0.186627 0.139455) 43943 87293 2
(0.717162 0.142015 0.0101586 0.130665) 44039 87400 1
(0.553203 0.102573 0.127763 0.216462) 44036 87391 2
(0.46334 0.180918 0.0882357 0.267507) 44036 87392 2
(0.919947 0.0218514 0.03993 0.0182711) 44035 87392 2
(0.749217 0.10954 0.12512 0.0161236) 44083 87488 2
(0.0947147 0.203613 0.258535 0.443138) 44127 87573 2
(0.218733 0.390748 0.322634 0.0678848) 44082 87486 1
(0.546393 0.218454 0.223597 0.0115561) 44267 87941 2
(0.813441 0.0943659 0.0851472 0.0070456) 44078 87563 2
(0.383806 0.308886 0.0039688 0.30334) 44126 87574 1
(0.525284 0.243593 0.0916169 0.139506) 44125 87569 1
(0.882796 0.0615106 0.0488358 0.00685729) 44126 87571 1
(0.324841 0.0419903 0.330311 0.302858) 44074 87555 2
(0.0696839 0.476237 0.107389 0.34669) 44122 87563 1
(0.291835 0.0564048 0.312088 0.339672) 44117 87553 2
(0.384948 0.30768 0.299706 0.00766548) 44221 87849 1
(0.555536 0.0867299 0.147165 0.210569) 44119 87557 2
(0.618829 0.145373 0.0467537 0.189044) 44166 87652 2
(0.315736 0.344189 0.0731539 0.266921) 44262 87843 1
(0.191711 0.531347 0.137731 0.139211) 44160 87640 1
(0.528155 0.040181 0.195755 0.235908) 44167 87654 2
(0.374927 0.0303757 0.285547 0.30915) 44163 87645 2
(0.549117 0.224818 0.0759824 0.150083) 44162 87644 1
(0.0759701 0.462436 0.287971 0.173623) 44163 87648 1
(0.319705 0.245841 0.121407 0.313047) 44208 87735 2
(0.0500988 0.476936 0.417024 0.0559421) 44212 87744 1
(0.765846 0.11714 0.0328772 0.0841366) 44207 87736 1
(0.266412 0.107323 0.359463 0.266802) 44212 87831 2
(0.700221 0.123935 0.0314601 0.144384) 44260 87839 2
(0.945056 0.00750352 0.0204601 0.0269799) 44258 87835 2
(0.859221 0.0710725 0.035855 0.0338519) 44353 88025 1
(0.0460027 0.0537731 0.477188 0.423036) 44300 87922 2
(0.0385549 0.0304361 0.480662 0.450347) 44299 87920 2
(0.612063 0.194352 0.115656 0.0779291) 44295 87912 1
(0.3378 0.185905 0.317051 0.159244) 44299 88005 2
(0.0489788 0.475584 0.42231 0.0531278) 44296 87999 2
(0.663791 0.112607 0.0616345 0.161967) 44346 88011 2
(0.604006 0.0338609 0.198315 0.163818) 44342 88006 2
(0.470665 0.0115224 0.264119 0.253693) 44347 88101 2
(0.641679 0.015865 0.0206043 0.321851) 44336 190302 2
(0.374592 0.313294 0.122612 0.189502) 44345 88010 1
(0.235433 0.437646 0.3245 0.00242132) 44339 88085 2
(0.0466334 0.109358 0.46549 0.378519) 44341 88089 2
(0.663337 0.0723538 0.163739 0.10057) 44389 88185 2
(0.239244 0.379965 0.056197 0.324593) 44390 88100 1
(0.0315629 0.530785 0.0123638 0.425288) 44428 88175 2
(0.213328 0.437986 0.250279 0.0984068) 44427 88173 1
(0.879422 0.0604361 0.0316099 0.0285321) 44481 88284 1
(0.195244 0.414697 0.154198 0.23586) 44435 88277 1
(0.148005 0.427534 0.252392 0.172069) 44428 88178 1
(0.320779 0.339799 0.337242 0.00217994) 44431 88269 1
(0.0261724 0.493199 0.394829 0.0857997) 44433 88273 1
(0.0805845 0.469077 0.0799339 0.370405) 44473 88265 1
(0.650161 0.150914 0.0303088 0.168616) 44480 88279 2
(0.394088 0.303674 0.280511 0.0217266) 44480 88280 1
(0.371355 0.314962 0.239971 0.0737111) 44478 88276 1
(0.138069 0.36745 0.337334 0.157147) 44469 88345 2
(0.285183 0.158628 0.356989 0.1992) 44524 88370 2
(0.149626 0.434173 0.194566 0.221635) 44524 88367 1
(0.114556 0.44647 0.28264 0.156334) 44572 88551 1
(0.676752 0.0166126 0.202228 0.104408) 44512 190478 2
(0.852646 0.073825 0.0562785 0.0172504) 44566 88452 1
(0.663971 0.178224 0.0276321 0.130173) 44520 88447 1
(0.544744 0.147507 0.227053 0.0806962) 44518 88358 2
(0.331764 0.349555 0.104906 0.213775) 44516 88351 1
(0.0361026 0.388607 0.111539 0.463752) 44699 88717 2
(0.0943993 0.476054 0.410862 0.0186847) 44518 88443 2
(0.471194 0.276489 0.153081 0.0992357) 44564 88447 1
(0.444481 0.0374226 0.274908 0.243189) 44563 88533 2
(0.135431 0.171118 0.261511 0.43194) 44844 89008 2
(0.018747 0.490758 0.462361 0.0281335) 44611 88544 1
(0.136577 0.343191 0.430932 0.0893002) 44698 88718 2
(0.50996 0.248875 0.0563208 0.184844) 44608 88535 1
(0.0536662 0.335487 0.471993 0.138854) 44699 88720 2
(0.511737 0.196003 0.243473 0.0487866) 44605 88532 2
(0.0638194 0.482328 0.223262 0.23059) 44654 88715 1
(0.710078 0.14506 0.0342732 0.110589) 44601 88522 1
(0.798965 0.10054 0.0995075 0.000987813) 44653 88628 1
(0.0571141 0.449126 0.449801 0.0439587) 44699 88805 2
(0.0470699 0.493854 0.286152 0.172925) 44606 88619 1
(0.115585 0.451345 0.0347105 0.39836) 44646 88611 1
(0.361192 0.072914 0.319395 0.246499) 44650 88622 2
(8.70216e-09 0.698838 0.301162 5.36219e-09) 44688 142094 1
(0.558785 0.190183 0.204609 0.0464228) 44694 88795 2
(0.136531 0.432919 0.411337 0.0192125) 44742 88804 1
(0.846162 0.0390168 0.0373933 0.0774281) 44741 88802 2
(0.414992 0.0232562 0.29241 0.269341) 44739 88800 2
(0.0856324 0.458261 0.0398616 0.416245) 44876 89074 1
(0.263073 0.369361 0.326007 0.0415588) 44781 88882 1
(0.739874 0.022181 0.108099 0.129846) 44830 88980 2
(0.0416061 0.479603 0.343576 0.135215) 44782 88886 1
(0.145123 0.427484 0.00785721 0.419536) 44828 88975 1
(0.32564 0.169568 0.336656 0.168136) 44828 88978 2
(0.2001 0.119688 0.288892 0.39132) 44827 88973 2
(0.588971 0.0905466 0.117109 0.203374) 44822 88964 2
(0.109286 0.359759 0.08604 0.444915) 44822 88964 2
(0.503474 0.0866689 0.248075 0.161782) 44873 89068 2
(0.160276 0.124833 0.409076 0.305814) 44826 89059 2
(0.926703 0.0362036 0.00146291 0.0356304) 44966 89251 1
(0.101 0.450544 0.0990187 0.349437) 44871 89064 1
(0.61245 0.13675 0.057398 0.193402) 44963 89246 2
(0.931093 0.0347587 0.0220232 0.0121254) 45006 89334 1
(0.142657 0.118996 0.3099 0.428447) 45005 89330 2
(0.265583 0.368131 0.313979 0.0523079) 45004 89328 1
(0.418893 0.290924 0.181732 0.108451) 45002 89324 1
(0.386249 0.307573 0.182327 0.123851) 44959 89238 1
(6.42273e-09 2.31658e-09 0.0471627 0.952837) 45040 191006 2
(0.246752 0.387939 0.141968 0.223342) 45048 89415 1
(0.178105 0.284737 0.140045 0.397113) 45095 89509 2
(0.571956 0.218666 0.140316 0.0690616) 45049 89505 1
(0.118924 0.445681 0.193122 0.242272) 45189 89785 1
(0.0231496 0.0594222 0.433201 0.484227) 45092 89503 2
(0.167754 0.427694 0.23826 0.166291) 45049 89505 1
(0.488548 0.0687242 0.254855 0.187873) 45089 89500 2
(0.506434 0.0871058 0.244075 0.162385) 45141 89689 2
(0.710442 0.000347126 0.144734 0.144477) 45087 89581 2
(0.383798 0.314702 0.131567 0.169934) 45185 89777 1
(0.560118 0.0160709 0.203872 0.219938) 45323 89966 2
(0.097061 0.460461 0.297682 0.144797) 45138 89683 1
(0.05435 0.388465 0.10851 0.448675) 45181 89681 2
(0.914008 0.0430143 0.00624462 0.0367328) 45176 89672 1
(0.796649 0.0269387 0.0995863 0.0768255) 45178 89763 2
(0.214045 0.418139 0.161457 0.206359) 45177 89761 1
(0.507756 0.247145 0.0168803 0.228219) 45224 89767 1
(0.408035 0.260454 0.035978 0.295533) 45370 90060 2
(0.479969 0.149759 0.114374 0.255898) 45363 90045 2
(0.466649 0.104359 0.162318 0.266674) 45363 90046 2
(0.146721 0.446356 0.192861 0.214062) 45223 89853 1
(0.351935 0.299984 0.0474093 0.300671) 45267 89853 2
(0.588438 0.0973692 0.20033 0.113863) 45314 90035 2
(0.0841085 0.324836 0.133693 0.457362) 45314 89948 2
(0.315524 0.342715 0.222193 0.119568) 45360 90040 1
(0.364404 0.318271 0.0942381 0.223087) 45360 90040 1
(0.0443415 0.176455 0.477088 0.302115) 45356 90034 2
(0.458181 0.1658 0.262014 0.114005) 45358 90123 2
(0.608592 0.0750679 0.195496 0.120844) 45353 90028 2
(0.31649 0.10333 0.341464 0.238716) 45403 90128 2
(0.137015 0.0340008 0.401138 0.427846) 45398 90115 2
(0.203519 0.398376 0.373132 0.024973) 45447 90216 1
(7.76089e-10 0.509675 0.490325 2.05371e-10) 45392 142798 1
(0.716276 0.0129292 0.140206 0.130588) 45400 90207 2
(0.126228 0.455414 0.24356 0.174798) 45398 90203 1
(0.00496676 0.49777 0.101215 0.396048) 45448 90216 1
(0.132472 0.434861 0.0357024 0.396965) 45439 90200 1
(0.0458783 0.47717 0.472154 0.00479717) 45493 90393 1
(0.240604 0.406364 0.32745 0.0255829) 45488 90295 1
(0.910417 0.0309053 0.0142516 0.0444264) 45491 90302 2
(8.099e-09 0.157301 0.842699 2.81951e-09) 45480 142886 1
(0.196044 0.355668 0.224144 0.224144) 45480 90368 1
(0.0266836 0.406342 0.458173 0.108801) 45488 90383 2
(0.368548 0.327251 0.0623056 0.241895) 45536 90479 1
(0.347414 0.326457 0.157201 0.168928) 45534 90388 1
(0.158476 0.356437 0.420121 0.0649652) 45577 90476 2
(0.0708142 0.46856 0.0272459 0.43338) 45568 90458 1
(0.0584791 0.392032 0.4513 0.0981894) 45579 90565 2
(0.199978 0.400139 0.0287859 0.371097) 45578 90476 1
(0.394956 0.0266425 0.295781 0.282621) 45569 90545 2
(0.130139 0.0301466 0.405262 0.434452) 45718 90755 2
(0.120086 0.444077 0.348288 0.087549) 45624 90655 1
(0.181016 0.214265 0.408973 0.195746) 45663 90648 2
(0.759588 0.0979311 0.022517 0.119964) 45659 90638 2
(0.49228 0.254131 0.148641 0.104949) 45710 90742 1
(0.691596 0.154098 0.149878 0.00442802) 45710 90827 1
(0.159305 0.057525 0.420147 0.363023) 45752 90826 2
(0.113774 0.251887 0.44252 0.191819) 45753 90828 2
(0.0207539 0.0799979 0.41471 0.484538) 45797 90913 2
(0.582111 0.0695772 0.144245 0.204067) 45797 90913 2
(0.500798 0.263658 0.00452948 0.231014) 45840 90999 2
(0.505745 0.247338 0.0771041 0.169813) 45841 91004 1
(0.308573 0.349546 0.171077 0.170804) 45814 91035 1
(0.157545 0.420955 0.211477 0.210023) 45838 90998 1
(0.0777406 0.0508376 0.461012 0.41041) 45882 91086 2
(0.0477736 0.162809 0.314022 0.475395) 45887 91094 2
(0.239099 0.396276 0.185481 0.179144) 45884 91087 1
(0.286832 0.357123 0.237147 0.118897) 45882 91084 1
(0.603368 0.19881 0.0125228 0.185299) 45885 91092 1
(0.166847 0.416925 0.142373 0.273856) 45881 91082 1
(0.0716786 0.223821 0.445757 0.258744) 45883 91173 2
(0.586653 0.2135 0.0864028 0.113444) 45928 91175 1
(0.560405 0.00254373 0.219986 0.217065) 45929 91265 2
(0.312697 0.160325 0.18864 0.338338) 45978 91275 2
(0.246406 0.255237 0.139722 0.358635) 45972 91263 2
(0.667198 0.0532363 0.112985 0.166581) 45971 91262 2
(0.691713 0.155663 0.100846 0.0517778) 45942 91203 1
(0.358149 0.237956 0.0999083 0.303987) 46016 91351 2
(0.209663 0.395398 0.216261 0.178678) 46016 91354 1
(0.0262622 0.489882 0.431837 0.0520194) 46018 91443 1
(0.0403049 0.48374 0.122468 0.353488) 35243 69816 1
(0.514394 0.246694 0.0763905 0.162521) 42518 84443 1
(0.195249 0.402519 0.0594379 0.342794) 42038 83396 1
(0.810833 0.0101379 0.0941642 0.0848647) 42740 84887 2
(0.15858 0.421847 0.00526364 0.41431) 42210 83742 1
(0.504288 0.248178 0.115494 0.13204) 42036 83394 1
(0.78526 0.107744 0.083384 0.0236119) 43001 85322 1
(0.735717 0.132507 0.00410452 0.127671) 42782 84886 1
(0.97216 0.00935545 0.0139253 0.0045588) 41854 83030 2