/*--------------------------------*- C++ -*----------------------------------*\
  =========                 |
  \\      /  F ield         | OpenFOAM: The Open Source CFD Toolbox
   \\    /   O peration     | Website:  https://openfoam.org
    \\  /    A nd           | Version:  7
     \\/     M anipulation  |
\*---------------------------------------------------------------------------*/
FoamFile
{
    version     2.0;
    format      ascii;
    class       scalarField;
    location    "0.1475/lagrangian/reactingCloud1";
    object      tTurb;
}
// * * * * * * * * * * * * * * * * * * * * * * * * * * * * * * * * * * * * * //


1205
(
0.00064055
0.00044135
0.001269
0.006293
0.00021155
0.001197
0.000240669
0.006197
0.00042235
0.006173
0.001029
0.000531045
0.000640522
0.006029
0.000662
0.000957
0.001331
0.00054205
0.00011035
0.00258505
0.00231779
0.0023685
0.000789
0.005765
0.000725
0.00224469
0.005717
0.005669
0.0016865
0.0021615
0.0019102
0.005597
0.0020975
0.00176725
0.0007327
0.00077735
0.001281
0.0006772
0.0011907
0.000357
0.005429
0.005381
0.005405
0.000237
4.96568e-05
0.00095105
0.005285
0.0016942
0.00143562
0.005165
0.00132034
0.005141
0.0012815
0.0036212
0.00131266
0.00113713
0.001363
0.00106601
0.000169597
0.00114032
0.00110578
0.004901
0.004925
0.00105282
0.00107012
0.004805
0.00039405
0.000512378
0.001589
0.001565
0.00042005
0.00154063
0.001517
0.001493
0.001469
0.001445
0.001421
0.001397
0.000791
0.001349
0.001325
0.001301
0.001277
0.001253
0.001229
0.001205
0.001181
3.67e-05
0.0005437
0.001109
0.001085
0.001061
0.001037
0.001013
0.000989
0.000965
0.000941
0.000917
0.000893
0.000869
0.000845
0.000821
0.000797
0.000773
0.000749
0.000725
0.000701
0.000677
0.000653
0.000629
0.000605
0.000581
0.000557
0.000533
0.000509
0.000485
0.000461
0.000437
0.000413
0.000389
0.000365
0.000341
0.000317
0.000293
0.000269
0.000245
0.000221
0.000197
0.000173
0.000149
0.000125
0.000101
7.7e-05
5.3e-05
2.9e-05
5e-06
0.00058331
6.2348e-05
0.002957
0.002885
0.002813
0.002765
0.002789
0.002693
0.002717
0.002669
0.0003202
0.002597
0.00122754
0.002549
0.002573
0.002477
0.00111478
0.000418102
0.002453
0.0002055
0.00100885
0.002429
0.002381
0.00138125
0.0004052
0.002357
0.002309
0.002333
0.002261
0.002285
0.002237
0.000197348
0.0002322
0.002189
0.002141
0.002117
0.002093
0.0007335
0.002069
0.002021
0.002045
0.001997
0.00038555
0.000556118
0.001925
0.001901
0.001829
0.001853
0.00082735
0.0004435
0.001805
0.001781
0.00082885
0.001757
0.001733
0.001685
0.001709
0.001661
0.001613
0.000129845
5.05e-05
0.00010285
0.000495347
0.00040435
0.000928311
0.004061
0.000232302
0.0004875
0.000181
0.004013
0.003989
0.003893
0.003869
0.000149255
0.000696
0.000286075
0.003845
5.705e-05
0.003797
0.000804
0.003749
0.003821
0.00296505
0.003725
0.003629
0.003653
0.003533
0.003509
0.003461
0.0023476
0.003605
0.003581
0.003557
0.003341
0.00073655
0.003293
0.003437
0.0030878
0.003413
0.003269
0.003365
0.00027
0.003149
0.003173
0.003101
0.003197
0.003221
0.003077
0.003125
0.002981
0.003005
0.003029
0.002909
0.002933
0.0001997
0.003053
0.002861
0.00119884
2.285e-05
0.004829
0.00059255
0.004853
0.004757
0.0012165
0.00106284
0.000919317
0.004685
0.004661
0.001127
0.004613
0.0010222
0.004565
0.004469
0.004445
0.000584626
0.004397
0.004349
0.004421
0.000578
0.000605522
0.004277
0.004325
0.000650843
0.004301
0.000200258
0.000510693
0.00061335
0.000360653
0.004205
0.000278
0.00355705
0.0029197
0.00233055
0.00080605
0.00307855
0.004414
0.00195155
0.00488929
0.0046892
0.0014162
0.00522955
0.00421035
0.00120005
0.0013312
0.00329955
0.0020493
0.00170755
0.00449655
0.00072905
0.00053855
0.00127135
0.0035915
0.00373135
0.0004157
0.00349085
0.002277
0.00292766
0.00032105
0.0010737
0.00403805
0.00315535
0.00366035
0.00350127
0.00824303
0.00309035
0.00347035
0.00226805
0.00166305
0.00394705
0.0021837
0.00147405
0.0029362
0.00259619
0.004525
0.0009087
0.00067585
0.0038046
0.00323035
0.00034537
0.00102655
0.00373673
0.0025482
0.002421
0.000429069
0.00365485
0.0046977
0.0004065
0.0030607
0.00368185
0.002369
0.0002617
0.0027492
0.00104205
0.0022817
0.0017302
9.385e-05
0.0024217
0.00209285
0.00466008
0.000341
0.0038367
0.002618
0.002124
0.00553621
0.00311105
0.0023925
0.00322505
0.00339105
0.003781
0.00670755
0.0011807
0.00147385
0.0012262
0.00117505
4.855e-05
0.0027977
0.00223985
0.00099635
0.0008885
0.00347629
0.0008992
0.0030712
0.00098255
0.00025005
0.00024175
0.010397
0.004059
0.00672905
0.0019277
0.00286105
0.0067105
0.00384335
0.0006287
0.00290321
0.00115558
0.00112363
0.00263805
0.0010795
0.001813
0.00087785
0.000354
0.00366635
0.00271435
0.00353135
0.00082085
0.000922024
0.00079685
0.00202255
0.00384235
0.00158405
0.002605
0.000648
7.67e-05
0.004238
0.00194435
0.00294785
0.00181823
0.009581
0.0022737
0.00220755
0.0010831
0.000567
0.00312776
0.0010575
0.00302135
0.00277955
0.00298785
0.009365
0.00178216
0.0028347
0.00346885
0.0025612
0.0016392
0.00359035
0.00356635
0.00667585
0.00079455
0.00376935
0.00081105
0.000252
0.00437505
0.00131005
0.00179335
0.000184563
0.0007095
0.00131565
0.00117855
0.009077
0.00121405
0.00206907
0.0006045
0.009029
0.00325435
0.0007495
0.001741
0.00249351
0.00117385
0.00237935
0.00117085
0.00505
0.00031585
0.001525
0.003621
0.003605
0.00082705
0.00490505
0.00161812
0.00148107
0.00209135
0.0013505
0.00270235
0.00176305
0.00117
0.003213
0.00241435
0.000398514
0.00448085
0.0010367
0.00239035
0.00220758
0.00171885
0.0032702
0.00229435
0.00227035
0.000237069
0.00194985
0.007997
0.0013707
0.00263
0.0007912
0.002853
0.007829
3.6e-05
0.007805
0.00413705
0.00338258
0.00196685
0.0019277
0.000589
0.000565
0.0010102
0.00042255
6.32e-05
0.001607
0.00078635
0.0016847
0.007517
0.00069255
0.004145
0.0008787
0.000549527
0.00350935
0.007397
0.0020152
0.007325
0.00195972
0.00084335
0.000762646
0.0018932
0.007205
0.002181
0.001879
0.00010222
0.00305835
0.0031765
0.00113831
0.00291555
0.007061
0.001747
0.00111205
0.00050735
0.006941
0.0031005
0.00034785
0.00342555
0.001797
0.001749
0.00274768
0.001653
0.00292916
0.00370574
0.0027795
0.006653
0.00024955
0.00017135
0.0028655
0.00243555
0.006581
0.00285018
9.935e-05
0.00292223
0.00101505
5.135e-05
0.00385324
0.00362316
0.006485
0.00061435
0.00262715
0.0172682
0.0080215
0.00834805
0.00130605
0.00508485
0.0026907
0.00522385
0.00528805
0.00928635
0.00775335
0.0057645
0.00379835
0.0032222
0.006636
0.00625284
0.0004372
0.00225985
0.0022497
0.00437154
0.0047235
0.00477535
0.0030682
0.00413155
0.00356055
0.0062975
0.0033017
0.00132005
0.00362335
0.00197185
0.0006942
0.0010732
0.00293535
0.00359605
0.0021032
0.0039785
0.0026817
0.00498805
0.00464208
0.00471435
0.00316385
0.00225655
0.0023062
0.003345
0.00180755
0.0053912
0.0049807
0.00588508
0.00500905
0.00263585
0.0028212
0.0050532
0.00286885
0.0035007
0.00248305
0.00328585
0.00510235
0.0062982
0.0059372
0.00285385
0.00400705
0.0029987
0.00233455
0.001307
0.0027152
0.0030747
0.0050367
0.0022807
0.0049575
0.00605121
0.003107
0.00068605
0.00011876
0.0028795
0.00050905
0.00270135
0.0059852
0.0065842
0.00332735
0.0028792
0.00201185
0.00532019
0.0040057
0.00537355
0.00171085
0.0015482
0.00392485
0.0011552
0.000834
0.00456835
0.0040697
0.00262435
0.003903
0.00148055
0.004279
0.00549285
0.0014882
0.0036302
0.000411496
1.99887e-06
0.00365285
0.0020157
0.00464053
0.0053652
0.00551985
0.00273373
0.000904144
0.0034307
0.00587155
0.005388
0.002098
0.00088305
3.405e-05
0.00052755
0.00204935
0.00209555
0.0010473
0.00217281
0.0016427
0.0030192
0.00661035
0.00123949
0.00302903
0.0013517
0.00353055
0.00443835
0.0029182
0.0016817
0.00479855
0.00109885
0.00285235
0.00016385
0.00329535
0.00253185
0.0053512
0.00487335
0.0058762
0.0039562
0.0012987
0.0043272
0.00475735
0.00275085
0.00598235
0.00541465
0.00270755
0.00336705
0.0040455
0.0038125
0.00026935
0.00159504
0.0013112
0.00488985
0.0023537
0.00529705
0.0008525
0.000324
0.00562605
0.0023867
0.0021337
0.0021967
0.00702235
0.00243805
0.002043
0.0014647
0.0039932
0.00059735
0.00521571
0.00533805
0.00432255
0.0019215
0.00436785
0.00381016
0.00275755
0.00319435
0.00523305
0.00400785
0.00115735
0.0020747
0.00211635
0.00465455
0.00505205
0.0026055
0.0059207
0.0040272
5.155e-05
0.00040655
0.0050175
0.0015275
0.0057307
0.00476505
0.00069035
0.0015922
0.00402905
0.00474585
0.00323985
0.002374
0.00120155
0.00056055
0.00067105
0.00189961
0.0015202
8.355e-05
0.00383305
0.0044952
0.0046432
0.00372585
0.0027875
0.00425805
0.0044262
0.006076
0.00093975
0.00287135
0.00109135
0.00162185
0.003626
0.0047945
0.00472185
0.0011712
0.00053735
0.00403705
0.00443685
5.27e-05
0.00205153
0.00513185
0.00055605
0.00451152
0.00405635
0.00319635
0.0013585
0.00062655
0.000165498
0.00041005
4.685e-05
0.00124222
0.0001157
0.00554957
0.00044619
0.000805983
0.0044385
0.00644585
0.00045885
0.0009
0.0009995
0.0032225
0.000528128
0.00513919
0.0019052
0.0018962
4.50836e-05
0.0049985
0.0032847
0.000290706
0.00334785
0.0015802
0.002808
0.00381005
0.00357735
0.0022002
0.00010035
0.0024257
0.0015212
0.00125585
0.00015705
0.004012
0.0002705
0.00097305
0.00236474
0.0029862
0.00472171
0.00389
0.00502505
0.00473335
0.0012975
0.00055255
0.0008827
0.00347435
0.00069835
0.00010155
0.00085935
0.00432479
0.0030527
0.00216885
0.00228881
0.00405905
0.0008592
0.00562185
0.000152223
0.00103385
0.0019667
0.00319385
0.00019055
0.0022862
0.00038635
0.00403617
0.0046575
0.00462313
0.0045825
0.0004072
0.00459505
0.0027167
0.00209105
0.00372935
0.00405426
0.0007165
0.00187355
0.0025727
0.00576335
0.00052005
0.00317735
0.00426135
0.00331755
0.00517635
0.0105695
0.0079242
0.00657405
0.0101257
0.00879055
0.00756305
0.0095095
0.0019027
0.0012392
0.00522835
0.00720105
0.00624885
0.00512155
0.0057957
0.0030817
0.00806655
0.00748481
0.0050752
0.0108982
0.0113877
0.0097731
0.0110641
0.0105637
0.0108196
0.00787447
0.00783235
0.000204486
0.00842255
0.0105409
0.00291349
0.0110749
0.0023427
0.00424683
0.0034035
8.45029e-05
0.0100376
0.0108086
0.00071935
0.00691236
0.0113911
0.00436613
0.0055505
0.00109755
0.0108125
0.0077705
0.00376935
0.00892521
0.00256585
0.00748905
0.00455035
0.0071367
0.0096582
0.000483145
0.0107264
0.0048487
0.0089985
0.00917485
0.00962035
0.0044847
0.0083562
0.004048
0.0104452
0.0069835
0.0090972
0.00803033
0.00912405
0.00784555
0.0007322
0.00801785
0.00332755
0.00416335
0.0094657
0.0029887
0.00481435
0.0022782
0.00889905
0.0039627
0.00581297
0.00398405
0.00409199
0.00129973
0.00416671
0.00580385
0.00568713
0.0033705
0.0101024
0.00969805
0.00043135
0.00571347
0.00880605
0.00751
0.00404678
0.00346549
0.00147022
0.00613485
0.00506035
0.00885271
0.00650659
0.000266
0.0084412
0.00465185
0.0065145
0.00612249
0.0088702
0.00912935
0.00478285
0.0065775
0.00503
0.00311155
0.00791405
0.00463421
0.00691705
0.0069375
0.0047445
0.00354762
0.004826
0.00340505
0.00686159
0.0046407
0.003328
0.00893948
0.00751105
0.00707655
0.00523055
0.00611382
0.00502435
0.000148737
0.00636635
0.00914085
0.00775085
0.00788435
0.00686442
0.00787085
0.00314414
0.0085815
0.0037635
0.00389035
0.00912855
0.00279745
0.0042527
0.00617955
0.00209831
0.00849555
0.00181955
0.00697639
0.00522835
0.000516204
0.00160235
0.00154535
0.005919
0.00422835
0.00344555
0.0027517
0.00795755
0.0088075
0.00155432
0.002879
0.0084715
0.00124535
0.00429985
0.000905714
0.00822035
0.00404905
0.0086577
0.0019927
0.0044392
0.0037947
0.0087305
0.00655605
0.0084192
0.00806205
0.0002097
0.0048745
0.0018812
0.00135737
0.001014
0.002786
0.00118366
0.00102005
0.00765135
0.0100017
0.0028792
0.00521355
0.0076207
0.0017242
0.00762205
0.0069005
0.00103359
0.00274305
0.008523
0.00192205
0.00272948
0.00115005
0.00600635
0.00043185
0.000301982
0.000168139
0.00683855
0.00819905
0.00788658
0.00185335
0.00565537
0.00382355
0.008293
0.001739
0.00773135
0.00348906
0.00141435
0.00402085
0.00353255
0.0073212
0.00527979
5.09913e-05
0.001394
0.00774255
0.00654785
0.005209
0.00501855
0.00235305
0.000579933
0.00304585
0.0036272
0.00464405
0.00338653
0.0044495
0.00722335
0.00101155
0.00676635
0.0062382
0.00673685
0.00514855
0.00252632
0.0021422
0.00471332
0.00042273
0.00784209
0.0057232
0.0034352
0.00691935
0.0060382
0.00257705
0.00070205
0.00784305
0.000466496
0.0062885
0.0042965
0.0064402
0.003448
0.00704071
0.00252205
0.00621564
0.00440685
0.000868506
0.00714585
0.00686885
0.00284055
0.00742606
0.0059982
0.00269885
0.00444805
0.002489
0.00661055
0.0073195
0.0057497
0.00066901
0.00775485
0.00597005
0.00504705
0.00770955
0.0064727
0.00243155
0.00196535
0.0078312
0.0044147
0.001672
0.00117035
0.00443929
0.00344255
0.0027272
0.00485033
0.0020025
0.00452255
0.0062962
0.00508626
0.00621385
0.00692585
0.0032712
0.00603035
0.0015402
0.006877
0.0061617
0.00613905
0.00380485
0.00232505
0.00598035
0.001083
0.0037042
0.00559935
0.0035875
0.0002312
0.00627685
0.00320385
0.00528785
0.00535705
0.00393035
0.00451155
0.00248123
0.00637961
0.0261284
0.0231612
0.0188471
0.0170929
0.0148179
0.00436805
0.0141931
0.0152079
0.0171609
0.0166751
0.0135816
0.00319481
0.0114897
0.00827605
0.0098737
0.00739685
0.00322005
0.00089655
0.00651205
0.00487255
0.00453505
0.00888785
0.0132979
0.0104502
0.0059992
0.00952935
0.0100049
0.0079347
0.00700555
0.00228005
0.0066237
0.0147952
)


// ************************************************************************* //
