/*--------------------------------*- C++ -*----------------------------------*\
  =========                 |
  \\      /  F ield         | OpenFOAM: The Open Source CFD Toolbox
   \\    /   O peration     | Website:  https://openfoam.org
    \\  /    A nd           | Version:  7
     \\/     M anipulation  |
\*---------------------------------------------------------------------------*/
FoamFile
{
    version     2.0;
    format      ascii;
    class       vectorField;
    location    "0.1475/lagrangian/reactingCloud1";
    object      U;
}
// * * * * * * * * * * * * * * * * * * * * * * * * * * * * * * * * * * * * * //


1205
(
(377.412 -3.42643 -2.4387)
(426.919 0.17381 2.21299)
(444.085 -2.19888 -1.70884)
(441.098 -0.0182524 1.5953e-06)
(422.141 -1.76526 -1.77672)
(432.391 -0.579637 -5.90807)
(426.898 6.64243 0.2)
(441.065 -0.0103013 2.21368e-06)
(440.278 3.41054 4.43571)
(440.941 -0.0212314 2.65088e-06)
(452.821 2.38456 -3.30914)
(416.498 7.31549 -10.4367)
(426.708 3.42969 7.28496)
(440.57 -0.0355485 -1.87705e-06)
(427.639 -2.95617 6.49265)
(436.178 -2.01159 2.304)
(416.68 -4.41403 3.37745)
(420.782 -0.593012 -0.800115)
(441.818 -2.71575 3.45854)
(331.92 16.5458 7.6019)
(422.597 -10.1879 8.26563)
(438.69 -19.3868 -8.66991)
(436.734 3.71345 -5.67508)
(440.111 -0.0151331 -7.15047e-06)
(441.384 3.79121 -1.48592)
(433.713 -2.03 1.58745)
(440.237 -0.00829502 -4.44019e-06)
(439.691 0.0191745 -6.82153e-06)
(430.888 5.78552 -7.73311)
(352.667 16.7538 -1.49778)
(424.74 0.820764 -2.43095)
(439.68 0.043923 1.20326e-07)
(366.13 11.8019 -7.50741)
(432.055 -5.69222 5.11066)
(374.671 8.34285 4.94177)
(408.678 -8.76121 6.85503)
(447.371 2.48893 5.45251)
(397.788 -7.49601 8.7575)
(396.303 -0.917287 0.447199)
(436.319 -1.00389 0.299832)
(439.198 0.178396 -9.22806e-06)
(439.352 0.144254 3.71324e-06)
(438.983 0.230897 -0.000138739)
(435.784 -1.35816 -0.818421)
(416.72 1.0176 -3.3078)
(351.792 16.6745 -8.02293)
(438.644 0.384783 -2.6647e-06)
(430.001 0.121014 -9.96594)
(440.203 -1.25118 -0.385886)
(438.151 0.571411 -1.43646e-05)
(432.921 3.73595 -7.75667)
(438.025 0.617569 -9.5217e-06)
(435.407 -0.219292 2.4583)
(428.955 -8.55964 11.8821)
(441.564 -4.69833 0.544611)
(437.029 3.59276 -1.08042)
(418.313 -2.08246 0.352169)
(435.606 0.658953 1.68858)
(420.643 4.16389 3.95242)
(437.038 -3.9643 5.02419)
(433.969 3.00919 4.6714)
(435.801 1.01428 -5.88879e-05)
(435.433 1.27086 -2.94324e-06)
(434.183 1.73034 0.127406)
(407.33 22.424 1.79068)
(434.986 0.477035 -5.11776e-06)
(80.3168 16.7745 2.01058)
(106.552 31.7167 1.40024)
(122.872 15.311 0.00280886)
(118.064 21.3098 0.00125305)
(58.708 22.1159 3.75525)
(128.913 12.2805 -0.000187376)
(128.897 14.3233 -0.000108478)
(133.704 7.46926 0.000491716)
(118.668 28.6412 0.00142246)
(135.036 10.9879 -0.000553006)
(131.773 21.0717 0.00020487)
(135.593 17.0252 0.000542317)
(143.101 26.1369 -7.78797)
(134.592 26.709 3.70411e-05)
(135.042 29.7281 0.000151135)
(142.141 19.1693 -0.000172686)
(144.217 3.38945 -4.24371e-05)
(145.773 12.6717 -0.000749605)
(147.464 18.2221 -3.40225e-05)
(149.273 17.2339 -0.000695788)
(151.487 24.4323 -7.36845e-05)
(134.369 20.3321 3.14757)
(171.267 7.70873 18.0736)
(154.742 12.7428 -0.000516783)
(160.184 20.3388 -0.000390333)
(161.332 19.2451 -0.000409903)
(164.36 22.4607 -0.000721813)
(161.027 11.9096 -0.00156126)
(159.032 7.98108 -0.00105182)
(158.714 6.56058 -0.000184951)
(165.71 10.7038 -0.000918408)
(164.55 9.02112 7.46394e-05)
(161.65 5.99104 -1.87372e-06)
(159.927 3.4837 -1.58048e-06)
(166.434 6.92914 -0.00239161)
(159.927 0.999626 -8.43853e-05)
(164.96 5.08672 1.48704e-05)
(167.286 5.01656 -0.000322776)
(165.744 4.20229 8.29177e-05)
(163.74 3.06361 -8.94813e-05)
(164.564 3.0958 4.38063e-05)
(162.956 1.63869 -0.000420205)
(167.521 1.41151 0.000849752)
(165.534 2.41726 -0.000137008)
(165.961 2.24448 -0.000178677)
(164.123 1.48966 5.75171e-06)
(166.29 1.68385 -0.000985528)
(166.808 0.774075 -1.10123e-05)
(165.071 1.39437 5.27735e-05)
(166.407 0.844206 0.000880326)
(165.28 0.0820615 0.000175514)
(164.531 0.478653 1.42924e-05)
(165.962 0.835158 1.0903e-05)
(165.008 0.770684 1.36705e-05)
(165.977 0.0800958 -2.28451e-05)
(165.854 0.598 -0.000251911)
(165.556 0.77135 -7.13319e-05)
(165.843 0.376966 0.000213052)
(165.798 0.0237508 -1.57326e-05)
(165.8 0.102656 -4.43287e-05)
(165.743 0.0379575 0.000141594)
(165.624 0.538987 0.000120739)
(165.403 0.0679427 -1.26543e-06)
(143.493 -0.199724 -1.73766e-07)
(112.978 -0.158361 -4.95446e-06)
(165.63 0.00902693 0.000103675)
(165.559 0.549802 -1.02882e-05)
(165.598 0.483729 -3.98571e-06)
(165.602 0.390022 0.000228388)
(165.605 0.151849 -5.45609e-06)
(17.9266 -2.14198 4.74273)
(15.1673 1.12681 -1.86473)
(112.017 -18.311 -0.00251284)
(114.529 -17.1631 -2.71361e-05)
(117.78 -15.4264 -0.000102416)
(120.732 -13.3347 0.00116705)
(112.05 -15.0997 -0.000836766)
(121.364 -10.7754 0.000682005)
(114.393 -13.4406 0.00149226)
(115.089 -11.9562 0.00188604)
(64.9973 -8.38014 3.08382)
(122.936 -6.60697 0.00171883)
(90.7043 -6.47566 8.31303)
(118.311 -7.67121 3.30788e-06)
(113.929 -9.75585 -9.56564e-05)
(119.142 -5.48737 9.7686e-06)
(91.0841 -8.89529 -0.478444)
(95.4622 -6.55378 -6.20404)
(115.703 -6.25204 0.00152383)
(76.2429 -4.45807 -0.221875)
(86.3541 -11.0359 3.43484)
(102.043 -7.62142 0.000489138)
(112.986 -5.33708 0.000540056)
(96.8129 -16.3269 3.58609)
(92.9517 -6.5478 -0.539472)
(115.376 -4.30153 0.000337583)
(113.101 -3.88493 0.000447951)
(105.633 -5.22069 0.00045568)
(116.776 -2.23036 7.81522e-05)
(102.929 -4.07203 0.00156353)
(108.694 -2.69605 0.000578763)
(39.0404 6.42779 -10.0316)
(54.1489 -0.118931 8.28808)
(98.8775 -1.06419 0.00272419)
(119.041 -0.294087 0.000325776)
(112.518 0.322641 9.62938e-05)
(112.157 0.874691 0.00209347)
(80.7658 2.8587 0.981709)
(115.665 1.13245 1.32963e-05)
(119.169 1.3176 -3.17336e-06)
(100.122 3.76707 0.00102237)
(100.179 5.58924 0.0009824)
(46.9066 10.352 -0.388978)
(89.9508 8.17091 -0.110618)
(102.103 7.97683 0.000992989)
(101.86 8.93553 0.00274817)
(116.19 7.51526 0.00182319)
(109.655 9.04459 6.71734e-06)
(88.5121 6.94681 -8.79885)
(75.3632 15.2362 -4.39988)
(98.5196 14.2676 0.00480701)
(104.32 14.0092 0.00566743)
(91.4535 9.7227 -8.59982)
(103.865 15.1994 0.000116595)
(112.906 13.5461 0.00279599)
(123.288 8.89111 -0.000100972)
(110.69 15.5047 -5.49994e-05)
(127.073 6.10514 0.000793027)
(129.529 4.95995 -0.000169756)
(86.388 -23.5402 -10.0118)
(115.698 -30.1883 -0.868113)
(75.114 -21.6969 -1.56057)
(56.8256 -17.1112 0.638529)
(121.618 -37.208 2.84184)
(336.481 -14.2306 0.187376)
(350.479 -6.95615 0.000161147)
(334.506 -27.0987 -7.76904)
(329.623 -18.5899 4.17303)
(328.431 -10.7008 -2.75155)
(337.566 -10.7812 -0.00361858)
(334.137 -11.2669 2.71652e-05)
(331.601 -1.20697 -0.00016517)
(324.034 -2.22615 -9.65644e-05)
(320.97 -13.0127 2.3614)
(303.939 -28.1475 -2.3924)
(320.877 -29.3015 2.78731)
(311.3 -9.06107 -0.00254574)
(290.082 -39.0243 -0.345513)
(295.221 -11.1361 0.000793824)
(235.816 -58.1953 -4.07398)
(263.599 -26.4673 0.00148315)
(250.556 -41.7528 0.00253661)
(237.034 -52.8192 9.78192)
(243.017 -33.5576 0.000223016)
(248.047 -4.56409 -3.33498e-06)
(243.36 -21.0367 2.06531e-05)
(208.794 -21.2733 0.000416401)
(208.649 -17.7194 0.000219746)
(202.968 -12.1692 0.000161123)
(172.661 -47.0456 0.381985)
(171.076 -39.3184 0.000306293)
(161.13 -38.455 -0.00149984)
(152.987 -37.047 0.000890605)
(175.909 -18.0901 2.37289e-05)
(124.778 -32.9361 1.25462)
(170.258 -16.1025 0.00139898)
(148.475 -33.7947 0.00260052)
(146.311 -42.278 15.6347)
(145.893 -33.0622 0.000799142)
(157.557 -22.3228 0.000391492)
(147 -30.7387 0.00202568)
(81.6199 -19.4385 -6.82455)
(160.152 -1.68123 4.29988e-05)
(147.619 -20.8095 -9.16127e-06)
(153.525 -8.81549 -3.16433e-05)
(137.515 -25.6618 0.000408976)
(134.024 -26.6464 0.00011992)
(146.425 -13.973 -8.49771e-06)
(129.671 -23.8292 -6.49707e-06)
(135.859 -15.4198 0.000312026)
(133.27 -17.9261 -0.000100251)
(128.897 -20.3444 0.000136792)
(129.028 -15.4933 0.00280686)
(126.75 -17.2725 0.000573577)
(109.566 -36.028 2.15278)
(114.747 -21.1259 0.000860958)
(129.442 -12.8773 0.000279028)
(418.867 -14.7775 8.52395)
(407.001 1.773 0.701535)
(434.54 1.08063 -2.11178e-05)
(366.481 2.98368 0.453891)
(433.856 1.44747 -1.12478e-05)
(432.624 1.13697 -1.01141e-05)
(423.668 0.290465 2.29954)
(336.573 8.28591 -8.21041)
(414.972 2.5651 0.00569219)
(430.376 1.12166 -1.252e-06)
(429.161 1.14896 -3.06791e-07)
(422.148 -6.80178 14.3161)
(428.602 0.637874 6.61432e-05)
(412.072 1.16254 -0.412565)
(419.406 0.878525 6.38195e-05)
(415.261 0.271501 7.8271e-05)
(414.03 0.125749 0.000299135)
(404.618 8.43345 7.06354)
(412.267 -0.0956219 0.000259328)
(408.972 -0.241014 9.91505e-06)
(406.841 -0.534057 7.31384e-06)
(409.18 -8.58835 1.08375)
(396.13 0.435692 4.0751)
(398.568 -0.644928 5.50019e-05)
(396.712 -1.40627 -0.000319796)
(361.644 -15.4331 5.43922)
(391.827 -1.89708 -0.000683986)
(378.962 -6.06257 4.68039)
(314.126 -0.278533 -3.52884)
(368.603 -21.9606 -8.45815)
(363.006 2.42664 2.1912)
(375.696 -3.5271 0.00119843)
(360.299 -7.63451 0.6787)
(358.316 -24.1533 -20.8562)
(311.261 -1.67183 12.1154)
(292.557 4.14947 10.5382)
(378.98 -36.3158 -13.1528)
(338.273 1.67933 -11.0647)
(346.45 1.63136 10.1817)
(313.297 -7.28512 -1.28041)
(336.995 0.764684 -3.58333)
(332.242 16.7231 7.63556)
(394.789 1.69386 14.1477)
(348.492 7.45452 -9.11752)
(332.308 1.48101 -0.561541)
(386.047 1.85305 1.28501)
(342.497 1.13286 -2.03898)
(378.49 2.64121 -0.301656)
(363.989 6.78322 -1.54098)
(378.815 25.6582 -3.71175)
(345.527 -5.34293 -1.13325)
(406.892 -7.58877 -11.8201)
(393.13 -7.57732 1.67505)
(396.377 1.05309 -1.94303)
(410.612 -2.2333 -5.3818)
(385.492 -0.369498 5.79922)
(430.215 3.26113 -1.83984)
(396.811 1.64485 2.22549)
(366.831 10.4024 -2.20656)
(435.53 -4.87362 1.02414)
(363.396 6.12956 1.20995)
(418.377 -7.358 -8.06129)
(444.158 -10.5496 -2.95659)
(416.655 -1.13532 -2.00491)
(356.849 7.79463 -20.7636)
(411.854 4.27363 6.46123)
(430.891 -6.7293 -0.621707)
(353.69 14.1076 -5.92936)
(382.31 5.96457 -19.16)
(400.509 -4.71813 -1.34948)
(382.935 8.06857 -15.8961)
(432.458 0.294137 0.535749)
(424.815 -2.77605 0.671713)
(443.171 -0.862649 -0.590262)
(414.95 -4.68119 0.344742)
(440.324 -0.084794 -0.163551)
(437.329 -2.85074 -5.88455)
(409.321 -2.49858 1.08973)
(441.365 -4.63219 5.87549)
(434.559 -0.432171 -0.410263)
(429.665 -4.94628 12.1575)
(442.503 0.206049 -2.61645)
(411.216 -0.458573 -0.226687)
(430.238 1.34798 2.18794)
(389.877 6.45156 -4.23207)
(438.316 0.514213 9.86668)
(445.442 -0.0382833 -0.0974604)
(404.47 -1.67685 -0.98485)
(326.452 15.4191 -1.58006)
(375.57 -5.22891 1.12349)
(330.338 21.9833 12.0026)
(348.989 11.9748 -10.0401)
(420.562 -1.49987 5.86443)
(410.923 4.91135 17.1962)
(442.932 -18.4368 -10.329)
(442.683 2.8283 -1.14817)
(462.588 -9.13531 -2.10137)
(421.928 -0.593281 -4.17614)
(344.148 5.39378 -5.50666)
(400.401 -4.85782 -3.64379)
(442.968 0.101891 3.86484)
(440.063 -9.42336 1.89387)
(379.756 -7.72136 9.54369)
(421.259 -2.31706 -5.5703)
(437.131 -1.02495 8.26556)
(426.617 -0.467267 0.0374735)
(443.616 0.714814 0.474796)
(453.161 -12.3132 -11.3353)
(420.852 -2.81838 -5.80151)
(359.204 14.6741 -0.88329)
(403.312 -3.61699 -7.46464)
(429.257 1.78452 -3.02372)
(440.248 -6.63227 -0.743658)
(447.668 3.78822 0.554452)
(382.26 2.55998 -6.74415)
(417.009 4.55544 -0.878648)
(419.013 -5.91292 -4.40568)
(425.728 -5.45444 -0.46851)
(395.763 8.41579 1.5002)
(387.372 3.41216 1.89831)
(402.29 6.82698 2.61344)
(356.565 -4.38552 -7.38889)
(434.922 -5.20571 -1.19336)
(398.581 -4.66823 3.49391)
(410.812 -4.68006 0.242)
(400.988 -0.561298 -0.0191423)
(443.918 -0.482572 0.119483)
(440.789 -1.24876 -0.221063)
(442.904 -0.172593 9.34681e-06)
(351.373 10.8912 0.0920841)
(441.858 -7.75482 -1.74795)
(411.778 -14.2765 -14.2278)
(364.886 7.51582 14.1512)
(436.423 -10.3887 1.4915)
(432.039 1.26123 2.01113)
(445.632 3.15765 5.35804)
(445.083 4.4469 3.56389)
(445.659 -0.741412 1.6221)
(440.345 0.264549 4.24273)
(421.023 -12.0661 -11.8601)
(440.44 -4.49072 1.9591)
(421.412 -1.22665 -1.41698)
(385.99 14.7492 -12.5655)
(411.238 -11.564 -2.56462)
(357.077 14.946 2.13052)
(406.627 -9.2425 7.8822)
(428.416 1.99814 0.718211)
(443.265 -1.57147 -0.946855)
(433.646 -1.76223 2.25466)
(435.132 3.49424 -0.411147)
(405.576 1.3733 -2.65985)
(436.383 -7.62096 6.91602)
(392.934 -0.793229 -0.0370107)
(451.315 -14.4643 15.596)
(431.439 4.47703 -4.54049)
(429.216 -5.18506 -1.63676)
(446.15 -10.4649 -7.36651)
(414.822 -6.68203 -5.05016)
(415.244 -2.28078 14.3229)
(439.736 -4.031 4.16513)
(442.766 -0.0552417 0.000100825)
(376.845 8.09559 -2.58325)
(386.389 -4.15966 2.65544)
(439.839 -2.26949 -9.97954)
(437.298 -0.384103 0.127244)
(418.731 -3.02119 -7.62372)
(436.867 0.114284 3.08589)
(371.109 4.82862 0.184005)
(391.575 0.410885 1.63181)
(415.716 -0.0211799 1.61263)
(442.985 -0.0119932 1.42259e-05)
(384.495 -0.70825 -0.0251706)
(387.03 0.191901 -2.82186)
(359.663 6.22875 2.64124)
(428.577 -35.2593 15.946)
(412.193 -0.694512 0.361698)
(427.171 1.02395 1.82853)
(439.13 -2.61919 -1.58532)
(445.265 -10.0109 -2.75113)
(391.602 1.94714 13.8464)
(443.675 -10.2742 -14.727)
(431.261 0.158588 0.666435)
(424.029 -13.4224 0.351186)
(340.624 16.0913 1.20489)
(397.408 12.1802 -1.67171)
(407.214 -6.75274 4.03702)
(445.016 -11.828 11.1876)
(415.049 -2.54636 -8.68057)
(442.681 -0.478739 -0.273141)
(416.606 -3.8596 -4.13093)
(442.969 0.0365148 -4.02638e-06)
(427.473 -0.224566 -0.460391)
(402.71 -1.54679 -1.01408)
(448.816 11.1436 8.07198)
(442.928 0.0586433 -4.49063e-06)
(440.918 -3.31925 3.38129)
(445.803 -0.0301598 -0.0250215)
(440.069 0.100561 6.54041)
(421.455 -0.701594 -0.768001)
(420.186 5.72222 12.931)
(438.46 0.397279 -0.432717)
(373.253 4.35415 -1.64036)
(432.918 -7.55258 1.51667)
(422.539 11.4018 -3.65713)
(440.705 -0.246998 0.16359)
(436.266 -1.12635 10.3338)
(434.872 -0.20986 -0.869411)
(444.919 12.3163 10.6953)
(443.804 -12.4484 -7.05031)
(438.07 6.56951 2.25514)
(426.912 -0.46848 1.09595)
(443.666 -3.8478 0.350887)
(363.238 16.9709 16.7683)
(439.216 -0.51432 -0.34657)
(411.987 3.70208 -0.597628)
(422.335 5.15595 -7.03018)
(436.651 -0.162113 2.01303)
(439.758 0.0896851 -0.469592)
(441.286 -2.80778 2.16371)
(464.737 -9.83063 -2.26852)
(439.878 0.00113308 0.0370637)
(434.755 0.304694 2.04362)
(408.386 1.52995 1.1772)
(433.063 -5.59584 4.86661)
(358.669 8.85865 -3.53909)
(437.142 1.47459 -1.42042)
(442.077 2.96335 3.98851)
(447.807 -8.64367 -7.98628)
(393.699 9.16074 18.1522)
(442.615 -0.0194955 -3.8162e-07)
(384.306 2.88344 8.40459)
(335.735 14.6399 1.23554)
(429.927 2.81707 0.276325)
(435.887 1.18888 0.169722)
(442.492 -0.0326645 -3.5467e-07)
(430.676 7.8213 3.67184)
(442.357 -0.0210621 3.8323e-05)
(436.727 -5.63582 5.79787)
(356.624 14.8604 2.08686)
(362.195 3.45223 2.02415)
(374.353 -0.216964 7.42486)
(441.076 -0.99843 0.811624)
(441.167 0.373791 0.47118)
(426.578 -2.37262 -0.852316)
(436.224 1.45359 4.59546)
(407.046 -0.882083 0.594327)
(404.475 4.47471 -7.15923)
(437.468 -21.2603 -5.76721)
(428.368 -11.9705 8.42421)
(442.189 0.00224739 -1.70867e-06)
(411.424 0.582889 -1.72751)
(424.927 -9.33482 -9.39306)
(402.649 -12.0601 -2.18296)
(444.558 4.07889e-05 -0.00450656)
(437.065 -3.31488 -14.2847)
(442.012 0.0152553 -1.33948e-06)
(415.627 -0.464202 -0.872676)
(442.254 -0.0153941 -1.94874e-05)
(400.838 3.68607 2.57296)
(439.707 1.11813 1.43977)
(431.772 4.38592 -7.24386)
(433.783 0.00073766 -0.0500479)
(442.258 -0.00625207 -8.62049e-08)
(439.759 -1.63465 1.61358)
(411.159 -0.274333 -0.133137)
(437.363 -4.81855 4.25683)
(436.783 -7.32823 3.56552)
(440.704 -18.3651 -5.01408)
(423.194 -0.371757 -0.294606)
(437.85 0.790964 -1.34703)
(442.125 -0.00721155 1.15162e-07)
(355.028 19.825 1.36471)
(419.068 3.67396 1.66426)
(439.042 -0.932889 -0.115163)
(441.973 0.00350236 -3.40842e-06)
(431.524 0.424045 -1.20052)
(437.559 -11.0785 8.13538)
(431.884 -7.18789 -1.33546)
(436.469 2.5396 -1.10967)
(439.243 0.737582 -0.359469)
(451.721 -1.80264 -9.89286)
(440.675 -4.25482 1.84315)
(438.169 -3.98145 3.03162)
(353.029 15.3189 -1.95173)
(451.914 -10.3015 10.1153)
(441.337 -0.0102209 5.26871e-06)
(433.626 -3.25654 -9.32039)
(450.389 -1.31717 -7.63291)
(429.916 -12.146 0.326259)
(442.274 -1.30021 -2.30791)
(441.49 -0.00603361 5.64372e-06)
(448.53 -11.7102 -10.8326)
(446.328 -3.33337 5.09366)
(440.196 -9.7673 7.25696)
(386.954 -0.648432 -0.393111)
(439.305 -3.3815 -0.231252)
(459.11 -13.4607 3.91405)
(344.563 9.63572 20.3694)
(440.619 -0.0599221 -1.66947e-05)
(440.886 -1.51816 2.49088)
(446.169 -4.40148 6.63352)
(248.452 27.8088 1.89895)
(261.393 4.9448 2.38272)
(218.646 22.8721 1.9159)
(244.279 4.61111 -19.7939)
(267.653 19.5968 -2.52156)
(265.198 39.5929 3.40107)
(270.54 17.5193 -11.5914)
(285.371 32.6292 -0.771986)
(274.575 10.0697 2.40721)
(285.428 23.4702 1.57884)
(348.674 4.17401 2.15187)
(302.509 -2.41525 -10.432)
(368.281 -4.87962 -2.08675)
(329.552 11.4904 -9.58857)
(387.691 -3.11043 0.176335)
(292.46 -12.0556 -4.3134)
(391.102 -1.86582 7.28945)
(395.419 0.00236084 0.089494)
(395.705 1.73744e-05 -0.00565282)
(345.55 14.7632 -12.2769)
(349.307 -15.1927 -2.7596)
(394.135 -0.0527358 0.0328053)
(405.945 -3.38686 -17.5003)
(344.473 1.52754 1.20922)
(398.939 1.27371 0.416595)
(389.344 -1.07967 -0.409025)
(372.961 -0.101114 -1.03995)
(351.755 17.3711 -1.62959)
(393.272 1.93932 -2.4088)
(372.385 8.39974 5.67697)
(346.455 24.7474 -11.3744)
(308.863 5.23244 -4.4638)
(339.622 1.73228 -14.7139)
(354.739 -2.78246 9.84065)
(393.172 1.49314 -3.22234)
(377.615 -1.50932 3.35261)
(376.854 0.531107 9.93861)
(396.248 0.476982 0.545058)
(315.509 3.11613 3.66235)
(390.277 4.21565 -18.1432)
(400.786 -2.79825 2.94189)
(350.32 7.6483 -5.26717)
(387.012 9.1192 11.0582)
(371.207 1.99672 -2.62038)
(378.207 -1.4564 -2.00603)
(392.467 -4.26785 -17.9507)
(397.173 0.555561 -0.371595)
(392.279 -1.69252 3.67606)
(385.327 6.40838 -8.52752)
(333.55 -22.8426 11.4915)
(332.649 0.207544 -0.694074)
(398.586 0.394422 -4.26196)
(357.928 -1.52811 1.60386)
(388.374 -4.67579 -4.0079)
(395.501 -0.0504418 -4.1403)
(321.505 17.313 16.668)
(364.311 8.53457 -1.96109)
(374.56 -5.97397 -4.16796)
(351.357 3.45137 8.31158)
(354.36 0.842913 5.99347)
(404.135 0.179424 0.274273)
(330.085 16.8602 14.6778)
(393.113 5.06918 -1.41617)
(372.45 1.16021 8.99046)
(342.186 24.861 -1.27347)
(391.138 4.10735 9.5296)
(289.758 -0.191888 1.30991)
(392.149 -0.144214 4.46074)
(353.362 -2.34767 8.72353)
(363.921 -4.51523 -0.79678)
(356.203 0.540743 8.78653)
(403.705 19.1288 23.8861)
(389.223 -2.49946 4.26585)
(400.912 -9.33761 13.5387)
(380.826 2.20313 8.60401)
(388.348 -2.17937 6.72813)
(340.347 2.73591 -27.0316)
(406.661 0.631117 0.922089)
(285.108 7.21846 -15.5494)
(400.713 -0.778044 -1.2126)
(403.797 0.186787 5.74786)
(337.376 -3.64186 1.85108)
(387.768 -0.692316 -0.0244684)
(416.331 -4.77332 5.37875)
(299.131 13.233 -21.109)
(378.411 -2.327 -0.44663)
(367.011 9.51079 8.27352)
(407.446 0.0127426 0.637302)
(370.08 2.03 14.3351)
(397.651 -0.839811 0.475287)
(400.854 -0.357125 0.180618)
(364.747 0.42674 8.3384)
(416.575 10.6017 -17.8263)
(407.211 0.00124114 0.0379771)
(349.925 2.02264 7.81381)
(392.567 1.16575 0.724101)
(433.907 -14.4256 1.76302)
(408.261 0.0125627 0.684177)
(410.859 0.00127282 0.0428207)
(400.037 -9.92902 8.25885)
(405.235 7.07903 2.24723)
(400.519 3.22008 -0.405617)
(401.641 2.19869 8.30339)
(395.742 -1.39084 0.405943)
(410.879 2.19768 0.647315)
(409.116 5.40996 -0.138421)
(405.248 3.48131 3.79629)
(318.448 0.989945 -1.251)
(412.708 -16.6125 -6.40068)
(405.707 4.32647 -3.08605)
(389.955 -3.43797 0.704431)
(384.5 -24.568 -12.6679)
(291.411 0.134532 6.68356)
(373.379 -2.63112 -0.685815)
(386.053 2.69901 3.3801)
(417.309 -0.00237676 -0.00330731)
(375.118 3.36276 6.03526)
(394.741 0.520423 2.52828)
(379 4.12934 -12.6685)
(327.526 0.898252 -3.95521)
(415.234 0.388797 -0.362108)
(414.62 0.139306 -0.271562)
(378.43 7.65958 -3.10102)
(369.008 9.70539 6.96738)
(381.716 -2.82605 1.80889)
(398.812 -3.79365 9.22192)
(323.323 14.1771 -13.923)
(397.986 -2.42857 1.21892)
(417.227 0.0023067 -0.0975115)
(399.157 -3.28325 8.58019)
(321.241 -0.0238446 -0.790257)
(399.247 -1.49204 -16.3827)
(362.037 -1.34765 -0.446308)
(395.457 -2.43163 -1.27233)
(389.028 3.01782 5.03523)
(356.679 11.1523 -1.70174)
(367.492 5.4888 -1.91272)
(421.093 0.00177165 -0.0573757)
(347.114 15.2873 -1.12758)
(421.192 -6.63147 -12.9828)
(432.877 -4.07104 -10.3025)
(335.448 6.40721 -7.85914)
(418.233 0.615042 0.433347)
(394.755 -1.54825 9.76851)
(409.491 -8.12564 0.692515)
(401.635 -4.50025 -0.394565)
(419.665 0.770679 -0.242388)
(390.749 -0.974582 -0.0671547)
(427.301 5.17032 3.64154)
(418.596 1.44535 -3.93691)
(402.594 -0.679185 -0.116661)
(341.219 3.76657 8.16123)
(419.083 1.37155 0.594129)
(388.519 14.8938 -16.4918)
(341.693 21.9544 15.1535)
(419.956 -0.691482 -0.328476)
(370.469 7.69279 5.33888)
(350.12 4.08582 -17.1976)
(401.226 9.60883 2.57595)
(317.664 9.37428 -12.2376)
(424.365 -4.29355 7.22221)
(425.749 1.00025 -0.585294)
(373.505 16.9577 4.45604)
(401.129 -0.471551 -2.06298)
(377.894 6.36937 3.38166)
(413.649 6.4755 -6.17951)
(424.724 0.164433 4.15436)
(389.347 -0.946435 10.758)
(427.559 0.761304 2.46082)
(407.135 -1.56884 -0.601366)
(403.721 2.13033 -1.21087)
(361.116 12.7803 5.35449)
(426.722 -4.03325 3.52346)
(419.118 -6.18057 4.53326)
(416.348 -0.21075 -0.07121)
(323.591 4.8958 -0.643)
(425.335 -1.40509 -10.7701)
(405.375 2.68095 8.62513)
(401.681 -0.692697 -1.80788)
(316.048 14.5517 -25.0437)
(352.059 14.5219 -9.49842)
(430.366 1.93759 -1.59529)
(376.507 5.34621 2.22481)
(426.434 -0.273441 0.0584523)
(383.216 4.27423 -1.77151)
(355.221 2.60313 -14.7793)
(373.764 13.226 -5.58945)
(432.522 0.00178409 -0.0206408)
(319.991 11.5681 -11.2502)
(346.857 2.2297 -1.70024)
(376.218 -8.53457 7.66445)
(376.351 -1.25041 0.0354759)
(423.675 -5.93253 -5.71837)
(429.348 0.713989 -4.5702)
(430.447 -23.1771 -12.3647)
(420.409 0.546239 -1.02454)
(407.176 -1.09453 1.94427)
(391.86 4.7523 6.70333)
(433.439 -0.706615 0.158477)
(428.801 -1.43287 -11.4951)
(342.03 -8.27817 -6.40125)
(380.328 -0.0616892 7.07506)
(379.23 -2.33231 0.454892)
(388.655 -0.267932 13.217)
(382.544 2.58133 0.655862)
(408.387 8.75533 6.43246)
(431.406 -0.0707519 0.189265)
(422.849 -6.52537 -3.61191)
(424.436 -2.77427 -1.56241)
(373.081 -1.70651 1.27935)
(357.17 -0.392035 0.0180155)
(433.154 0.233523 0.171349)
(423.023 -3.77662 2.98139)
(302.807 18.6906 -3.34974)
(372.061 4.40432 -0.568807)
(289.041 -8.36925 -13.5097)
(411.553 -5.11457 -1.50263)
(391.329 4.15683 -2.33589)
(344.306 4.20283 -2.08394)
(383.109 -16.8943 -15.8259)
(427.846 3.8256 -2.94479)
(421.35 -1.4048 -1.95596)
(420.212 -9.7561 -0.850166)
(411.401 12.2511 -12.153)
(436.955 0.00184774 0.079227)
(399.097 4.3669 1.34451)
(417.078 -6.60612 4.90996)
(425.15 -1.74364 -3.63104)
(304.525 2.52678 -1.65032)
(436.813 1.16497 3.59225)
(360.282 1.58103 -1.70607)
(419.547 -0.348234 8.44122)
(441.409 -0.0648759 0.420473)
(405.138 4.85383 -0.463718)
(438.254 -7.41991 0.819196)
(440.889 0.000999225 -0.0515529)
(439.162 -0.00116233 -0.00407271)
(302.767 22.7891 -3.20356)
(318.808 15.7532 -15.8089)
(437.771 -0.341746 -10.7723)
(432.44 0.709161 2.14341)
(424.235 -10.1375 3.64579)
(352.403 0.799998 1.1925)
(439.575 -2.72822 -9.81307)
(363.588 6.71919 4.62909)
(415.888 0.369094 -6.37992)
(444.73 -5.70623 -4.23556)
(446.411 3.18732 9.39143)
(440.629 -3.39157 1.80387)
(409.731 -3.69796 -12.1679)
(429.742 10.1072 -10.0617)
(409.97 -0.5836 6.58748)
(436.025 -0.483374 -0.0123435)
(428.616 6.23703 4.5854)
(353.1 17.2664 7.90883)
(371.058 -0.551168 -15.4251)
(411.232 -0.695293 -14.1615)
(444.187 -1.529 1.5493)
(413.349 -3.48714 -1.38486)
(413.046 2.20366 -11.1057)
(418.627 0.853921 -2.14284)
(398.243 7.49773 -7.44766)
(426.08 3.36381 -1.12159)
(422.142 15.4659 6.56892)
(407.143 -5.53492 -12.0158)
(420.589 4.857 3.01019)
(416.869 -2.49334 -2.80431)
(447.118 0.000437858 -0.0219702)
(436.999 -3.34671 1.47548)
(317.238 20.8536 13.5494)
(299.208 19.1094 -0.879989)
(435.468 -9.98617 0.015821)
(417.586 -3.60151 2.99404)
(437.009 -10.5431 13.8033)
(275.959 8.05857 7.48122)
(422.28 -1.07255 -2.50091)
(439.915 -1.54922 -2.53521)
(336.883 -4.66991 5.10591)
(431.556 -0.101876 -0.174581)
(444.669 -2.04246 1.48454)
(420.482 -0.544696 -0.00865122)
(430.57 0.164996 -1.40387)
(436.721 -11.258 -2.59113)
(371.272 -4.21554 -5.53634)
(337.391 9.3455 3.11673)
(439.28 0.435375 3.7764)
(411.253 5.81738 4.07069)
(437.145 -2.43656 11.7482)
(430.706 -13.1359 18.9552)
(423.818 -3.88992 -8.59793)
(409.336 -1.81181 -1.80475)
(441.786 -4.14686 5.88182)
(434.261 -0.104432 -0.00386407)
(335.335 2.70033 -13.5587)
(432.414 0.686672 9.88058)
(439.502 -1.06809 4.20501)
(419.736 -4.7528 -0.208041)
(435.885 -2.9004 -9.65829)
(435.197 -4.2681 -5.23854)
(389.741 2.18575 10.7476)
(417.617 -6.72901 -3.79792)
(433.687 -12.1146 1.766)
(339.263 11.7501 -6.6877)
(374.519 -14.8086 -6.76204)
(440.608 -2.55276 4.31378)
(441.306 -4.35292 0.62492)
(411.423 -6.43839 34.0624)
(419.184 2.37493 0.771343)
(420.331 -9.78759 1.75914)
(303.253 4.13077 -6.42846)
(332 -1.52021 -3.40023)
(316.914 4.10212 6.38253)
(327.623 0.259567 0.337117)
(300.867 11.8701 13.5066)
(316.098 10.0992 9.94774)
(330.455 2.12622 0.0352644)
(300.817 -0.917788 3.03032)
(320.238 12.939 -1.55871)
(290.845 1.47989 18.061)
(355.246 -4.00822 -10.9061)
(313.477 0.329562 1.02383)
(331.434 13.5795 -3.79918)
(333.576 0.212712 -1.09486)
(311.598 15.6537 -4.19914)
(317.834 -0.133341 -11.0686)
(357.344 -4.59577 -21.6712)
(325.557 -2.70594 35.5983)
(338.453 0.000180402 -0.0304303)
(337.177 -0.00574063 -0.010836)
(335.419 0.91886 0.804088)
(341.322 3.67563 -9.94382)
(339.051 -0.00124159 -0.0357066)
(340.599 7.78162 -9.91783)
(296.61 9.73476 -4.69444)
(334.525 0.345698 -0.666223)
(341.255 0.0011127 0.834938)
(350.864 -0.467652 7.03086)
(333.036 27.7357 2.14045)
(336.023 -1.54153 -0.638061)
(333.711 2.87577 2.30054)
(338.155 3.81049 20.1434)
(352.13 -0.38081 -3.58887)
(303.447 4.95047 3.51013)
(340.789 0.006614 0.00905737)
(340.971 20.8834 -16.2928)
(334.136 -0.500265 -6.59886)
(285.906 15.4111 -5.42987)
(340.695 0.288088 1.37129)
(314.317 -3.57586 -5.38608)
(348.112 5.83186 21.5967)
(342.263 0.928027 3.54859)
(352.486 -0.0016123 -0.163539)
(321.546 -24.194 16.712)
(333.003 2.35024 4.12014)
(340.339 -0.067782 -0.128713)
(298.37 7.7841 -12.1257)
(341.308 -1.59783 -2.22785)
(338.603 -7.4396e-05 0.023333)
(341.964 -3.04299 -0.693955)
(313.588 -8.98935 -4.75334)
(323.304 2.29022 5.93629)
(335.108 0.126614 -0.567099)
(341.823 0.0781081 4.73562)
(341.73 6.66427 -11.2753)
(342.494 -0.000285814 -0.0388035)
(344.898 -0.00052358 -0.0668473)
(328.651 6.61707 10.1012)
(342.324 -1.93283 -0.0131157)
(343.433 -3.34095 -6.46578)
(342.77 -3.73517 -16.1028)
(344.255 -0.68281 -0.209604)
(340.955 2.36173 7.53753)
(345.84 1.18745 0.585673)
(314.35 8.50563 -10.0007)
(335.704 7.44592 -7.45914)
(344.232 1.00009 1.48689)
(310.928 17.3469 14.173)
(356.612 -9.45888 5.93826)
(288.044 -6.81813 -6.68574)
(339.102 -1.16023 7.55376)
(337.842 -2.51387 -3.63215)
(342.654 0.855996 2.708)
(334.029 -1.69213 -0.227901)
(319.641 5.30059 -1.63974)
(346.738 0.201818 0.146119)
(310.711 -0.0611844 0.278279)
(344.296 -0.326331 -0.207844)
(312.826 13.8093 -2.24668)
(347.114 5.54775 7.2705)
(295.707 20.0169 2.69376)
(333.497 -0.00395709 0.206433)
(349.627 -0.00283099 0.124836)
(344.834 4.94137 -0.611213)
(331.736 11.4752 -3.4919)
(348.965 7.9865 -7.59176)
(344.908 -1.55334 -1.75808)
(344.214 -0.236584 -0.027315)
(340.367 -0.00341877 -5.77378)
(346.152 1.35699 0.162109)
(351.745 0.785258 11.7239)
(344.215 -1.70406 -0.880535)
(342.963 -2.89664 17.0337)
(343.983 15.7667 -12.635)
(347.64 -1.45967e-05 -0.000429234)
(357.447 1.23457 10.7871)
(330.448 0.991815 -4.15849)
(346.398 -1.98595 13.6294)
(356.065 1.818 1.47388)
(350.304 2.9758 2.94555)
(354.657 -0.0900896 -0.204156)
(348.942 -8.14135 7.11586)
(300.467 17.4284 4.11838)
(305.416 7.06615 2.11787)
(345.464 13.6449 2.31811)
(344.959 4.43402 3.1313)
(328.925 9.37193 3.14708)
(361.847 -7.28885 18.9168)
(339.89 -1.77969 -1.50527)
(343.865 2.99086 2.8611)
(332.361 -8.26657 11.4407)
(333.433 8.13581 -1.61946)
(342.844 4.79222 18.1923)
(319.834 11.964 -3.66495)
(350.705 0.000368044 -0.000707658)
(349.502 4.69807 -1.02876)
(325.779 1.51246 4.72482)
(334.171 12.617 -7.565)
(332.86 -0.659098 -0.193782)
(346.87 4.70727 -7.15131)
(322.288 17.8537 1.47374)
(351.354 0.000192795 -0.0704611)
(352.164 0.805845 0.338759)
(359.599 -3.2541 12.3857)
(352.847 1.43522 -0.735699)
(344.987 -0.516968 -0.0538525)
(353.214 1.17235 1.91774)
(330.459 6.18799 -2.12273)
(362.778 0.00343267 0.242177)
(294.784 24.371 -1.43088)
(353.953 -6.83738 4.19931)
(353.121 3.64491 3.81056)
(367.239 -0.54682 2.99177)
(352.964 0.00368737 -0.978017)
(308.901 5.59182 -6.98564)
(351.215 1.53496 6.78144)
(353.867 -6.50855 10.8153)
(353.324 6.53818 -6.68805)
(342.2 6.08026 -7.96339)
(297.698 7.80195 -10.0904)
(352.528 -0.000319189 -0.0865969)
(346.474 -0.977365 -0.546349)
(349.743 -6.75642 0.528999)
(370.652 22.9576 8.47849)
(338.118 -7.76797 -18.5664)
(354.195 11.2812 6.80043)
(338.44 10.7386 0.0916452)
(353.739 -0.244466 0.439251)
(356.312 -0.345268 -0.124963)
(319.207 -1.53061 -7.12141)
(347.871 -1.57547 10.2248)
(350.08 -4.59398 -10.1942)
(324.272 19.4541 -6.05124)
(353.757 -4.97223 -4.96762)
(360.486 -9.26888 -10.6214)
(364.71 2.67005 8.20641)
(356.794 0.000471769 -0.0221515)
(369.435 11.5146 12.6197)
(354.032 0.00120415 0.0613645)
(337.131 4.81751 -4.02869)
(323.848 8.52884 0.68975)
(321.882 -2.85887 -0.341689)
(355.682 -0.0595939 2.0601)
(319.035 6.4609 2.03378)
(354.416 -0.119281 0.0840798)
(353.343 -0.4394 3.63024)
(349.573 -6.8792 7.00294)
(362.879 7.84998 -7.25095)
(363.222 -0.000163438 0.0278547)
(326.125 -8.27834 -4.60863)
(361.997 -2.00054 -6.16568)
(352.135 2.76209 -3.22519)
(361.513 -5.40884 11.3784)
(351.381 8.45703 -0.990415)
(354.945 5.98393e-05 0.0358256)
(358.496 0.000121558 0.0309913)
(372.77 0.515671 -5.31207)
(320.31 -7.75814 -7.33881)
(358.426 -0.00230093 0.0651274)
(334.094 -0.0923191 -3.51848)
(326.446 14.0534 -33.1141)
(358.521 0.756161 -1.62086)
(304.434 -8.66803 -4.76074)
(355.7 0.114486 -5.15283)