/*--------------------------------*- C++ -*----------------------------------*\
  =========                 |
  \\      /  F ield         | OpenFOAM: The Open Source CFD Toolbox
   \\    /   O peration     | Website:  https://openfoam.org
    \\  /    A nd           | Version:  7
     \\/     M anipulation  |
\*---------------------------------------------------------------------------*/
FoamFile
{
    version     2.0;
    format      ascii;
    class       vectorField;
    location    "0.1475/lagrangian/reactingCloud1";
    object      UTurb;
}
// * * * * * * * * * * * * * * * * * * * * * * * * * * * * * * * * * * * * * //


1205
(
(2.89248 -2.80462 -2.43874)
(-1.87015 0.545701 2.213)
(4.13615 -2.10954 -1.7087)
(0 0 0)
(-1.55848 -1.3438 -1.77667)
(-7.3348 -0.476655 -5.90807)
(5.76604 7.08339 0.200047)
(0 0 0)
(0.332381 3.49953 4.43582)
(0 0 0)
(13.4787 2.50768 -3.30914)
(1.72481 7.79829 -10.4365)
(6.2298 3.87362 7.28498)
(0 0 0)
(9.13386 -2.50321 6.49278)
(-3.41371 -1.91227 2.30401)
(-2.20244 -3.97235 3.37747)
(-1.73129 -0.180826 -0.800086)
(1.91383 -2.65185 3.45855)
(-23.5172 16.2066 7.60181)
(-10.9141 -9.91269 8.2657)
(-1.63664 -19.3604 -8.66991)
(-1.87933 3.83107 -5.67492)
(0 0 0)
(2.83381 3.88572 -1.48581)
(0.770743 -1.7878 1.58747)
(0 0 0)
(0 0 0)
(-1.65628 5.9412 -7.73283)
(-2.63716 16.3036 -1.49792)
(-7.51049 0.936397 -2.4306)
(0 0 0)
(11.4769 11.44 -7.50717)
(-4.24387 -5.74643 5.11066)
(-4.54537 8.60269 4.94189)
(-4.90265 -8.6445 6.85506)
(9.96719 2.38693 5.45265)
(-22.362 -7.52256 8.7576)
(0.00648715 -0.746719 0.447423)
(-2.27354 -1.22481 0.299906)
(0 0 0)
(0 0 0)
(0 0 0)
(-2.5313 -1.75397 -0.818187)
(-0.807906 0.735567 -3.30775)
(0.780637 16.1667 -8.02297)
(0 0 0)
(2.40748 -0.530943 -9.96573)
(6.76707 -2.03348 -0.38561)
(0 0 0)
(-2.72976 2.90303 -7.75631)
(0 0 0)
(-0.763466 -1.13182 2.45838)
(-8.156 -9.44733 11.8821)
(4.58872 -5.5817 0.5448)
(0.730148 2.63435 -1.08039)
(-0.250624 -3.235 0.352421)
(-0.523533 -0.498038 1.68881)
(0.560745 2.86073 3.95263)
(1.16828 -5.23694 5.02419)
(-0.450703 1.50529 4.67143)
(0 0 0)
(0 0 0)
(0.163866 0.0804672 0.12749)
(4.80263 20.7527 1.79083)
(0 0 0)
(1.2462 0.57498 2.01071)
(2.97576 1.6906 1.4)
(0 0 0)
(0 0 0)
(3.02185 10.269 3.75529)
(0 0 0)
(0 0 0)
(0 0 0)
(0 0 0)
(0 0 0)
(0 0 0)
(0 0 0)
(10.449 -6.32504 -7.78786)
(0 0 0)
(0 0 0)
(0 0 0)
(0 0 0)
(0 0 0)
(0 0 0)
(0 0 0)
(0 0 0)
(-2.83548 0.599158 3.11607)
(3.79677 -12.1693 18.0733)
(0 0 0)
(0 0 0)
(0 0 0)
(0 0 0)
(0 0 0)
(0 0 0)
(0 0 0)
(0 0 0)
(0 0 0)
(0 0 0)
(0 0 0)
(0 0 0)
(0 0 0)
(0 0 0)
(0 0 0)
(0 0 0)
(0 0 0)
(0 0 0)
(0 0 0)
(0 0 0)
(0 0 0)
(0 0 0)
(0 0 0)
(0 0 0)
(0 0 0)
(0 0 0)
(0 0 0)
(0 0 0)
(0 0 0)
(0 0 0)
(0 0 0)
(0 0 0)
(0 0 0)
(0 0 0)
(0 0 0)
(0 0 0)
(0 0 0)
(0 0 0)
(0 0 0)
(0 0 0)
(0 0 0)
(0 0 0)
(0 0 0)
(0 0 0)
(0 0 0)
(0 0 0)
(0 0 0)
(-2.73839 0.130866 4.74175)
(-3.52914 2.80083 -1.86549)
(0 0 0)
(0 0 0)
(0 0 0)
(0 0 0)
(0 0 0)
(0 0 0)
(0 0 0)
(0 0 0)
(-5.0544 -2.07647 3.07979)
(0 0 0)
(4.42195 4.51577 8.31507)
(0 0 0)
(0 0 0)
(0 0 0)
(-1.29718 -0.81801 -0.479463)
(0.693785 2.04163 -6.20465)
(0 0 0)
(-0.181879 0.837029 -0.221295)
(4.43307 -5.45931 3.43454)
(0 0 0)
(0 0 0)
(5.5566 -10.1852 3.58552)
(0.0776476 -0.359488 -0.539807)
(0 0 0)
(0 0 0)
(0 0 0)
(0 0 0)
(0 0 0)
(0 0 0)
(13.5839 0.605821 -10.0322)
(3.80683 -5.31781 8.2765)
(0 0 0)
(0 0 0)
(0 0 0)
(0 0 0)
(-1.05307 -0.739453 0.980821)
(0 0 0)
(0 0 0)
(0 0 0)
(0 0 0)
(-5.28396 -0.824413 -0.404144)
(-0.113929 -0.323015 -0.113481)
(0 0 0)
(0 0 0)
(0 0 0)
(0 0 0)
(-1.438 -5.76172 -8.80379)
(-6.23647 0.556966 -4.40893)
(0 0 0)
(0 0 0)
(0.912007 -6.21371 -8.60468)
(0 0 0)
(0 0 0)
(0 0 0)
(0 0 0)
(0 0 0)
(0 0 0)
(5.35506 -0.975181 -10.016)
(0.722922 1.56698 -0.869216)
(-0.518549 -0.587025 -1.56222)
(-0.743913 -0.284301 0.637474)
(2.47981 -3.8249 2.87005)
(-2.53837 -0.817259 0.18741)
(0 0 0)
(4.46703 -9.7424 -7.76821)
(-0.222747 -1.06059 4.17579)
(-5.20291 4.16259 -2.74985)
(0 0 0)
(0 0 0)
(0 0 0)
(0 0 0)
(-11.5139 2.31374 2.36343)
(-1.06059 5.75945 -2.38478)
(11.648 1.69356 2.78753)
(0 0 0)
(1.64981 -1.05689 -0.346852)
(0 0 0)
(-0.0279502 -6.29853 -4.07466)
(0 0 0)
(0 0 0)
(-2.32814 -14.5415 9.78246)
(0 0 0)
(0 0 0)
(0 0 0)
(0 0 0)
(0 0 0)
(0 0 0)
(5.69835 -3.1666 0.3782)
(0 0 0)
(0 0 0)
(0 0 0)
(0 0 0)
(2.59979 0.857622 1.272)
(0 0 0)
(0 0 0)
(-7.59735 -16.2315 15.6355)
(0 0 0)
(0 0 0)
(0 0 0)
(0.892763 1.72158 -6.81282)
(0 0 0)
(0 0 0)
(0 0 0)
(0 0 0)
(0 0 0)
(0 0 0)
(0 0 0)
(0 0 0)
(0 0 0)
(0 0 0)
(0 0 0)
(0 0 0)
(2.24732 -13.9368 2.15169)
(0 0 0)
(0 0 0)
(-10.7037 -16.7311 8.52398)
(-0.542659 -0.331306 0.701862)
(0 0 0)
(-2.80052 0.94337 0.453919)
(0 0 0)
(0 0 0)
(-1.74276 -1.89699 2.29978)
(-3.59862 6.59309 -8.2105)
(0.00100673 0.287754 0.00594084)
(0 0 0)
(0 0 0)
(-3.76903 -8.66913 14.316)
(0 0 0)
(-0.686095 -0.192596 -0.412998)
(0 0 0)
(0 0 0)
(0 0 0)
(-6.18314 8.218 7.06285)
(0 0 0)
(0 0 0)
(0 0 0)
(11.7877 -7.5585 1.08336)
(-2.54939 2.00142 4.07491)
(0 0 0)
(0 0 0)
(-10.0573 -11.9259 5.43926)
(0 0 0)
(3.78308 -1.18952 4.6805)
(2.16412 5.30684 -3.52795)
(1.16234 -15.7568 -8.45731)
(1.34464 8.72771 2.19157)
(0 0 0)
(-0.365425 -0.527549 0.678538)
(0.690998 -21.4323 -20.8563)
(-13.5781 -2.03095 12.1154)
(-1.11166 3.5723 10.5382)
(1.41952 -35.718 -13.1529)
(6.54881 1.4698 -11.0647)
(12.5058 1.4518 10.1816)
(-6.18438 -7.77371 -1.28045)
(7.07302 0.463555 -3.58351)
(7.82285 16.3576 7.63546)
(18.2173 2.28662 14.1477)
(1.72324 7.54126 -9.11753)
(1.65366 1.165 -0.561574)
(-1.76481 2.44668 1.28502)
(6.39403 0.935023 -2.03899)
(2.9811 3.24317 -0.301672)
(8.25763 7.04745 -1.54102)
(16.5709 26.0485 -3.71186)
(-4.79469 -5.25715 -1.13371)
(7.45056 -7.04744 -11.8201)
(-1.86809 -6.96392 1.67499)
(-0.973359 1.62043 -1.94307)
(3.41808 -1.73843 -5.38199)
(-7.01438 0.312578 5.79919)
(-2.93299 3.56893 -1.83985)
(2.12233 2.30257 2.22547)
(11.5378 10.6247 -2.20668)
(-6.44543 -5.10297 1.02414)
(-0.642363 6.54481 1.20993)
(0.736625 -6.78015 -8.06129)
(2.8942 -10.7785 -2.95638)
(-0.534645 -0.58825 -2.0052)
(-3.42338 8.12307 -20.7639)
(4.83197 4.73803 6.4612)
(-11.3852 -6.92528 -0.621611)
(-6.59622 14.4458 -5.92937)
(-9.45446 6.66724 -19.1601)
(-0.90759 -4.10407 -1.34937)
(3.35332 8.62682 -15.8961)
(1.21003 0.820254 0.53576)
(-5.44969 -2.21971 0.671746)
(1.06325 -1.05631 -0.590395)
(0.185234 -4.28513 0.344803)
(0.0903846 -0.110428 -0.163411)
(-1.19984 -2.71592 -5.88418)
(-3.84888 -2.10308 1.08977)
(20.7963 -4.16136 5.8753)
(0.145391 0.00166144 -0.410073)
(2.41395 -4.38912 12.1575)
(-0.167061 0.204486 -2.61644)
(-0.488541 -0.00864744 -0.226426)
(-0.403971 1.8843 2.18792)
(-15.1308 7.07076 -4.23206)
(-0.429642 0.72484 9.86727)
(2.70174 -5.78818 1.28236)
(-0.0479146 -1.04247 -0.984831)
(-6.18677 14.9639 -1.58017)
(4.85872 -4.71597 1.12338)
(-6.61903 21.6498 12.0026)
(-8.07734 12.2 -10.0401)
(-6.67256 -1.11227 5.86445)
(-2.98667 5.31771 17.1965)
(1.401 -18.3454 -10.329)
(0.491759 2.85158 -1.14818)
(21.7825 -8.99632 -2.10141)
(-0.0948611 -0.300979 -4.17614)
(1.12824 5.17056 -5.50666)
(-2.11647 -4.1741 -3.64379)
(1.62111 0.270073 3.86483)
(-1.21127 -9.23252 1.89385)
(-15.7882 -7.09499 9.54344)
(4.94374 -1.92518 -5.57016)
(-2.75777 -0.714006 8.26561)
(0.938058 -0.206448 0.037472)
(0.724562 0.745886 0.474797)
(13.2018 -12.0159 -11.3352)
(-1.93593 -2.53223 -5.80151)
(-3.50786 15.0199 -0.883347)
(-11.9948 -3.11259 -7.46452)
(-0.963287 2.04487 -3.02362)
(-2.25083 -6.45513 -0.743672)
(5.81921 4.02801 0.554451)
(-5.74535 3.0846 -6.74416)
(-0.404668 5.05653 -0.878488)
(-2.14724 -5.51276 -4.40571)
(-1.59767 -5.2562 -0.468513)
(6.81514 8.94025 1.5002)
(-0.96967 3.95966 1.89826)
(5.8926 7.36875 2.61345)
(8.03021 -4.51439 -7.38909)
(-0.389582 -5.04382 -1.19339)
(0.740202 -4.13498 3.49393)
(-1.54886 -4.02811 0.241949)
(0.0276232 -0.0158415 -0.0192111)
(1.25209 -0.252456 0.119472)
(3.77115 -1.07434 -0.221107)
(0 0 0)
(-3.48712 10.9998 0.0920386)
(-0.444857 -7.50136 -1.74799)
(-25.6288 -14.1599 -14.2278)
(-5.09171 7.97098 14.1512)
(-6.59648 -10.3444 1.4915)
(0.0619537 1.44702 2.01113)
(3.33913 3.39425 5.35803)
(2.20712 4.6491 3.5639)
(3.42029 -0.524502 1.62214)
(-1.33711 0.445295 4.24256)
(-6.30746 -11.6643 -11.8602)
(-2.08362 -4.28248 1.95912)
(0.378533 -0.655165 -1.41687)
(2.43893 15.3521 -12.5656)
(7.64363 -11.0839 -2.56463)
(1.60954 15.0481 2.13051)
(-13.658 -8.64662 7.88221)
(-0.77173 2.40425 0.718209)
(0.661784 -1.43199 -0.946833)
(1.32665 -1.44265 2.25496)
(-6.98218 3.58602 -0.411391)
(0.485782 1.84156 -2.65993)
(-1.59114 -7.50865 6.91602)
(0.0999326 -0.22333 -0.0370068)
(8.26987 -14.4362 15.596)
(11.4709 5.05416 -4.54048)
(-13.4939 -5.08727 -1.63694)
(5.60473 -10.4144 -7.36651)
(-2.05556 -6.14633 -5.05025)
(3.86718 -1.80655 14.3229)
(-2.59285 -3.99805 4.165)
(0 0 0)
(-0.7723 8.60927 -2.58326)
(-12.8058 -3.62456 2.65554)
(-2.30506 -2.26177 -9.97951)
(-0.0554198 -0.153628 0.12725)
(-4.57725 -2.49606 -7.62384)
(-5.12534 0.120238 3.08591)
(-15.9477 5.44121 0.183906)
(1.06313 1.02343 1.6318)
(3.16745 0.418741 1.61266)
(0 0 0)
(-0.0331123 -0.11909 -0.0251768)
(-3.26121 0.793269 -2.82201)
(-2.39096 6.52378 2.64105)
(-14.4388 -35.2589 15.946)
(0.18665 -0.284924 0.361706)
(-3.71273 1.52139 1.82853)
(-0.571145 -2.4734 -1.58533)
(2.69325 -10.0302 -2.75112)
(-9.54203 2.52027 13.8466)
(3.41134 -10.1524 -14.7265)
(-0.591873 0.624965 0.666434)
(-12.3782 -13.0653 0.351229)
(-3.53671 15.6205 1.20488)
(1.82064 12.7921 -1.67171)
(-2.0811 -6.25295 4.03701)
(11.661 -11.3868 11.1876)
(18.0178 -1.93527 -8.68058)
(0.827253 -0.452379 -0.27315)
(0.0891735 -3.44557 -4.13077)
(0 0 0)
(3.89053 0.147194 -0.460391)
(-0.196504 -0.978783 -1.01395)
(7.51942 11.2305 8.07219)
(0 0 0)
(0.576973 -3.14206 3.38129)
(2.84716 -2.6189 -0.491737)
(-1.16599 0.232214 6.54058)
(0.932282 -0.327085 -0.76798)
(-7.21527 6.04583 12.931)
(0.38111 0.706031 -0.432712)
(-16.1125 4.88663 -1.64035)
(-9.54504 -7.55699 1.51665)
(3.19647 11.8135 -3.65714)
(-0.180131 -0.0659429 0.163604)
(-1.50897 -0.845452 10.3338)
(1.13902 0.0874909 -0.869376)
(6.09169 12.5722 10.6953)
(0.956283 -12.522 -7.05031)
(-4.78531 6.501 2.25512)
(-0.189436 -0.155798 1.09595)
(2.35736 -3.70108 0.350956)
(-11.8904 17.4975 16.7683)
(0.276897 -0.29188 -0.346474)
(0.632412 4.26617 -0.597627)
(0.00318735 5.62002 -7.03019)
(1.66078 0.0629105 2.01305)
(0.315442 0.235477 -0.469521)
(-0.849148 -2.75025 2.16373)
(23.5144 -9.71162 -2.26849)
(-2.88033 -3.2933 -1.81746)
(-4.33836 0.446441 2.0437)
(-1.78991 2.04709 1.17711)
(-1.24093 -5.35191 4.86669)
(-1.52395 9.09864 -3.53937)
(0.353544 1.66224 -1.42039)
(7.28502 3.19692 3.98871)
(5.49295 -8.60907 -7.98627)
(7.7908 9.70492 18.1522)
(0 0 0)
(-6.02539 3.42045 8.40459)
(-21.2879 14.6837 1.23554)
(0.911304 3.19939 0.276423)
(2.07928 1.46966 0.170174)
(0 0 0)
(-11.3593 7.82815 3.67184)
(0 0 0)
(-3.60937 -5.56549 5.79789)
(1.36183 14.6643 2.08685)
(-6.71126 3.88975 2.02404)
(2.35186 0.258869 7.42486)
(-0.481761 -0.986465 0.811708)
(-0.21889 0.391251 0.471278)
(-2.32568 -1.97858 -0.852278)
(2.84957 1.78313 4.5955)
(-3.30114 -0.436177 0.59434)
(-5.64421 4.92116 -7.15923)
(-1.66628 -21.1168 -5.7672)
(-1.3793 -11.5999 8.42428)
(0 0 0)
(-4.17593 1.00259 -1.72751)
(-16.9199 -9.34821 -9.39306)
(-14.0084 -11.6485 -2.18296)
(2.16012 -0.469201 0.159463)
(-3.29946 -3.2375 -14.2847)
(0 0 0)
(0.435181 -0.04331 -0.872673)
(0 0 0)
(-0.62137 4.20862 2.57296)
(-0.921313 1.18542 1.44008)
(8.22799 4.75023 -7.24386)
(-8.47991 -4.97214 -1.98376)
(0 0 0)
(-0.69705 -1.55347 1.6139)
(-0.0931218 0.182281 -0.132989)
(1.51165 -4.55117 4.25685)
(-0.57739 -7.10644 3.56558)
(-1.44869 -18.3592 -5.01407)
(-0.552112 -0.00545295 -0.294435)
(1.10895 1.02574 -1.34703)
(0 0 0)
(-1.91234 19.9747 1.36469)
(1.36786 4.09283 1.66432)
(-2.22849 -0.911151 -0.115157)
(0 0 0)
(-2.90202 0.696739 -1.20051)
(0.665218 -10.8466 8.13538)
(-8.56982 -7.12614 -1.33546)
(-1.95005 2.71623 -1.10967)
(0.643019 0.908403 -0.359403)
(12.3014 -1.67164 -9.89281)
(-0.166168 -4.23556 1.84325)
(-1.18976 -3.85343 3.03165)
(2.12573 14.9357 -1.95184)
(10.5433 -10.2954 10.1153)
(0 0 0)
(-0.767208 -2.98322 -9.32037)
(9.49121 -1.28976 -7.63285)
(-11.4977 -12.1359 0.326245)
(2.71419 -1.19493 -2.30787)
(0 0 0)
(7.45063 -11.6773 -10.8326)
(5.4843 -3.27748 5.09368)
(0.593391 -9.67542 7.25696)
(0.912892 -0.058049 -0.39312)
(-1.32984 -3.31662 -0.231237)
(18.0019 -13.4249 3.91405)
(-11.3657 9.52355 20.3693)
(0 0 0)
(0.451362 -1.45317 2.49089)
(7.14228 -4.2683 6.63357)
(-2.66099 27.7945 1.89895)
(-7.90088 4.57923 2.38282)
(-33.0101 22.7693 1.9159)
(-15.2672 4.34982 -19.7939)
(2.74618 19.2951 -2.52154)
(9.12095 39.4126 3.40107)
(-8.29705 17.0471 -11.5914)
(15.363 32.2403 -0.771979)
(-8.87216 9.72723 2.40722)
(-2.21244 23.1093 1.57885)
(-1.09921 4.48866 2.15186)
(-8.21674 -2.57772 -10.432)
(-7.21559 -4.40088 -2.08676)
(-7.71407 11.6513 -9.58859)
(-1.12842 -2.93467 0.176272)
(-8.36282 -12.3295 -4.3134)
(-0.388838 -1.85142 7.28946)
(4.29482 -6.62441 4.97069)
(2.6899 -0.584275 0.198572)
(2.38291 14.9994 -12.2769)
(-17.7113 -14.7277 -2.76)
(-0.339905 -4.38741 0.477965)
(21.7611 -2.95712 -17.5004)
(0.381523 1.7752 1.20919)
(9.62439 1.57178 0.416576)
(0.477402 -0.677562 -0.409155)
(2.933 0.39747 -1.03998)
(-2.86898 17.7368 -1.6296)
(-0.294994 2.11334 -2.4088)
(19.7757 8.74406 5.67696)
(-13.5828 25.162 -11.3748)
(-8.58821 5.13451 -4.46383)
(6.91293 1.83949 -14.7139)
(7.95373 -2.50091 9.84052)
(-0.657313 1.59268 -3.22234)
(-1.0393 -0.98869 3.35258)
(-3.13226 1.04314 9.93849)
(-0.484078 0.511143 0.54506)
(-2.34301 3.01466 3.6623)
(19.3812 4.7071 -18.1432)
(12.6588 -2.35604 2.94189)
(3.23101 7.92306 -5.26719)
(4.97483 9.60656 11.0582)
(-13.2622 2.49111 -2.62043)
(0.536006 -0.927717 -2.0063)
(-4.14624 -4.06839 -17.9508)
(0.327282 0.60631 -0.371595)
(7.751 -1.18862 3.67605)
(-3.73758 6.84768 -8.52754)
(-14.4301 -22.5559 11.4915)
(5.8653 0.221907 -0.694079)
(5.47785 0.772534 -4.262)
(0.148736 -1.13296 1.60373)
(-2.877 -4.20865 -4.00793)
(3.58358 0.364133 -4.14035)
(-11.8191 17.3926 16.6678)
(9.618 8.90199 -1.9613)
(-7.19237 -5.48161 -4.16802)
(-6.57587 3.85661 8.31126)
(-1.39559 1.22095 5.99344)
(5.26198 -6.40065 0.624734)
(-12.8496 17.0783 14.6777)
(3.99188 5.57946 -1.41626)
(5.54447 1.6514 8.99047)
(-2.41381 25.1047 -1.27347)
(-5.31733 4.45551 9.5296)
(-1.52864 -0.584198 1.30992)
(-7.40878 0.173806 4.46075)
(3.60969 -2.03647 8.72342)
(13.9832 -4.2019 -0.796806)
(7.89932 0.833103 8.78633)
(1.71521 19.1695 23.8862)
(-1.32479 -1.96396 4.26584)
(-1.71922 -9.24884 13.5387)
(-0.830118 2.77249 8.60398)
(-8.67284 -1.69045 6.72813)
(-2.73515 2.95975 -27.0317)
(3.24086 0.728403 0.922091)
(-11.3119 6.84555 -15.5494)
(-0.81497 -0.466785 -1.21262)
(-1.02467 0.20407 5.74788)
(1.15957 -3.52105 1.85105)
(-0.0327348 -0.117732 -0.0248897)
(15.2458 -4.42774 5.37875)
(-15.6181 13.0629 -21.109)
(1.76106 -1.76024 -0.446669)
(-4.05157 10.0487 8.2735)
(0.561717 -5.21122 19.021)
(-9.87866 2.60918 14.3351)
(-2.63951 -0.348757 0.475221)
(0.232064 0.113956 0.180548)
(-4.0916 0.953405 8.33839)
(12.4251 10.9488 -17.8264)
(-0.839112 -2.71774 2.13815)
(-18.5902 2.54748 7.81377)
(1.2233 1.75153 0.723943)
(25.9415 -14.3357 1.76302)
(-0.569483 -2.9741 -15.2204)
(0.807079 -1.34448 2.17407)
(-10.9051 -9.9045 8.25887)
(4.91604 7.62945 2.24716)
(-6.88457 3.53589 -0.405639)
(18.599 2.78212 8.30333)
(-0.556622 -0.793861 0.405808)
(-1.01647 2.34641 0.647317)
(-2.18484 5.51471 -0.138421)
(-4.68058 3.7659 3.79629)
(-0.894619 0.850764 -1.251)
(3.86636 -16.5871 -6.40069)
(-5.83911 4.67158 -3.0861)
(-0.416367 -2.8252 0.704404)
(12.3437 -24.086 -12.7033)
(-1.94471 -0.273694 6.68356)
(3.26226 -2.08985 -0.685849)
(-16.4668 3.30902 3.38009)
(0.361388 -0.364373 -0.0883728)
(25.219 3.66671 6.03524)
(-0.962185 1.13631 2.52828)
(-4.45859 4.7416 -12.6686)
(-0.966048 0.879549 -3.95522)
(0.905171 0.399622 -0.36211)
(0.0207766 0.149901 -0.271563)
(1.31585 8.25415 -3.10107)
(0.740378 10.2273 6.96733)
(-1.0735 -2.19812 1.80871)
(-3.24753 -3.17257 9.22154)
(-7.19106 14.1921 -13.923)
(0.896563 -1.80792 1.21858)
(1.62724 -10.1327 3.39077)
(2.47765 -2.66309 8.5799)
(-1.39709 -0.133736 -0.790334)
(3.95771 -0.87283 -16.3829)
(-0.209376 -0.887651 -0.446363)
(1.19549 -1.80566 -1.27233)
(4.73698 3.64478 5.0352)
(7.54069 11.4277 -1.70178)
(0.618859 5.99329 -1.91296)
(3.24388 -0.856874 -2.24105)
(0.840316 15.5167 -1.12782)
(20.007 -6.00843 -12.9829)
(16.875 -3.6993 -10.3025)
(-15.4916 6.71306 -7.85953)
(-1.75523 0.734954 0.433349)
(-3.50828 -0.91401 9.7685)
(-11.1982 -7.78359 0.692371)
(-5.05314 -3.9015 -0.394714)
(-1.71465 0.868051 -0.242388)
(-0.120669 -0.305697 -0.0673156)
(6.06792 5.45521 3.64154)
(-2.40809 1.74387 -3.93693)
(0.121601 -0.0620115 -0.116655)
(-5.10591 4.00845 8.16122)
(1.60035 1.84277 0.594145)
(-3.86167 15.5771 -16.492)
(8.39689 21.9854 15.1532)
(-2.60877 -0.398956 -0.32847)
(-15.302 8.36934 5.33866)
(2.25361 4.3458 -17.1976)
(1.58045 10.2583 2.57591)
(2.02248 9.14409 -12.2376)
(11.6773 -3.75549 7.22224)
(0.486786 1.05514 -0.585295)
(8.38549 17.4412 4.45602)
(-5.40096 0.139756 -2.06302)
(0.525092 6.96685 3.38164)
(3.70616 7.0353 -6.17973)
(2.72736 0.532722 4.15431)
(19.8259 -0.409031 10.758)
(0.329513 0.796243 2.46083)
(-1.7948 -0.965788 -0.601367)
(-0.88032 2.7985 -1.21096)
(-8.33926 13.3144 5.35441)
(7.15425 -3.64984 3.52361)
(-1.56043 -5.84058 4.53328)
(2.03334 0.285303 -0.0711714)
(-15.1077 4.98823 -0.643018)
(5.75823 -1.0486 -10.7701)
(4.54749 3.43358 8.62512)
(-1.88217 0.0532074 -1.80792)
(-14.9765 14.5131 -25.0439)
(-4.63725 14.8811 -9.49845)
(0.702393 2.01138 -1.59528)
(-1.35293 5.963 2.22463)
(0.1195 -0.118467 0.0584734)
(-1.64765 4.91901 -1.77171)
(-10.3209 3.09033 -14.7797)
(0.0374932 13.8198 -5.58951)
(-0.256571 -2.18045 0.68042)
(-10.4094 11.5079 -11.2502)
(-36.3737 2.88114 -1.70027)
(-2.53593 -7.92681 7.6644)
(-0.343312 -0.65922 0.0354619)
(2.44694 -5.50109 -5.71845)
(2.94968 0.891924 -4.57023)
(1.69935 -23.0366 -12.3646)
(-4.80366 0.807925 -1.02441)
(-2.5971 -0.359683 1.94425)
(10.0141 5.40953 6.7033)
(-0.0431119 -0.721541 0.158509)
(5.00155 -1.08447 -11.4947)
(4.6056 -8.55791 -6.40344)
(-10.0593 0.587622 7.07491)
(-0.4917 -1.7183 0.454868)
(-15.7405 0.389326 13.2168)
(-6.73364 3.23511 0.655637)
(6.58231 9.43784 6.43237)
(0.0976968 0.0179683 0.189401)
(-0.0551755 -5.99433 -3.61209)
(-9.08139 -2.73031 -1.56247)
(-0.826991 -1.13684 1.27897)
(-0.0332963 -0.0187587 0.0179516)
(0.191718 0.341482 0.171253)
(-0.939292 -3.22761 2.98136)
(-3.64603 18.2675 -3.34974)
(-5.56541 5.04457 -0.568811)
(-1.92026 -8.72941 -13.5097)
(-1.77929 -4.45941 -1.50255)
(-0.493226 4.8411 -2.3359)
(-17.8623 4.64578 -2.08419)
(15.3016 -16.3684 -15.826)
(0.738475 4.3863 -2.94484)
(-0.649241 -0.734976 -1.95596)
(-15.5722 -9.47208 -0.85021)
(-8.41533 12.8991 -12.153)
(-0.955764 -0.604541 -2.2809)
(3.04514 5.02832 1.34447)
(-2.18165 -5.9583 4.91002)
(4.77312 -1.08365 -3.631)
(0.761495 2.06423 -1.65033)
(-1.40555 1.16911 3.59226)
(0.39963 1.98237 -1.70608)
(0.669891 0.292895 8.44127)
(3.6279 0.139241 0.420382)
(1.899 5.43712 -0.463534)
(0.700229 -7.1217 0.819145)
(1.95755 -0.762538 2.00142)
(0.16077 -0.571418 -0.108183)
(-2.39295 22.3284 -3.20357)
(3.77696 15.3984 -15.809)
(16.642 0.216391 -10.7726)
(-5.75919 1.05215 2.14326)
(-9.14283 -9.52054 3.64577)
(1.99832 1.04593 1.19247)
(6.00383 -2.11862 -9.81316)
(2.09775 7.13944 4.62903)
(2.40772 0.806375 -6.37995)
(12.4447 -5.07525 -4.23592)
(6.61778 3.19562 9.39147)
(3.75831 -2.8594 1.80368)
(6.07016 -3.02236 -12.1678)
(-10.4312 10.2311 -10.0617)
(6.38803 0.115224 6.58749)
(0.0418786 0.0915343 -0.0123435)
(-7.7407 6.78495 4.58522)
(21.2317 17.1654 7.90876)
(-5.79033 0.0727033 -15.4254)
(-1.33308 -0.167782 -14.1615)
(8.42543 -1.00092 1.54925)
(0.0302409 -2.93383 -1.38486)
(-6.35756 2.59597 -11.1057)
(0.780555 1.29428 -2.14253)
(-19.002 7.96601 -7.44745)
(0.598911 3.69087 -1.12163)
(-7.59708 15.8188 6.5685)
(-15.4609 -5.19318 -12.0159)
(-1.03464 5.21438 3.01017)
(0.60665 -1.97973 -2.80432)
(5.79738 -1.9722 1.06254)
(-2.70079 -3.04846 1.47551)
(9.02334 20.3796 13.5494)
(-6.19384 18.6119 -0.880011)
(0.609906 -9.6835 0.0155822)
(-4.43886 -3.20304 2.99394)
(14.9778 -10.1503 13.8033)
(0.474146 7.71562 7.48129)
(-4.27207 -0.781976 -2.50053)
(13.7124 -1.24126 -2.5347)
(2.75492 -4.76775 5.1059)
(-1.31457 0.0775967 -0.174621)
(4.34898 -1.86905 1.48456)
(-0.0267436 -0.0102528 -0.00867821)
(-1.88726 0.313989 -1.40388)
(-0.659408 -11.1192 -2.59103)
(3.27639 -3.71208 -5.5364)
(-1.42665 9.3278 3.11673)
(-2.62737 0.435632 3.7764)
(16.6489 6.37701 4.07066)
(9.92332 -2.12311 11.7485)
(-7.19478 -13.1156 18.9553)
(-1.43648 -3.46453 -8.59804)
(4.70457 -1.13731 -1.80521)
(10.6933 -3.96356 5.88184)
(-0.00320687 -0.0285832 -0.00334271)
(7.45938 2.47238 -13.5587)
(4.14739 1.0276 9.88086)
(3.77535 -1.059 4.20512)
(4.34679 -3.97735 -0.208045)
(-2.13811 -2.9716 -9.65813)
(-6.59838 -4.35594 -5.23847)
(-12.0764 2.74962 10.7475)
(-8.53053 -6.20828 -3.79798)
(-7.81048 -12.2482 1.766)
(1.656 11.69 -6.68781)
(0.596415 -14.2462 -6.7622)
(-0.990511 -2.71479 4.31392)
(1.775 -4.51094 0.625016)
(3.89278 -5.84037 34.062)
(17.8208 2.91035 0.771344)
(-19.1555 -9.959 1.75919)
(2.54476 4.29 -6.42849)
(-0.504191 -1.36922 -3.40023)
(-11.715 4.28359 6.38252)
(-6.58374 0.389142 0.337114)
(0.396682 12.035 13.5066)
(-0.896377 10.3103 9.94774)
(-4.22711 2.24727 0.0352566)
(0.694045 -0.789071 3.03032)
(2.11718 13.1543 -1.55871)
(-6.08884 1.59802 18.061)
(17.0909 -3.94173 -10.9061)
(2.67082 0.484144 1.02383)
(6.76665 13.7773 -3.79918)
(-0.53238 0.361054 -1.09486)
(-8.52486 15.8411 -4.19916)
(-5.60341 0.0387315 -11.0686)
(18.6811 -4.5856 -21.6712)
(-1.84578 -2.53591 35.5983)
(-0.552877 -0.987668 1.61063)
(-0.0436082 0.100023 -0.0108536)
(-3.6138 0.960316 0.804085)
(5.22417 3.79212 -9.94383)
(-0.35963 -0.274199 -1.1217)
(23.6013 7.98436 -9.91785)
(-13.3294 9.85603 -4.69445)
(-4.61757 0.418056 -0.666226)
(1.36259 -0.137711 -2.97049)
(12.5305 -0.398949 7.03086)
(-6.28315 27.7507 2.14052)
(1.43426 -1.39159 -0.638093)
(1.59537 3.03619 2.30053)
(-2.10559 3.8493 20.1434)
(13.862 -0.294603 -3.58888)
(2.14394 5.05305 3.5101)
(0.00944258 0.00687397 0.00905738)
(8.31412 21.042 -16.2928)
(-8.34746 -1.9944 -7.0025)
(-4.01751 15.4404 -5.42988)
(-0.46344 0.2977 1.37129)
(-10.4067 -3.42209 -5.38607)
(10.5407 5.94545 21.5967)
(1.996 1.0028 3.54859)
(11.5093 -4.3453 -8.26143)
(-15.6884 -24.0372 16.712)
(-1.94296 2.49873 4.12012)
(0.314686 0.0404453 -0.128716)
(1.0232 7.82921 -12.1257)
(15.3137 -1.4428 -2.22786)
(-4.06506 -2.39466 -0.781458)
(0.222314 -2.98242 -0.693957)
(-27.3518 -8.84278 -4.75335)
(-2.61437 2.441 5.93629)
(-4.26925 0.252006 -0.567105)
(-0.624278 0.131816 4.73562)
(-0.0782332 6.67414 -11.2755)
(-0.504942 -2.76636 -2.20993)
(2.10291 -3.2094 -3.86554)
(-5.5257 6.77065 10.1011)
(-0.786784 -1.88569 -0.0131172)
(3.33361 -3.21517 -6.46579)
(-1.0399 -3.7208 -16.1028)
(0.573376 -0.672072 -0.209604)
(-2.58208 2.41487 7.53753)
(2.11905 1.24184 0.585673)
(-0.383722 8.60194 -10.0007)
(6.01231 7.6016 -7.45914)
(-0.162235 1.02813 1.48689)
(6.89404 17.4011 14.173)
(12.3734 -9.41398 5.93825)
(-16.2909 -6.79066 -6.68578)
(-1.25241 -1.01765 7.55375)
(-6.22201 -2.44131 -3.63215)
(1.13798 0.980097 2.70799)
(-0.229498 -1.52915 -0.22791)
(-9.15475 5.4547 -1.63979)
(3.27633 0.300946 0.146114)
(0.823899 -0.00388208 0.278244)
(-1.71409 -0.3159 -0.207844)
(-15.4843 13.9618 -2.24671)
(3.00384 5.64976 7.2705)
(6.16284 19.9569 2.69379)
(-13.8507 -3.97251 9.12097)
(3.10886 -3.35852 6.44616)
(-1.0192 5.01237 -0.611218)
(-1.04397 11.6378 -3.49198)
(6.55287 8.11926 -7.59177)
(-1.83485 -1.49054 -1.75808)
(-0.0110082 -0.109197 -0.02732)
(-6.78432 0.0671226 -5.77379)
(-0.678609 1.42435 0.162105)
(4.91763 0.819266 11.7239)
(0.416643 -1.56262 -0.880545)
(2.39972 -2.73187 17.0336)
(4.69182 15.9259 -12.635)
(0.017714 -0.0503609 0.0134651)
(9.21176 1.24284 10.7871)
(-4.80572 1.16896 -4.15852)
(-1.12064 -1.9171 13.6294)
(8.92019 1.87631 1.47388)
(2.80903 3.04759 2.94554)
(6.33983 -0.950847 -1.14804)
(-0.207194 -8.12661 7.11587)
(0.169784 17.4106 4.11837)
(-2.27568 7.08965 2.11785)
(10.5306 13.8142 2.31806)
(5.75849 4.60854 3.13127)
(1.44554 9.52559 3.14705)
(21.9713 -7.11242 18.9168)
(-0.0732364 -1.5934 -1.50529)
(-6.0344 3.05359 2.86109)
(-17.8669 -8.17326 11.4407)
(2.89276 8.30412 -1.6195)
(-6.91683 4.88359 18.1923)
(1.95696 12.06 -3.66496)
(-0.00807133 -0.0719407 -0.00841321)
(-0.342941 4.78915 -1.02877)
(-26.8253 1.5371 4.72482)
(-7.80958 12.8069 -7.56503)
(-0.0129374 -0.476754 -0.193894)
(-2.27832 4.83643 -7.15132)
(-10.8451 18.0362 1.47373)
(0.100412 -0.253862 -1.67721)
(0.774002 0.838856 0.338759)
(11.1199 -3.11916 12.3857)
(2.16642 1.52623 -0.735703)
(0.14549 -0.325143 -0.0538777)
(1.24942 1.20277 1.91774)
(-20.8507 6.32367 -2.12274)
(10.6996 -19.8814 -14.0629)
(-5.68218 24.3298 -1.43088)
(14.319 -6.63766 4.1993)
(4.19878 3.79075 3.81053)
(15.8957 -0.529868 2.99177)
(0.346756 0.00396251 -0.978018)
(-14.7461 5.72129 -6.98565)
(-1.85658 1.55459 6.78145)
(0.664895 -6.45004 10.8153)
(5.52885 6.71274 -6.68809)
(-1.75309 6.28294 -7.9634)
(-13.9405 7.83261 -10.0904)
(-1.35721 -7.50165 -4.64567)
(0.0995548 -0.778997 -0.546399)
(0.28418 -6.5741 0.528985)
(23.206 23.1346 8.47847)
(-17.7098 -7.75155 -18.5664)
(5.3647 11.4616 6.80035)
(-3.47088 10.9485 0.09161)
(-0.48361 -0.177041 0.439236)
(-0.415574 -2.8784 0.396457)
(-20.3548 -1.31719 -7.12142)
(-4.42501 -1.42481 10.2248)
(-3.40174 -4.44953 -10.1942)
(5.28902 19.5472 -6.05125)
(3.18039 -4.78147 -4.96769)
(9.17493 -9.07724 -10.6214)
(15.8353 2.86707 8.2064)
(0.406051 -0.71991 1.16546)
(14.0787 11.6046 12.6197)
(-2.62661 -0.0936718 1.05259)
(-3.78584 5.03549 -4.02875)
(1.44613 8.64147 0.689748)
(-6.61465 -2.70449 -0.341811)
(-1.15295 -0.149722 -5.89846)
(-10.2481 6.62041 2.03377)
(-3.56382 -8.88818 -0.619691)
(-4.21858 -0.361881 3.63023)
(-5.17758 -6.70571 7.00293)
(18.3187 8.07136 -7.25104)
(5.3614 -0.315466 -0.97632)
(-26.7863 -8.05328 -4.60864)
(3.91579 -1.99157 -6.16568)
(1.02732 2.97473 -3.2252)
(5.19463 -5.26519 11.3784)
(17.3469 8.64672 -0.990442)
(-4.06503 -3.45834 -1.48969)
(-0.370629 -2.64362 -1.59766)
(14.4562 0.519386 -5.31207)
(11.1887 -7.76886 -7.33886)
(-0.714082 -0.43242 -1.84558)
(-7.10221 0.130373 -3.51849)
(6.93111 14.1318 -33.1141)
(3.49363 0.93944 -1.62087)
(-0.954871 -8.65891 -4.76074)
(-3.38132 0.211905 -5.15283)
(-0.426943 -0.351132 2.47001)
(-10.4087 1.28389 -4.64208)
(1.78195 8.16585 1.59346)
(12.1458 3.00935 28.9365)
(3.60336 2.44264 1.59544)
(0.421478 1.41662 -1.74685)
(-0.546428 -3.32401 4.54143)
(1.43421 4.10702 -3.25739)
(-4.02148 7.38027 2.86789)
(-7.50939 0.825947 -4.85295)
(2.07835 2.13952 1.36192)
(0.294917 -0.360316 -0.533197)
(-25.0967 15.5373 12.9213)
(-0.176312 -5.00641 -2.79997)
(-27.3259 -8.1923 -25.4059)
(-1.09629 5.11359 5.93756)
(-1.8487 -2.22849 -0.637769)
(-0.728711 0.667017 -0.740466)
(-12.6265 -10.0194 5.53733)
(-0.187372 -0.933297 -0.966829)
(0.0197816 1.42016 3.2524)
(-0.725294 4.74215 1.58451)
(-19.3247 -4.58344 11.563)
(-7.54572 18.2508 -1.92726)
(-14.7537 1.83948 -4.77472)
(22.9587 -2.20611 -0.7668)
(-31.1595 21.4732 10.0721)
(-7.94197 -0.290908 4.86768)
(0.00719378 -0.0476669 0.0333624)
(-9.83833 13.3657 4.63639)
(-0.528252 1.12777 -0.719505)
(25.6586 -23.0641 1.32945)
(12.4317 -4.2291 2.27846)
(-1.57791 -0.807842 -1.25233)
(-6.93798 3.7249 -8.14413)
(0.00699401 12.332 -15.4264)
(13.7906 9.914 18.3269)
(-4.91489 7.1622 5.80075)
(-1.22995 4.91984 1.66453)
(1.53849 -3.56865 3.16877)
(2.1865 -4.73121 -3.12828)
(-4.52812 -3.12586 -2.44409)
(22.4084 -2.40685 -10.7959)
(-10.1562 6.82092 9.81456)
(-2.00863 2.01077 9.20056)
(-9.20575 0.410231 7.61091)
(-7.07051 23.1265 12.8213)
(-11.725 -8.53309 -5.22021)
(-8.47457 4.81077 11.8209)
(-5.54087 -1.78395 0.409088)
(-0.854327 -1.23336 1.58635)
(12.8728 26.5672 22.601)
(17.6402 10.5055 -5.68443)
(3.66574 0.240247 -1.85723)
(1.84716 -0.406523 0.0737873)
(9.6475 3.4728 5.73009)
(-0.321105 -0.393365 -1.52191)
(-8.44385 -15.6151 -15.8773)
(-1.43638 -0.403212 -0.864638)
(5.74819 2.93522 -8.08893)
(-6.96345 -3.7167 4.60352)
(-2.1645 -1.04248 -10.3391)
(-6.62933 -3.61509 -11.0418)
(4.28872 2.68368 6.91642)
(-12.3332 -3.20043 -7.67517)
(0.807136 2.77427 0.362644)
(-1.521 -1.33488 -0.0131256)
(0.00185684 0.530745 0.0109575)
(-11.4723 3.91423 0.132296)
(-0.417176 0.745673 0.898194)
(-15.8615 5.8147 -2.49437)
(16.7599 1.94565 13.6451)
(0.154613 3.61121 5.01902)
(-3.9824 -4.33484 5.25526)
(0.651237 3.61206 -2.43171)
(1.1982 -0.420382 -0.987037)
(-5.15311 11.4349 -7.30674)
(-5.6155 1.34821 -2.32303)
(-0.0676781 -15.2512 -9.8663)
(-4.36198 10.3502 -26.4568)
(-1.25268 0.44839 -0.87602)
(-12.5893 -3.56326 2.61063)
(-0.270754 7.69074 0.0684111)
(1.81792 -3.41449 4.04685)
(-1.17102 1.9756 26.8939)
(0.0984754 -3.80499 -4.56166)
(6.61173 13.8251 6.45335)
(-13.8166 9.74339 -28.0002)
(-2.62447 14.252 -5.90122)
(2.6856 -23.7836 0.428085)
(-4.00672 13.0576 7.16603)
(-0.108969 -0.302071 0.250204)
(14.4318 -7.49401 -2.81123)
(-1.27943 -1.68877 -2.3343)
(14.8291 22.1478 15.9192)
(-5.74565 -4.17098 4.12458)
(1.5677 5.65623 -2.31972)
(1.31453 -1.42947 2.23436)
(-2.98349 -3.4886 -1.46683)
(10.8679 6.27433 -9.56805)
(-0.598042 -0.658003 -2.24297)
(1.16527 -0.63722 -0.384759)
(5.18656 0.685671 2.64067)
(-4.8895 2.9566 -0.761717)
(-3.63761 13.0484 -16.9832)
(-5.2345 -1.35525 15.6889)
(-10.04 -27.6979 10.8061)
(-3.1432 2.51629 -1.97427)
(2.27158 4.78488 3.66799)
(-6.43954 10.081 17.8972)
(-2.03304 -1.86629 0.869432)
(-1.79566 -6.87439 5.51319)
(-2.33179 -4.59873 -4.01448)
(-5.08437 23.6497 -8.6289)
(-4.41818 7.17882 12.0512)
(0.576107 2.18397 -3.1545)
(11.5661 11.5289 -7.56552)
(2.69708 -6.87805 -2.37723)
(-7.37577 16.1531 -6.63011)
(-12.5286 7.72196 -7.19227)
(0.177973 -0.271679 0.344891)
(1.13092 7.62905 -1.06872)
(1.45628 -1.01619 -4.36631)
(6.90627 -6.35257 -1.19279)
(7.20015 3.20501 -0.326005)
(1.31101 1.42626 -0.132667)
(18.0696 30.9053 -7.58588)
(-11.8709 26.2724 -8.88091)
(18.0501 30.8718 -7.57767)
(-37.4204 25.8114 2.17186)
(-2.87047 26.7841 -3.84285)
(10.4207 -5.38446 -1.5157)
(-23.1791 20.3172 13.7302)
(11.4725 24.0757 -0.576482)
(6.12181 11.5802 -4.47848)
(16.7968 24.0154 19.9231)
(16.8017 26.4113 -3.76356)
(-14.4026 6.70988 -8.51112)
(16.8868 22.7716 -17.068)
(-0.00677185 1.56824 0.609605)
(-23.6278 36.6454 20.0445)