/*--------------------------------*- C++ -*----------------------------------*\
  =========                 |
  \\      /  F ield         | OpenFOAM: The Open Source CFD Toolbox
   \\    /   O peration     | Website:  https://openfoam.org
    \\  /    A nd           | Version:  7
     \\/     M anipulation  |
\*---------------------------------------------------------------------------*/
FoamFile
{
    version     2.0;
    format      ascii;
    class       volScalarField;
    location    "0.1275";
    object      alphat;
}
// * * * * * * * * * * * * * * * * * * * * * * * * * * * * * * * * * * * * * //

dimensions      [1 -1 -1 0 0 0 0];

internalField   nonuniform List<scalar> 
48560
(
0.00510934
0.00505724
0.00500394
0.00495163
0.00490091
0.00485226
0.00480616
0.004763
0.00472316
0.00468695
0.00465467
0.00462659
0.00460297
0.00458405
0.00457005
0.00456121
0.00455774
0.00455987
0.00456784
0.00458189
0.0046023
0.00462933
0.00466329
0.00470453
0.00475342
0.00481037
0.00487575
0.00494966
0.00505952
0.00518419
0.00532268
0.00547358
0.00563417
0.00580099
0.00596931
0.00614114
0.00631569
0.00649728
0.00668966
0.00690638
0.00715039
0.00742027
0.00771504
0.00801521
0.00828195
0.00837763
0.00797311
0.0069402
0.00546869
0.00391593
0.00126478
0.000499803
0.000550339
0.000574581
0.000615285
0.000635962
0.0006815
0.000708558
0.000775468
0.000834871
0.000960503
0.00103639
0.00108339
0.000986559
0.00108372
0.000849223
0.000856304
0.000890368
0.000947918
0.00101945
0.00110953
0.00120322
0.00130716
0.00140071
0.00148573
0.00153804
0.00154224
0.00146079
0.00128432
0.0010751
0.000947195
0.000984855
0.00104474
0.00104343
0.00101931
0.000973674
0.000931097
0.000894687
0.000871946
0.000857053
0.00085423
0.000853005
0.000852292
0.000848707
0.000843067
0.000831384
0.000813981
0.000787494
0.000751128
0.000702829
0.00484586
0.0048309
0.00481648
0.00480365
0.00479293
0.00478472
0.00477946
0.00477745
0.00477904
0.00478447
0.00479404
0.00480796
0.00482647
0.00484976
0.00487808
0.00491162
0.00495059
0.00499517
0.00504551
0.00510165
0.00516376
0.00523189
0.00530617
0.00538658
0.00547312
0.00556563
0.00566385
0.00576679
0.00591609
0.00607269
0.00623815
0.00641068
0.00659291
0.00678584
0.00699806
0.00723607
0.00750602
0.00781056
0.00815236
0.00852677
0.00893077
0.00933448
0.0096563
0.00973683
0.00945505
0.00871786
0.00757382
0.00623733
0.00511144
0.00460692
0.00507327
0.00904728
0.00945956
0.00991219
0.0103093
0.01061
0.0102356
0.0103999
0.00971422
0.00989573
0.0089749
0.00868235
0.00777499
0.00820604
0.00716814
0.00711939
0.00693648
0.00696788
0.00676145
0.00672302
0.00669262
0.00676881
0.00685389
0.00699398
0.00712506
0.00718041
0.00700452
0.00648414
0.00673289
0.00642509
0.00704642
0.00995714
0.00904562
0.00847817
0.0081916
0.00817035
0.00856039
0.00958178
0.0107124
0.012142
0.0136121
0.0151027
0.0167037
0.0185533
0.0205782
0.0229583
0.0258311
0.0300275
0.0369559
0.0528135
0.00520555
0.00522045
0.00523797
0.00525818
0.00528149
0.00530819
0.00533855
0.0053727
0.00541082
0.00545295
0.00549919
0.00554955
0.00560417
0.00566305
0.00572628
0.00579381
0.00586565
0.00594166
0.00602174
0.00610637
0.00619537
0.006289
0.00638733
0.00649068
0.00659921
0.00671335
0.00683355
0.00695964
0.00715458
0.00737078
0.00760869
0.00787346
0.00816569
0.00848999
0.00884809
0.00924131
0.00967008
0.0101217
0.0105699
0.0109345
0.0111542
0.0110999
0.0107369
0.0100237
0.00903421
0.00787469
0.00689141
0.00625213
0.00621194
0.00693544
0.00896761
0.014204
0.0146892
0.0152066
0.0148706
0.0159231
0.0148242
0.0161095
0.0141407
0.0149853
0.0131527
0.0126932
0.0114298
0.0115838
0.0104462
0.010715
0.0108317
0.0114201
0.0112229
0.0118133
0.0117094
0.0116265
0.0116034
0.0116001
0.0116406
0.0116795
0.0117036
0.0115213
0.0113873
0.0102251
0.0145452
0.0230199
0.0211959
0.020149
0.0198092
0.0165165
0.0190669
0.0195392
0.0258855
0.0318223
0.0386258
0.0429633
0.0475671
0.0529654
0.0592815
0.0672685
0.0697769
0.0636186
0.0592189
0.0580421
0.00629857
0.00632826
0.00636171
0.0063998
0.00644177
0.00648886
0.0065403
0.00659694
0.00665793
0.00672396
0.00679457
0.00687048
0.00695142
0.00703805
0.00713029
0.00722878
0.00733367
0.00744568
0.00756529
0.00769285
0.00782876
0.00797353
0.0081274
0.00829103
0.00846508
0.00865038
0.00884754
0.00905753
0.00937541
0.00972066
0.0100926
0.0104921
0.0109128
0.0113469
0.0117701
0.0121503
0.0124374
0.0125723
0.0125143
0.012213
0.0116745
0.0108999
0.0100028
0.00909915
0.00828872
0.00771662
0.00754573
0.00789063
0.00883871
0.0105877
0.0138508
0.0181512
0.0194493
0.0206601
0.0196316
0.0210331
0.0191192
0.0200132
0.0179698
0.0183776
0.0164769
0.0156706
0.0145916
0.0145783
0.0144101
0.0144292
0.0154212
0.0164503
0.0168048
0.0170125
0.0173072
0.0176551
0.0180519
0.0184746
0.0185946
0.0167343
0.0139864
0.0134947
0.0149953
0.0173609
0.0297882
0.0434108
0.0412316
0.0402566
0.0324961
0.030083
0.0328657
0.0306776
0.033176
0.033682
0.0377839
0.0409484
0.0464348
0.0509813
0.0565193
0.0610301
0.0641498
0.0647124
0.0641721
0.0638483
0.00814577
0.00818885
0.00824003
0.00829972
0.00836718
0.00844368
0.00852847
0.00862257
0.0087252
0.00883723
0.00895813
0.00908878
0.00922881
0.00937903
0.00953917
0.00970992
0.009891
0.0100829
0.0102854
0.0104988
0.0107227
0.0109572
0.0112029
0.0114599
0.0117275
0.0120049
0.0122894
0.012579
0.0129565
0.0133246
0.013649
0.013917
0.0140883
0.0141475
0.0140706
0.0138425
0.0134497
0.0128965
0.0121949
0.0114626
0.0107007
0.00999371
0.00939354
0.00898907
0.0088695
0.00913347
0.00984334
0.0110332
0.0128053
0.0145265
0.0185544
0.0205019
0.0221461
0.0229203
0.0228977
0.0237654
0.0227115
0.0232876
0.0218372
0.0220476
0.0205884
0.0197336
0.0188536
0.0189804
0.0198202
0.0194333
0.0216724
0.0224366
0.0245049
0.025303
0.0265941
0.0270816
0.0270483
0.0258979
0.0234248
0.0202021
0.0174896
0.0170815
0.0170714
0.0221088
0.0336045
0.0407553
0.0428447
0.0286381
0.0266608
0.0273296
0.0286563
0.0288287
0.0324392
0.0341971
0.0393584
0.0430437
0.0495121
0.0550696
0.0622131
0.0667029
0.0685924
0.0697147
0.0709072
0.0717008
0.011363
0.0114119
0.0114789
0.0115606
0.0116584
0.0117705
0.011898
0.0120397
0.0121958
0.0123655
0.0125486
0.0127447
0.0129536
0.0131748
0.0134077
0.0136512
0.0139035
0.0141618
0.0144219
0.0146806
0.014932
0.015171
0.0153896
0.0155811
0.0157389
0.0158597
0.0159406
0.0159952
0.0159353
0.0158173
0.0155729
0.0152479
0.0148005
0.0142702
0.0136797
0.0130637
0.0124304
0.0118162
0.0112477
0.0107659
0.0104017
0.0102154
0.0102584
0.0105948
0.0112725
0.0123166
0.0137279
0.0155527
0.0156262
0.0173175
0.0204857
0.0222784
0.0242927
0.0255334
0.0261315
0.0263966
0.0263609
0.0262242
0.02561
0.0252509
0.0244495
0.0236182
0.0234069
0.0240629
0.0258449
0.0253862
0.0284871
0.0290089
0.0322177
0.0324188
0.0346493
0.0336117
0.0333111
0.0301688
0.0266212
0.022432
0.0201857
0.0202035
0.0210771
0.0262431
0.0335043
0.0377305
0.0377156
0.0299633
0.0307796
0.0303185
0.0316324
0.03213
0.0350262
0.037143
0.0416608
0.0451479
0.0508313
0.0561783
0.0631549
0.0693888
0.0730202
0.0753358
0.0770306
0.0780991
0.0164158
0.0164098
0.0164372
0.0164844
0.0165595
0.0166513
0.0167644
0.0168881
0.0170234
0.0171613
0.0173016
0.0174363
0.0175635
0.017676
0.0177712
0.0178433
0.0178906
0.0179092
0.0178934
0.0178418
0.0177509
0.0176205
0.0174492
0.0172386
0.0169895
0.0167055
0.0163898
0.0160605
0.015568
0.0150892
0.0145631
0.0140626
0.0135458
0.0130758
0.0126254
0.0122447
0.0119261
0.0117175
0.0116262
0.0117014
0.0119655
0.0124659
0.0132231
0.0142582
0.0155673
0.0171393
0.0189973
0.0189295
0.0184367
0.0203955
0.0224521
0.0239231
0.0260083
0.0273756
0.0279915
0.0282543
0.028362
0.0282468
0.0278261
0.0275133
0.0271079
0.0268352
0.0272492
0.0286766
0.0308335
0.0307703
0.0338548
0.0345522
0.0376535
0.0380387
0.040129
0.0387583
0.0379091
0.0338295
0.0297643
0.0255255
0.0236306
0.0231697
0.0244189
0.0290098
0.0327359
0.0350721
0.0335573
0.0306312
0.0321504
0.0322162
0.0338246
0.0349211
0.0378831
0.0404928
0.0450397
0.0495479
0.0560859
0.0627206
0.0693353
0.0747066
0.0781278
0.0809556
0.0828151
0.0840066
0.0219643
0.021762
0.0215763
0.0213995
0.0212383
0.0210785
0.0209242
0.0207622
0.0205953
0.0204127
0.0202172
0.0200012
0.0197678
0.0195113
0.0192349
0.0189353
0.0186163
0.0182785
0.0179328
0.0175748
0.0172122
0.0168434
0.0164746
0.0161061
0.0157428
0.0153862
0.0150404
0.0147153
0.0143519
0.0140549
0.013774
0.0135602
0.0133907
0.0133063
0.0132947
0.0133935
0.0136028
0.013957
0.0144657
0.0151579
0.0160374
0.0171159
0.0183829
0.0198318
0.0214508
0.0232689
0.0230967
0.0210814
0.0211817
0.0227999
0.0239302
0.0251868
0.0274889
0.0289667
0.0294506
0.0297575
0.0298468
0.0296924
0.0293346
0.0289295
0.0288515
0.029008
0.0301171
0.032126
0.0345879
0.0352148
0.0379908
0.0388992
0.0417747
0.0426551
0.0442915
0.0429773
0.0411164
0.0364431
0.0318883
0.0280287
0.0265498
0.0262178
0.0276737
0.0309502
0.0329553
0.0352374
0.0340836
0.0336402
0.0347207
0.0353357
0.0366745
0.0382458
0.0409586
0.0440936
0.0486076
0.0537846
0.0603503
0.0674875
0.0747173
0.0803069
0.0839379
0.0869143
0.0889197
0.0902094
0.0235074
0.0230862
0.022657
0.0222419
0.0218329
0.0214335
0.0210394
0.0206513
0.0202682
0.0198901
0.019518
0.0191513
0.0187923
0.0184401
0.0180978
0.0177647
0.0174439
0.0171352
0.0168417
0.0165643
0.0163075
0.0160727
0.0158655
0.0156883
0.0155477
0.0154478
0.0153972
0.0154066
0.0154302
0.0155363
0.0156963
0.0159357
0.0162427
0.0166366
0.0171203
0.0177173
0.0184206
0.0192521
0.020201
0.021282
0.0224743
0.0237847
0.0251926
0.0267165
0.0283688
0.027928
0.024856
0.0235565
0.023654
0.0247997
0.0251946
0.0263198
0.0286485
0.0300434
0.0303635
0.0306611
0.0306034
0.0304849
0.0300302
0.0296609
0.0297553
0.0303055
0.0318339
0.0342305
0.0369785
0.0383386
0.0405619
0.0416109
0.0442236
0.0453913
0.0465793
0.0454419
0.0429671
0.0384841
0.0341575
0.030938
0.0294896
0.0291054
0.0303195
0.0321993
0.0332388
0.0353657
0.0350004
0.03581
0.0368512
0.0378795
0.0392819
0.0413298
0.0442421
0.0479711
0.0528797
0.0587244
0.0658694
0.0732562
0.0804824
0.0860837
0.0900455
0.0930329
0.0952299
0.0965955
0.0214523
0.0211009
0.0207433
0.020409
0.0200814
0.0197726
0.0194722
0.0191893
0.0189184
0.0186664
0.0184314
0.0182176
0.0180241
0.0178537
0.0177075
0.017588
0.017498
0.0174409
0.0174213
0.0174441
0.0175163
0.0176444
0.0178379
0.018106
0.0184616
0.0189174
0.0194914
0.0202013
0.0206409
0.0211491
0.0217001
0.0223113
0.0229563
0.0236507
0.0244037
0.0252353
0.0261228
0.0270863
0.0281038
0.029193
0.0303328
0.0315434
0.0328164
0.0341883
0.0328506
0.0292724
0.0269312
0.0257487
0.0257147
0.0263744
0.0262429
0.0272324
0.0294311
0.0306962
0.0308616
0.0311002
0.0308868
0.0307611
0.0301768
0.0298166
0.0300084
0.0308069
0.0325648
0.0351695
0.0381928
0.0401383
0.0418666
0.0430255
0.0454252
0.0468001
0.0478787
0.0470123
0.0444238
0.0403481
0.0364411
0.0337638
0.0323304
0.0318353
0.0323821
0.0332618
0.0339652
0.0363994
0.0367992
0.0382462
0.0393427
0.0405857
0.0421548
0.0445096
0.0477932
0.051934
0.0574649
0.063843
0.0717085
0.0793208
0.0868535
0.0921459
0.0963932
0.0992329
0.101679
0.103093
0.0199064
0.0197749
0.0196421
0.0195324
0.0194283
0.019345
0.0192708
0.0192198
0.0191851
0.0191794
0.0191993
0.0192555
0.0193449
0.0194756
0.0196472
0.0198677
0.0201399
0.0204726
0.0208716
0.0213471
0.0219077
0.0225652
0.0233309
0.0242181
0.0252402
0.0264115
0.0277472
0.0292539
0.0298529
0.0304734
0.0311008
0.0317459
0.0323837
0.0330247
0.0336953
0.0344076
0.0351419
0.0359113
0.0367019
0.037529
0.0383871
0.0392993
0.040272
0.0368729
0.0337257
0.0307531
0.028775
0.027519
0.027342
0.0275577
0.0271002
0.0279321
0.0298714
0.0309599
0.0309559
0.0310874
0.0307424
0.030578
0.0298746
0.0295262
0.0297544
0.0306751
0.0324702
0.0351415
0.0383349
0.0406883
0.0421469
0.043453
0.0456328
0.0472764
0.0485014
0.0481283
0.0459332
0.0425693
0.0392034
0.0367892
0.0350443
0.0341725
0.0340055
0.0341647
0.0347619
0.0374439
0.0385249
0.0404534
0.0418034
0.0432606
0.0451164
0.0478118
0.0516318
0.0562424
0.0625865
0.0694453
0.0781148
0.0856685
0.0935209
0.098447
0.102958
0.1056
0.108287
0.109741
0.0206823
0.020784
0.0208934
0.021027
0.0211696
0.0213367
0.0215182
0.0217301
0.021967
0.0222447
0.0225612
0.0229316
0.0233538
0.0238379
0.0243817
0.0249958
0.0256813
0.0264485
0.0273003
0.0282471
0.0292928
0.0304452
0.0317102
0.0330916
0.0345912
0.0362061
0.0379308
0.0397444
0.040164
0.0405706
0.0409657
0.0413586
0.0417341
0.0420949
0.0424745
0.042875
0.0432828
0.0437038
0.0441351
0.0434455
0.0424479
0.0409387
0.0392488
0.0368883
0.034522
0.0319676
0.0301138
0.0288863
0.0284818
0.0283579
0.0276909
0.0284324
0.0299886
0.0308787
0.0306953
0.0307025
0.030266
0.030046
0.0292646
0.0289227
0.0291614
0.0301036
0.0318175
0.0344299
0.0376756
0.0403244
0.0418816
0.0433568
0.0453705
0.0474441
0.0490418
0.0494329
0.0479233
0.0453255
0.0423471
0.0398971
0.0376297
0.0362326
0.0353721
0.0350717
0.0357028
0.0386886
0.0403552
0.0427349
0.0444147
0.0460871
0.0482458
0.0513436
0.0557587
0.0609449
0.0681473
0.075511
0.0849221
0.0923909
0.100389
0.104978
0.109644
0.112162
0.115006
0.116515
0.023871
0.0242048
0.0245582
0.0249384
0.0253321
0.0257529
0.0261918
0.0266632
0.0271631
0.0277074
0.0282958
0.0289444
0.0296544
0.0304358
0.0312825
0.0321997
0.0331816
0.034232
0.0353453
0.0365234
0.0377611
0.0390584
0.0404013
0.0417808
0.0431775
0.0445724
0.0459417
0.0472662
0.0473758
0.0471217
0.0461409
0.0443648
0.0434727
0.0423924
0.0416361
0.0408702
0.040228
0.0394746
0.0388755
0.0382206
0.0377277
0.0371153
0.036524
0.0355489
0.0342091
0.032582
0.0311478
0.0298537
0.0292331
0.0288349
0.0280504
0.028819
0.0298658
0.0305099
0.0301184
0.0299922
0.0295005
0.0292279
0.0284113
0.0280814
0.0283278
0.0292364
0.030797
0.0332499
0.0364358
0.0393587
0.0413178
0.0429587
0.0448725
0.0475117
0.049652
0.051112
0.0505476
0.0487643
0.0459094
0.0430279
0.0401106
0.0380844
0.0365703
0.0359377
0.0365946
0.0398317
0.0420611
0.0449362
0.0470839
0.0490502
0.0515429
0.0551648
0.0602399
0.066165
0.074229
0.0821441
0.0920934
0.0995066
0.107436
0.11173
0.116376
0.118838
0.121751
0.123327
0.0286391
0.0291861
0.0297621
0.0303644
0.0309799
0.0316177
0.0322672
0.0329374
0.0336215
0.0343306
0.0350629
0.0358317
0.0366382
0.037494
0.03839
0.0393207
0.0402697
0.0412278
0.0421786
0.0431106
0.0440057
0.0448456
0.0456054
0.0462637
0.0467946
0.0471769
0.04603
0.0442
0.0438356
0.0411324
0.0406504
0.0390286
0.0384374
0.0373585
0.0367189
0.036028
0.0354527
0.0349231
0.0343459
0.0338511
0.0333566
0.0329383
0.0325809
0.0323022
0.0321211
0.0318047
0.0311657
0.0303061
0.0297251
0.029133
0.028376
0.0290922
0.0295542
0.0298656
0.0292439
0.0289934
0.028486
0.028201
0.0274178
0.0271257
0.0273766
0.0282177
0.0295756
0.0317916
0.0348199
0.0379726
0.0405092
0.0423689
0.0442643
0.0475953
0.0504613
0.0532982
0.0538778
0.052807
0.0496827
0.0460173
0.0423969
0.0396903
0.0376654
0.0367379
0.0374123
0.0408376
0.0435782
0.0470393
0.0498158
0.0521625
0.0550355
0.059311
0.0651268
0.0719511
0.0808753
0.089415
0.0996947
0.10702
0.114663
0.11866
0.123099
0.125537
0.128436
0.13008
0.033505
0.0341769
0.0348778
0.0355981
0.0363239
0.0370598
0.0377923
0.0385226
0.0392381
0.0399398
0.0406188
0.0412794
0.0419192
0.0425466
0.0431619
0.0437582
0.0443124
0.0448039
0.0452071
0.0455013
0.0450484
0.0440947
0.0432661
0.0423674
0.0413862
0.0402413
0.039273
0.0381802
0.0380427
0.0358507
0.0358007
0.0343869
0.0341886
0.0332985
0.0329705
0.0325031
0.0320654
0.0317898
0.0313306
0.0309562
0.030554
0.0302434
0.0299475
0.0297881
0.0297266
0.0297551
0.0298588
0.0300505
0.0298862
0.0296172
0.0288644
0.0294109
0.0292745
0.0290912
0.0281346
0.0277141
0.0271988
0.0269285
0.0262071
0.0259617
0.0262378
0.0270311
0.028202
0.0301752
0.0329854
0.0362543
0.0392773
0.0414879
0.0436905
0.0475834
0.0514782
0.0558739
0.0578398
0.0572719
0.0534515
0.0487837
0.0443781
0.041032
0.0386339
0.0374332
0.0380819
0.041595
0.04482
0.0490015
0.0524957
0.0554801
0.0588743
0.0638805
0.0705876
0.0784321
0.0882379
0.0973456
0.107738
0.114879
0.122067
0.125722
0.129757
0.132136
0.134948
0.136651
0.0368339
0.0374724
0.038127
0.0387876
0.0394404
0.0400879
0.0407158
0.0413214
0.0418882
0.0424093
0.042868
0.043257
0.0435649
0.0437915
0.0439363
0.0440073
0.0433596
0.0419393
0.0402484
0.038621
0.0371359
0.0359133
0.0349341
0.0341639
0.0334901
0.0328332
0.0323329
0.0319298
0.0320042
0.0304085
0.0307629
0.0295349
0.0297411
0.0290724
0.0290803
0.0288144
0.0285786
0.0284512
0.0281829
0.0280754
0.0279679
0.0279741
0.027988
0.0280468
0.028097
0.0282101
0.0285108
0.0289487
0.0294193
0.0298426
0.0294224
0.0296611
0.0288495
0.0279766
0.0266586
0.0260974
0.0256344
0.0254788
0.0249537
0.0248241
0.0251387
0.0258788
0.0268376
0.0285201
0.0309699
0.0341472
0.0373835
0.0402092
0.0432877
0.0472601
0.0526662
0.0585403
0.0621427
0.0617389
0.0568434
0.0511785
0.0461128
0.0422643
0.0395554
0.0381215
0.0386769
0.0422119
0.0459639
0.0509237
0.0552496
0.0593512
0.0634878
0.0692271
0.0770671
0.0859671
0.0966831
0.106076
0.116202
0.122868
0.129453
0.132755
0.136226
0.138425
0.141068
0.142811
0.0375258
0.0379741
0.0384179
0.0388525
0.0392659
0.039661
0.0400278
0.0403623
0.0406486
0.0408806
0.0410407
0.041116
0.041087
0.0409419
0.0406702
0.0377859
0.035985
0.0349064
0.0335771
0.0318956
0.0301815
0.0286616
0.0274104
0.0264913
0.0258644
0.0254603
0.0253126
0.0254189
0.0258363
0.0252155
0.0261043
0.0250471
0.0256187
0.0250766
0.0253654
0.0251349
0.0251516
0.0249718
0.0249371
0.0249713
0.0250606
0.0252047
0.0255023
0.0258349
0.0263302
0.0267942
0.027333
0.0278353
0.0285969
0.0294843
0.0300615
0.030226
0.0291268
0.0273341
0.0252421
0.0242288
0.023721
0.0236663
0.0233441
0.0232916
0.0236551
0.0244143
0.0252225
0.0267289
0.0288036
0.0318315
0.035096
0.0385717
0.0426297
0.0465955
0.0536479
0.0608994
0.0661514
0.065596
0.0596077
0.0530393
0.0475034
0.0433689
0.0404266
0.0388132
0.0392062
0.0427108
0.0470498
0.05287
0.0584561
0.0643207
0.0695721
0.0762619
0.0855941
0.0955315
0.106999
0.116039
0.125097
0.130595
0.136281
0.139396
0.142346
0.144187
0.146441
0.148167
0.0353971
0.0355754
0.0357319
0.0358691
0.0359778
0.0360622
0.0361172
0.0361391
0.0361158
0.0360451
0.0359174
0.035723
0.0354456
0.0350704
0.0345796
0.0339618
0.0324304
0.0296373
0.0280228
0.0264761
0.0245932
0.0226432
0.0210193
0.0197771
0.0190169
0.0186524
0.0185864
0.0174829
0.0179495
0.018412
0.0188577
0.01937
0.0199297
0.0205996
0.0212887
0.0217868
0.0221392
0.0220596
0.022302
0.0223807
0.0226132
0.0227468
0.0231031
0.0234075
0.023981
0.024623
0.0254934
0.0263776
0.0274006
0.0286028
0.0296239
0.0301393
0.0282864
0.0255442
0.0230039
0.0217297
0.0212632
0.021485
0.0216965
0.0219912
0.0223907
0.0233203
0.0238754
0.0252172
0.0266641
0.0293117
0.0323952
0.036146
0.0406818
0.0461362
0.0535623
0.0627025
0.0689706
0.0679801
0.0611851
0.0542126
0.0485458
0.0443841
0.0413641
0.0396377
0.0398143
0.0431759
0.0478999
0.0546339
0.0619221
0.070191
0.0774878
0.0860827
0.0973702
0.108542
0.119938
0.127576
0.134374
0.138111
0.142392
0.145524
0.148248
0.149648
0.150974
0.152392
0.0310511
0.0309795
0.030879
0.0307578
0.0306107
0.0304407
0.0302427
0.030016
0.0297555
0.029462
0.0291301
0.0287582
0.0283374
0.0278604
0.027313
0.026681
0.0259473
0.0251023
0.0241464
0.021863
0.0199683
0.0179869
0.0160838
0.0145499
0.013477
0.0128494
0.0126081
0.0113172
0.0117068
0.0120793
0.0124332
0.0128594
0.0133126
0.0138743
0.0144511
0.015095
0.0157718
0.0165098
0.0172941
0.0181526
0.019088
0.0201284
0.020633
0.0209357
0.0214854
0.0221562
0.023172
0.0243622
0.0259011
0.0277406
0.0296827
0.0324044
0.0320694
0.027928
0.0229438
0.0201022
0.0189296
0.0189786
0.0192448
0.0200104
0.0202416
0.0214603
0.0217339
0.0231824
0.024198
0.0268612
0.0298308
0.0335963
0.0378693
0.0452924
0.0528459
0.0637084
0.070587
0.0688229
0.0616022
0.0545903
0.0490236
0.0449189
0.0419393
0.0400669
0.0397874
0.0423755
0.0475244
0.0549686
0.0639349
0.0748165
0.0856432
0.096663
0.109304
0.12161
0.129054
0.133022
0.137076
0.141118
0.145053
0.148741
0.15202
0.153949
0.154688
0.155554
0.0254658
0.0252311
0.0249699
0.0246925
0.0243969
0.0240834
0.0237494
0.0233951
0.023019
0.0226221
0.0222024
0.0217599
0.0212916
0.0207959
0.0202668
0.0196977
0.0190766
0.0183898
0.0176218
0.0167627
0.01582
0.0148045
0.0134785
0.0111375
0.00943139
0.00846322
0.00826017
0.00730575
0.00752609
0.00774866
0.00795024
0.00822028
0.00850528
0.0088815
0.0092705
0.00972518
0.0102083
0.0107532
0.0113339
0.0119861
0.0127047
0.0135246
0.0144465
0.0155013
0.0166937
0.0180408
0.0195315
0.0209277
0.0225593
0.024474
0.0262335
0.0277691
0.0287831
0.025461
0.0197708
0.0176461
0.0171574
0.0173054
0.0177632
0.019229
0.0192853
0.0207563
0.020903
0.0223476
0.022871
0.0249311
0.0268261
0.0301927
0.0341523
0.0405086
0.0501124
0.0582596
0.0646083
0.0631946
0.058002
0.0523313
0.047886
0.0444579
0.0417644
0.0398839
0.0393499
0.0417036
0.0464092
0.0532178
0.062735
0.0741059
0.0874876
0.0952921
0.0989343
0.102936
0.107319
0.112105
0.117307
0.122913
0.128866
0.135074
0.141342
0.147345
0.152581
0.156372
0.0196242
0.0193297
0.0190161
0.0186921
0.0183587
0.018014
0.0176583
0.0172909
0.0169116
0.0165205
0.0161171
0.0157016
0.0152733
0.0148324
0.014378
0.0139095
0.0134245
0.0129191
0.0123845
0.0118081
0.0111735
0.0104687
0.00969962
0.0088737
0.00735139
0.00587806
0.00546195
0.00512528
0.00517015
0.00523532
0.005297
0.00541061
0.00553601
0.00572239
0.00591707
0.00616127
0.00642388
0.00673468
0.00706797
0.00745626
0.00788914
0.0083936
0.0089848
0.00968229
0.0104959
0.0114407
0.0125161
0.0137154
0.0150063
0.016342
0.0176415
0.0188365
0.0194469
0.0198792
0.0203855
0.0211832
0.0188642
0.0172732
0.0170914
0.0190858
0.0185993
0.0204972
0.0204268
0.0212729
0.0217455
0.0227809
0.0257278
0.0297909
0.034848
0.0402152
0.0534664
0.056802
0.0565167
0.0564344
0.0552673
0.049067
0.0445175
0.0414808
0.0392294
0.0376136
0.0363602
0.0364191
0.0390693
0.0450336
0.0544757
0.0605342
0.0627889
0.0656887
0.0687374
0.0722294
0.0762277
0.0808178
0.086064
0.0921109
0.0990871
0.107189
0.116556
0.127251
0.138942
0.150368
0.0143737
0.014108
0.0138313
0.0135489
0.013264
0.0129732
0.0126788
0.0123785
0.0120739
0.0117637
0.0114486
0.0111281
0.0108026
0.0104718
0.0101362
0.00979563
0.00945027
0.00909969
0.00874232
0.00837571
0.00799097
0.00757465
0.0071118
0.00660382
0.00605134
0.00493547
0.00384241
0.00403844
0.00405203
0.00402224
0.00399668
0.00400937
0.00403111
0.00408813
0.00415063
0.00424156
0.00434076
0.00446702
0.00460183
0.00476541
0.00494933
0.00516998
0.00543382
0.00576085
0.00615688
0.00663616
0.00720082
0.00785606
0.00858485
0.00936571
0.0101539
0.010913
0.0112649
0.0114578
0.0115949
0.0118088
0.00946844
0.00959942
0.0147008
0.0206139
0.0225661
0.0255797
0.0264286
0.0280419
0.0290673
0.0290952
0.0308664
0.029278
0.0287868
0.028926
0.031652
0.0334642
0.0330735
0.0328267
0.0326492
0.0324683
0.0322728
0.0320552
0.0315152
0.0301561
0.0290851
0.0296072
0.0308563
0.0313192
0.0317294
0.0322984
0.0333938
0.0350793
0.0368734
0.03899
0.0414666
0.0443941
0.0478316
0.0519971
0.0571062
0.063607
0.0721156
0.0837675
0.100424
0.125293
0.0103885
0.010209
0.0100247
0.00983703
0.00965034
0.00946033
0.00927025
0.00907695
0.00888272
0.00868536
0.00848627
0.00828395
0.00807897
0.00787022
0.00765779
0.00744138
0.00722152
0.00699914
0.00677518
0.0065501
0.00632308
0.00609111
0.00583869
0.00553626
0.0051563
0.00451191
0.00270569
0.00298449
0.00347691
0.00345336
0.00339588
0.00338091
0.00335786
0.00336391
0.00336459
0.003384
0.00340097
0.00342998
0.00345568
0.00349184
0.00353197
0.00358759
0.00365875
0.00375322
0.00387454
0.00403183
0.00422857
0.00446615
0.00474143
0.00504136
0.00534682
0.00563551
0.00576287
0.00579736
0.0057618
0.00573179
0.00578229
0.00628957
0.0086114
0.0109469
0.0114769
0.0119757
0.0127212
0.013532
0.0141801
0.015059
0.0157902
0.016334
0.0168691
0.0167817
0.0153313
0.0156792
0.0154197
0.0147451
0.0143863
0.014075
0.0137924
0.0135798
0.01327
0.0130256
0.0127614
0.0127777
0.0129699
0.0130033
0.0128
0.0126728
0.0129072
0.0133885
0.013862
0.0144561
0.0151923
0.016089
0.0171315
0.0184127
0.0199876
0.0220596
0.0249074
0.0292281
0.0366542
0.0539218
0.00750332
0.0074022
0.0072958
0.00718515
0.00707329
0.00695683
0.00683856
0.00671526
0.00658941
0.00645803
0.00632323
0.00618226
0.00603668
0.005884
0.0057254
0.00555896
0.0053852
0.00520183
0.00500842
0.00480318
0.00458758
0.0043615
0.00412226
0.00385869
0.00354931
0.00318456
0.00275578
0.000638855
0.000618586
0.000613318
0.000606688
0.000607363
0.000609435
0.000614667
0.000620262
0.000626347
0.00063241
0.000637495
0.000641083
0.000642452
0.000642453
0.00064115
0.000639425
0.000638101
0.000638141
0.000640105
0.000644175
0.000651014
0.000660486
0.000672942
0.000687142
0.000699378
0.000704798
0.000705108
0.00070167
0.000695768
0.000683672
0.000649545
0.000672564
0.000733421
0.000780295
0.000824325
0.000858455
0.000891226
0.00091874
0.00094641
0.000971184
0.00100788
0.00104763
0.00109388
0.00114319
0.00118108
0.0012133
0.00123602
0.00124348
0.00124204
0.00123294
0.00121667
0.00119516
0.00117003
0.00114483
0.00113424
0.00112301
0.00110728
0.00108731
0.00106339
0.0010385
0.00101774
0.000999781
0.000984182
0.000969962
0.000956386
0.000941699
0.000924999
0.000904902
0.000880374
0.000850296
0.000813765
0.000769871
0.000717689
0.000376873
0.0196669
0.0223962
0.0224854
0.0224883
0.0224879
0.0224875
0.0224868
0.0224863
0.0224857
0.0224854
0.0224854
0.0224856
0.0224861
0.0224867
0.0224872
0.0224877
0.022488
0.0224884
0.0224886
0.00040302
0.0176242
0.0222159
0.0224617
0.0224721
0.0224721
0.0224717
0.0224711
0.0224706
0.0224702
0.02247
0.0224704
0.0224714
0.0224729
0.0224744
0.0224759
0.0224772
0.0224781
0.022479
0.0224795
0.000427818
0.0161198
0.0219891
0.0224322
0.0224558
0.0224567
0.0224564
0.0224559
0.0224556
0.0224552
0.0224553
0.0224561
0.0224578
0.0224603
0.0224629
0.0224653
0.0224674
0.022469
0.0224703
0.0224711
0.000451212
0.0149563
0.0217302
0.0223967
0.0224394
0.0224417
0.0224415
0.0224412
0.022441
0.0224407
0.022441
0.0224422
0.0224447
0.0224482
0.0224518
0.0224551
0.022458
0.0224602
0.022462
0.0224632
0.000473209
0.0140185
0.0214488
0.0223546
0.0224226
0.0224269
0.022427
0.0224268
0.0224266
0.0224265
0.022427
0.0224287
0.022432
0.0224365
0.0224412
0.0224454
0.022449
0.0224519
0.0224541
0.0224556
0.000493885
0.0132074
0.0211481
0.0223057
0.0224051
0.0224121
0.0224126
0.0224125
0.0224126
0.0224127
0.0224134
0.0224156
0.0224196
0.0224251
0.0224308
0.022436
0.0224404
0.022444
0.0224466
0.0224485
0.000513245
0.0124531
0.0208272
0.0222496
0.0223866
0.0223974
0.0223984
0.0223985
0.0223987
0.022399
0.0224001
0.0224028
0.0224076
0.0224141
0.0224208
0.022427
0.0224322
0.0224364
0.0224396
0.0224416
0.000531395
0.0117425
0.0204879
0.0221863
0.022367
0.0223828
0.0223842
0.0223847
0.0223851
0.0223857
0.022387
0.0223903
0.0223959
0.0224034
0.0224112
0.0224184
0.0224244
0.0224292
0.0224329
0.0224352
0.000548356
0.0110855
0.0201344
0.0221158
0.0223462
0.022368
0.0223703
0.0223711
0.0223717
0.0223726
0.0223743
0.0223781
0.0223846
0.0223931
0.022402
0.0224101
0.0224169
0.0224225
0.0224266
0.0224292
0.000564243
0.0104897
0.0197712
0.0220382
0.0223241
0.0223533
0.0223566
0.0223577
0.0223586
0.0223597
0.0223619
0.0223663
0.0223737
0.0223832
0.0223932
0.0224022
0.0224099
0.0224161
0.0224207
0.0224236
0.000579063
0.00995636
0.0194033
0.0219539
0.0223007
0.0223385
0.022343
0.0223445
0.0223457
0.0223473
0.0223498
0.0223549
0.0223631
0.0223737
0.0223848
0.0223948
0.0224033
0.0224102
0.0224153
0.0224184
0.000592924
0.00948182
0.0190352
0.0218632
0.0222759
0.0223237
0.0223297
0.0223317
0.0223332
0.0223352
0.0223382
0.0223439
0.022353
0.0223646
0.0223768
0.0223878
0.0223972
0.0224047
0.0224103
0.0224138
0.000605818
0.00906095
0.0186707
0.0217668
0.0222496
0.022309
0.0223167
0.0223191
0.0223211
0.0223235
0.022327
0.0223334
0.0223434
0.0223561
0.0223693
0.0223813
0.0223916
0.0223998
0.0224059
0.0224097
0.000617845
0.00868768
0.0183128
0.0216653
0.022222
0.0222943
0.022304
0.022307
0.0223094
0.0223123
0.0223163
0.0223234
0.0223343
0.0223481
0.0223623
0.0223754
0.0223866
0.0223954
0.0224021
0.0224061
0.000628968
0.0083554
0.017964
0.0215594
0.0221932
0.0222796
0.0222917
0.0222953
0.0222982
0.0223016
0.0223062
0.022314
0.0223259
0.0223407
0.022356
0.0223702
0.0223822
0.0223917
0.0223989
0.0224032
0.00063922
0.0080546
0.0176262
0.0214501
0.0221631
0.0222652
0.0222799
0.0222842
0.0222876
0.0222915
0.0222967
0.0223053
0.0223181
0.022334
0.0223505
0.0223656
0.0223785
0.0223888
0.0223965
0.022401
0.00064855
0.00778228
0.0173007
0.0213381
0.0221321
0.0222511
0.0222687
0.0222737
0.0222777
0.0222822
0.022288
0.0222973
0.0223111
0.0223281
0.0223458
0.0223619
0.0223757
0.0223867
0.0223949
0.0223997
0.000657003
0.00753562
0.016989
0.0212244
0.0221004
0.0222375
0.0222582
0.022264
0.0222687
0.0222738
0.0222803
0.0222904
0.0223051
0.0223233
0.022342
0.0223592
0.0223739
0.0223856
0.0223943
0.0223994
0.000664447
0.00731242
0.0166922
0.0211103
0.0220683
0.0222245
0.0222486
0.0222553
0.0222607
0.0222664
0.0222736
0.0222845
0.0223002
0.0223195
0.0223394
0.0223577
0.0223733
0.0223856
0.0223949
0.0224003
0.000671121
0.00711074
0.0164115
0.020997
0.0220363
0.0222124
0.02224
0.0222479
0.022254
0.0222604
0.0222683
0.02228
0.0222967
0.0223171
0.0223382
0.0223575
0.022374
0.022387
0.0223969
0.0224026
0.000676549
0.00692914
0.0161482
0.020886
0.0220048
0.0222016
0.0222329
0.0222421
0.0222489
0.0222559
0.0222645
0.022277
0.0222947
0.0223162
0.0223385
0.0223589
0.0223762
0.02239
0.0224004
0.0224064
0.000681129
0.00676656
0.0159041
0.0207791
0.0219745
0.0221925
0.0222276
0.0222383
0.0222458
0.0222534
0.0222626
0.0222759
0.0222946
0.0223172
0.0223406
0.0223621
0.0223803
0.0223948
0.0224058
0.022412
0.000684663
0.00662211
0.0156802
0.0206782
0.0219459
0.0221856
0.0222248
0.022237
0.022245
0.0222532
0.022263
0.022277
0.0222967
0.0223204
0.0223448
0.0223674
0.0223866
0.0224017
0.0224132
0.0224198
0.000686672
0.00648862
0.015471
0.0205835
0.0219194
0.0221815
0.0222252
0.0222388
0.0222472
0.0222558
0.022266
0.0222807
0.0223013
0.0223261
0.0223516
0.0223752
0.0223953
0.0224111
0.0224231
0.02243
0.000689626
0.00634955
0.0152565
0.0204903
0.0218947
0.0221813
0.0222298
0.0222445
0.022253
0.0222618
0.0222723
0.0222875
0.0223088
0.0223346
0.0223612
0.0223858
0.0224067
0.0224233
0.0224357
0.022443
0.000696016
0.00620447
0.0150323