/*--------------------------------*- C++ -*----------------------------------*\
  =========                 |
  \\      /  F ield         | OpenFOAM: The Open Source CFD Toolbox
   \\    /   O peration     | Website:  https://openfoam.org
    \\  /    A nd           | Version:  7
     \\/     M anipulation  |
\*---------------------------------------------------------------------------*/
FoamFile
{
    version     2.0;
    format      ascii;
    class       volVectorField;
    location    "0.1275";
    object      U;
}
// * * * * * * * * * * * * * * * * * * * * * * * * * * * * * * * * * * * * * //

dimensions      [0 1 -1 0 0 0 0];

internalField   nonuniform List<vector> 
48560
(
(221.946 -5.36772 -4.9062e-11)
(221.754 -6.1969 -5.89176e-11)
(221.584 -7.0283 -7.82026e-11)
(221.437 -7.84031 -1.00121e-10)
(221.304 -8.63322 -1.31209e-10)
(221.185 -9.40117 -1.6588e-10)
(221.073 -10.147 -2.09085e-10)
(220.967 -10.8664 -2.55699e-10)
(220.865 -11.5638 -3.09319e-10)
(220.765 -12.2366 -3.65474e-10)
(220.666 -12.8902 -4.26013e-10)
(220.565 -13.5232 -4.87258e-10)
(220.462 -14.1407 -5.49488e-10)
(220.355 -14.7411 -6.09792e-10)
(220.243 -15.3283 -6.6624e-10)
(220.123 -15.9005 -7.17006e-10)
(219.995 -16.4602 -7.58838e-10)
(219.856 -17.006 -7.89833e-10)
(219.703 -17.5398 -8.06757e-10)
(219.534 -18.0608 -8.07767e-10)
(219.346 -18.5705 -7.89925e-10)
(219.133 -19.0683 -7.51119e-10)
(218.894 -19.5549 -6.89667e-10)
(218.621 -20.0296 -6.02827e-10)
(218.312 -20.4914 -4.92906e-10)
(217.958 -20.9395 -3.56812e-10)
(217.558 -21.3724 -1.98098e-10)
(217.04 -21.8647 1.69477e-11)
(216.286 -22.4137 3.11428e-10)
(215.393 -22.9119 5.95961e-10)
(214.306 -23.3846 8.82128e-10)
(212.963 -23.8068 1.15986e-09)
(211.281 -24.1917 1.37814e-09)
(209.081 -24.5152 1.53864e-09)
(206.058 -24.7616 1.44279e-09)
(202.492 -24.8964 1.19445e-09)
(198.253 -24.8758 5.65332e-10)
(193.603 -24.7461 -1.40064e-10)
(188.788 -24.4533 -1.37781e-09)
(184.855 -24.0506 -2.54049e-09)
(180.811 -23.2556 -4.16535e-09)
(176.734 -22.62 -4.55022e-09)
(172.877 -21.4533 -5.91333e-09)
(169.148 -20.0221 -6.40475e-09)
(165.804 -18.7132 -7.02728e-09)
(165.082 -16.0972 -9.50468e-09)
(171.769 -12.2479 -1.25229e-08)
(191.387 -6.88482 -1.71176e-08)
(221.308 -4.08068 -2.21816e-08)
(250.054 -7.78891 -2.61605e-08)
(271.685 -31.4681 -2.92602e-08)
(263.863 -74.1582 -3.0862e-08)
(229.269 -57.6502 -2.97264e-08)
(214.681 -60.7852 -2.98127e-08)
(195.662 -51.6234 -2.92071e-08)
(183.877 -51.0944 -2.92465e-08)
(165.481 -43.5363 -2.86439e-08)
(153.75 -41.3576 -2.86584e-08)
(133.696 -34.3429 -2.80009e-08)
(121.443 -31.2415 -2.8039e-08)
(99.3229 -24.1237 -2.73101e-08)
(85.683 -20.417 -2.73057e-08)
(66.0757 -11.0082 -2.6423e-08)
(66.3463 -8.54308 -2.67574e-08)
(55.7815 -5.5797 -2.62857e-08)
(52.6454 1.1277 -2.60719e-08)
(56.5748 2.2247 -2.6316e-08)
(58.823 4.44237 -2.65336e-08)
(60.5568 6.50871 -2.67392e-08)
(63.5757 8.64364 -2.70234e-08)
(67.9238 11.4707 -2.74331e-08)
(73.4448 14.9745 -2.7882e-08)
(80.3088 19.2409 -2.83855e-08)
(88.7299 24.4694 -2.89262e-08)
(98.929 30.8337 -2.95092e-08)
(111.36 38.4928 -3.01193e-08)
(127.427 48.2365 -3.0795e-08)
(149.438 61.6847 -3.15063e-08)
(182.284 78.9863 -3.22196e-08)
(220.441 84.7196 -3.28682e-08)
(259.689 66.4919 -3.37719e-08)
(254.786 60.4472 -3.40195e-08)
(246.368 53.3835 -3.43851e-08)
(251.803 56.0633 -3.43942e-08)
(256.211 56.6905 -3.46387e-08)
(267.566 53.7093 -3.53844e-08)
(271.759 43.0844 -3.55544e-08)
(275.782 36.6796 -3.59223e-08)
(275.79 26.9355 -3.60901e-08)
(275.43 19.8337 -3.63752e-08)
(273.263 14.3847 -3.64758e-08)
(270.017 8.44321 -3.66532e-08)
(266.521 3.74695 -3.68021e-08)
(263.136 -0.00116294 -3.69423e-08)
(260.008 -3.04811 -3.70489e-08)
(257.305 -5.5127 -3.71541e-08)
(255.074 -7.47894 -3.72341e-08)
(253.411 -8.90355 -3.72975e-08)
(252.353 -9.71776 -3.73433e-08)
(252.112 -9.95823 -3.7367e-08)
(221.191 -5.08789 -5.89738e-10)
(221.008 -5.94571 -6.17956e-10)
(220.84 -6.80027 -6.46856e-10)
(220.705 -7.64507 -6.73388e-10)
(220.577 -8.46254 -6.99022e-10)
(220.466 -9.26015 -7.18577e-10)
(220.355 -10.0283 -7.35739e-10)
(220.25 -10.7748 -7.43014e-10)
(220.139 -11.4972 -7.45611e-10)
(220.026 -12.2043 -7.34523e-10)
(219.907 -12.8957 -7.185e-10)
(219.782 -13.573 -6.87745e-10)
(219.645 -14.2349 -6.47539e-10)
(219.497 -14.8797 -5.90196e-10)
(219.334 -15.507 -5.19784e-10)
(219.153 -16.114 -4.31284e-10)
(218.952 -16.702 -3.28255e-10)
(218.727 -17.2692 -2.08741e-10)
(218.476 -17.8191 -7.68796e-11)
(218.197 -18.3515 6.60275e-11)
(217.882 -18.8697 2.22177e-10)
(217.528 -19.3711 3.8588e-10)
(217.126 -19.8552 5.59852e-10)
(216.67 -20.3192 7.35376e-10)
(216.146 -20.7628 9.17335e-10)
(215.537 -21.184 1.09045e-09)
(214.826 -21.5814 1.25738e-09)
(213.848 -22.0214 1.41471e-09)
(212.234 -22.4904 1.51285e-09)
(210.278 -22.9014 1.40477e-09)
(208.019 -23.2593 1.20318e-09)
(205.368 -23.5389 6.85019e-10)
(202.471 -23.7666 1.11538e-10)
(199.346 -23.9087 -9.01256e-10)
(196.471 -23.9689 -1.93622e-09)
(193.655 -23.8485 -3.34136e-09)
(191.146 -23.7679 -3.7951e-09)
(188.657 -23.5227 -5.07333e-09)
(186.652 -23.2636 -5.8979e-09)
(184.845 -22.7269 -6.76993e-09)
(183.406 -22.2538 -7.20666e-09)
(183.041 -21.7387 -8.15446e-09)
(184.916 -20.8174 -1.09408e-08)
(190.625 -20.8877 -1.25638e-08)
(204.546 -21.4823 -1.69158e-08)
(229.833 -22.8104 -2.20598e-08)
(255.635 -23.8671 -2.63471e-08)
(277.806 -24.7596 -2.96237e-08)
(288.943 -26.5144 -3.0998e-08)
(295.84 -34.6628 -3.23907e-08)
(287.449 -53.5422 -3.27518e-08)
(275.13 -72.0737 -3.32433e-08)
(246.996 -67.1274 -3.26822e-08)
(235.293 -67.3321 -3.25989e-08)
(216.33 -61.472 -3.22337e-08)
(206.916 -58.3939 -3.2097e-08)
(189.502 -52.6491 -3.1785e-08)
(179.974 -48.5889 -3.158e-08)
(162.665 -42.4782 -3.12944e-08)
(152.775 -37.7518 -3.10339e-08)
(136.166 -31.2762 -3.07761e-08)
(125.728 -26.056 -3.03915e-08)
(113.384 -16.8047 -3.00683e-08)
(111.847 -12.2643 -2.98486e-08)
(107.957 -6.68258 -2.98538e-08)
(105.468 1.30449 -2.93696e-08)
(111.121 3.49159 -2.98184e-08)
(113.938 8.65579 -2.98995e-08)
(116.835 11.7532 -3.01471e-08)
(121.023 15.5199 -3.03225e-08)
(124.798 18.9556 -3.06264e-08)
(130.436 23.1842 -3.08732e-08)
(135.909 27.5026 -3.12271e-08)
(143.594 32.9526 -3.15387e-08)
(151.846 39.109 -3.19446e-08)
(163.024 46.951 -3.23246e-08)
(176.868 56.9037 -3.28038e-08)
(197.309 71.4788 -3.3274e-08)
(221.3 90.2731 -3.3851e-08)
(241.907 94.6581 -3.44555e-08)
(258.387 73.9817 -3.50265e-08)
(263.721 63.9365 -3.55041e-08)
(266.057 61.5185 -3.57025e-08)
(270.263 62.6655 -3.61586e-08)
(272.857 63.466 -3.59404e-08)
(275.839 59.6065 -3.69382e-08)
(277.533 51.0351 -3.65102e-08)
(279.534 43.4011 -3.72364e-08)
(278.851 33.3396 -3.68503e-08)
(278.004 24.7954 -3.75696e-08)
(274.971 16.7012 -3.71496e-08)
(272.278 10.845 -3.76927e-08)
(268.296 5.71674 -3.73645e-08)
(265.214 1.9854 -3.77576e-08)
(261.551 -1.19582 -3.74878e-08)
(258.96 -3.59793 -3.7761e-08)
(256.277 -5.6709 -3.75473e-08)
(254.712 -7.14224 -3.77075e-08)
(253.724 -7.74748 -3.75987e-08)
(253.359 -7.93816 -3.7621e-08)
(219.987 -4.79954 -1.82317e-10)
(219.792 -5.71122 -1.57242e-10)
(219.576 -6.62095 -1.04093e-10)
(219.424 -7.52528 -6.28647e-11)
(219.246 -8.39293 3.76701e-12)
(219.107 -9.24203 6.16622e-11)
(218.937 -10.0544 1.4171e-10)
(218.788 -10.854 2.16407e-10)
(218.604 -11.6304 3.0923e-10)
(218.423 -12.3959 3.98876e-10)
(218.207 -13.1355 5.04532e-10)
(217.981 -13.8554 6.10494e-10)
(217.717 -14.5413 7.26437e-10)
(217.429 -15.1989 8.40964e-10)
(217.093 -15.819 9.56658e-10)
(216.713 -16.4094 1.06465e-09)
(216.262 -16.9672 1.15996e-09)
(215.732 -17.502 1.2329e-09)
(215.087 -18.0149 1.26605e-09)
(214.397 -18.5117 1.28274e-09)
(213.611 -18.9919 1.25236e-09)
(212.769 -19.4574 1.18911e-09)
(211.833 -19.9046 1.06268e-09)
(210.829 -20.3305 9.20387e-10)
(209.729 -20.7366 6.7653e-10)
(208.56 -21.1166 4.14052e-10)
(207.316 -21.4732 2.75532e-11)
(205.833 -21.8559 -4.5487e-10)
(203.893 -22.2597 -1.32114e-09)
(202.309 -22.6013 -2.15623e-09)
(200.52 -22.8638 -3.27196e-09)
(199.024 -23.0901 -3.59814e-09)
(197.414 -23.2614 -4.62323e-09)
(196.137 -23.3987 -5.19763e-09)
(194.945 -23.4174 -5.95137e-09)
(193.888 -23.3379 -6.42677e-09)
(193.273 -23.1709 -7.1282e-09)
(193.116 -22.9856 -8.0758e-09)
(194.53 -22.8286 -1.0061e-08)
(197.553 -23.0409 -1.12217e-08)
(204.154 -23.6032 -1.37602e-08)
(215.882 -24.703 -1.69581e-08)
(233.743 -26.1255 -2.12565e-08)
(253.355 -27.6657 -2.46771e-08)
(273.411 -28.0496 -2.86284e-08)
(287.784 -27.1183 -3.03346e-08)
(299.472 -26.4192 -3.21784e-08)
(305.307 -27.0861 -3.26733e-08)
(307.593 -31.172 -3.32139e-08)
(303.598 -41.4128 -3.32797e-08)
(292.418 -57.7443 -3.32441e-08)
(276.517 -68.0654 -3.30834e-08)
(256.592 -61.9598 -3.29062e-08)
(244.507 -65.3499 -3.26521e-08)
(227.863 -57.5581 -3.2494e-08)
(217.675 -57.0995 -3.22056e-08)
(202.677 -49.8136 -3.20847e-08)
(192.626 -47.5255 -3.17734e-08)
(178.162 -40.712 -3.16904e-08)
(168.183 -37.2399 -3.13575e-08)
(155.111 -30.7832 -3.13082e-08)
(145.973 -26.3742 -3.09565e-08)
(137.71 -18.2056 -3.09159e-08)
(136.059 -13.8374 -3.06447e-08)
(135.387 -5.90471 -3.07391e-08)
(132.908 0.995018 -3.04441e-08)
(138.64 4.57929 -3.07949e-08)
(139.529 10.9696 -3.07368e-08)
(143.233 14.6249 -3.1024e-08)
(145.455 19.6312 -3.10677e-08)
(149.132 23.9291 -3.13785e-08)
(152.45 28.994 -3.1507e-08)
(156.904 34.149 -3.18494e-08)
(162.028 40.1001 -3.20613e-08)
(168.646 46.7089 -3.24521e-08)
(177.393 54.5428 -3.27583e-08)
(189.892 64.2626 -3.32285e-08)
(208.61 76.267 -3.36589e-08)
(232.075 84.8542 -3.42129e-08)
(250.996 79.6589 -3.46662e-08)
(260.317 67.7103 -3.50163e-08)
(265.186 63.5584 -3.52852e-08)
(267.593 61.0895 -3.55816e-08)
(272.03 59.6339 -3.61016e-08)
(274.946 55.1726 -3.59248e-08)
(277.792 48.5679 -3.675e-08)
(278.733 41.1951 -3.62542e-08)
(280.056 33.9935 -3.69653e-08)
(278.899 26.4906 -3.65751e-08)
(277.593 20.1403 -3.70986e-08)
(274.456 14.266 -3.68283e-08)
(271.703 9.30766 -3.71936e-08)
(267.975 5.10045 -3.69787e-08)
(264.962 1.73823 -3.72357e-08)
(261.556 -1.00203 -3.70565e-08)
(258.988 -3.07319 -3.72301e-08)
(256.461 -4.57347 -3.70804e-08)
(254.881 -5.47512 -3.71834e-08)
(253.926 -5.7758 -3.71084e-08)
(253.57 -5.88515 -3.71206e-08)
(216.942 -4.51604 6.05701e-10)
(216.667 -5.45253 6.62289e-10)
(216.27 -6.37373 6.72535e-10)
(216.011 -7.29293 7.05645e-10)
(215.631 -8.16734 7.03709e-10)
(215.343 -9.02753 7.07337e-10)
(214.928 -9.84956 6.85198e-10)
(214.568 -10.6652 6.52511e-10)
(214.092 -11.4557 5.99516e-10)
(213.657 -12.2357 5.2124e-10)
(213.123 -12.9853 4.23637e-10)
(212.617 -13.7172 2.87761e-10)
(212.028 -14.4178 1.30097e-10)
(211.453 -15.0984 -7.59934e-11)
(210.81 -15.7499 -3.07787e-10)
(210.179 -16.3814 -5.93538e-10)
(209.504 -16.9859 -9.0533e-10)
(208.858 -17.5686 -1.26641e-09)
(208.222 -18.1218 -1.63977e-09)
(207.583 -18.6475 -2.07152e-09)
(206.951 -19.1412 -2.52576e-09)
(206.338 -19.6068 -3.03131e-09)
(205.713 -20.0195 -3.16363e-09)
(205.103 -20.4334 -3.64105e-09)
(204.492 -20.8072 -3.87655e-09)
(203.909 -21.1732 -4.33734e-09)
(203.342 -21.5008 -4.6388e-09)
(202.737 -21.8597 -5.14622e-09)
(202.043 -22.2178 -5.65336e-09)
(201.513 -22.5039 -6.11724e-09)
(200.991 -22.6712 -6.40243e-09)
(200.718 -22.7676 -6.9423e-09)
(200.62 -22.8607 -7.6999e-09)
(201.334 -23.0651 -9.16467e-09)
(202.717 -23.2559 -9.89033e-09)
(205.36 -23.7414 -1.14581e-08)
(209.955 -24.5069 -1.31903e-08)
(217.059 -25.7165 -1.55829e-08)
(229.128 -27.4874 -1.87403e-08)
(242.033 -29.3751 -2.1537e-08)
(258.044 -31.3144 -2.50924e-08)
(272.3 -32.6022 -2.75542e-08)
(285.719 -33.2321 -2.99936e-08)
(296.951 -33.472 -3.14355e-08)
(305.754 -33.1013 -3.28262e-08)
(311.079 -32.9132 -3.30305e-08)
(314.259 -33.5225 -3.36184e-08)
(315.308 -35.9813 -3.34156e-08)
(312.888 -41.2706 -3.35954e-08)
(306.176 -50.7482 -3.32295e-08)
(294.206 -61.8915 -3.31119e-08)
(279.335 -67.2207 -3.25951e-08)
(262.275 -65.1722 -3.28084e-08)
(249.867 -65.1664 -3.22616e-08)
(235.469 -59.8277 -3.24076e-08)
(224.749 -57.4533 -3.19107e-08)
(211.732 -51.4211 -3.203e-08)
(201.411 -47.8926 -3.15906e-08)
(189.023 -41.7755 -3.17052e-08)
(179.179 -37.4836 -3.12969e-08)
(168.459 -31.2252 -3.14006e-08)
(160.276 -25.9414 -3.10481e-08)
(154.009 -18.3002 -3.11575e-08)
(152.301 -12.9599 -3.08669e-08)
(152.213 -5.03761 -3.10181e-08)
(150.306 0.596224 -3.08226e-08)
(154.922 5.91014 -3.10587e-08)
(154.343 11.8018 -3.09786e-08)
(158.262 16.0943 -3.12358e-08)
(158.94 21.0267 -3.12444e-08)
(162.825 25.4655 -3.15274e-08)
(164.794 30.3338 -3.16197e-08)
(169.395 35.4427 -3.19347e-08)
(173.53 41.0822 -3.21141e-08)
(180.515 47.6158 -3.24777e-08)
(189.029 55.3923 -3.27557e-08)
(202.267 65.3122 -3.31922e-08)
(219.259 76.2532 -3.3576e-08)
(237.754 81.7574 -3.40754e-08)
(252.198 74.5074 -3.44174e-08)
(260.429 66.6995 -3.46197e-08)
(265.766 64.3272 -3.48207e-08)
(269.16 61.9005 -3.53309e-08)
(272.983 59.8102 -3.54086e-08)
(274.784 54.6561 -3.56398e-08)
(276.836 47.8172 -3.59778e-08)
(277.628 41.2826 -3.58944e-08)
(278.355 34.4167 -3.62096e-08)
(277.297 27.5109 -3.61241e-08)
(275.953 21.1935 -3.63732e-08)
(273.187 15.3352 -3.62443e-08)
(270.511 10.5055 -3.64963e-08)
(267.077 6.3556 -3.63557e-08)
(264.133 3.06835 -3.653e-08)
(260.949 0.376965 -3.6405e-08)
(258.489 -1.65743 -3.65228e-08)
(256.192 -3.03842 -3.64138e-08)
(254.762 -3.7422 -3.6479e-08)
(253.938 -3.90569 -3.64192e-08)
(253.624 -3.94778 -3.6434e-08)
(212.158 -3.91963 -2.46589e-09)
(211.786 -4.8568 -2.47446e-09)
(211.384 -5.76183 -2.7614e-09)
(211.092 -6.73354 -2.68538e-09)
(210.751 -7.63227 -2.94905e-09)
(210.487 -8.56925 -2.94902e-09)
(210.158 -9.44511 -3.20372e-09)
(209.887 -10.3467 -3.26848e-09)
(209.559 -11.1986 -3.52378e-09)
(209.292 -12.0654 -3.64372e-09)
(208.983 -12.8886 -3.9055e-09)
(208.732 -13.7158 -4.07108e-09)
(208.448 -14.5009 -4.33975e-09)
(208.22 -15.2776 -4.53945e-09)
(207.967 -16.0085 -4.81027e-09)
(207.765 -16.7154 -5.02858e-09)
(207.545 -17.366 -5.29017e-09)
(207.369 -17.9734 -5.50701e-09)
(207.176 -18.5128 -5.74255e-09)
(207.008 -18.9998 -5.93462e-09)
(206.821 -19.423 -6.11833e-09)
(206.638 -19.8027 -6.24893e-09)
(206.514 -20.1634 -6.73635e-09)
(206.485 -20.488 -7.04709e-09)
(206.552 -20.7975 -7.51195e-09)
(206.755 -21.0909 -7.94326e-09)
(207.1 -21.3865 -8.4341e-09)
(207.715 -21.7475 -9.04495e-09)
(208.713 -22.1502 -9.81139e-09)
(210.382 -22.6404 -1.0731e-08)
(212.69 -23.2255 -1.18371e-08)
(216.162 -24.0194 -1.32852e-08)
(220.884 -25.0411 -1.4953e-08)
(227.913 -26.4074 -1.70884e-08)
(236.379 -28.0218 -1.92038e-08)
(246.399 -29.917 -2.1811e-08)
(257.468 -31.8511 -2.41554e-08)
(268.779 -33.6123 -2.66017e-08)
(278.803 -34.7607 -2.83521e-08)
(289.195 -35.819 -3.02296e-08)
(298.055 -36.4027 -3.15761e-08)
(305.61 -36.7809 -3.25809e-08)
(311.614 -36.7859 -3.33119e-08)
(315.957 -36.6581 -3.35976e-08)
(318.798 -36.5518 -3.38511e-08)
(320.297 -37.0862 -3.36866e-08)
(320.671 -38.5036 -3.37697e-08)
(319.101 -41.5326 -3.3395e-08)
(314.899 -47.3942 -3.33875e-08)
(307.006 -55.6094 -3.28794e-08)
(295.352 -63.4394 -3.269e-08)
(281.701 -66.2217 -3.20193e-08)
(266.446 -64.8273 -3.23851e-08)
(254.173 -64.14 -3.17433e-08)
(241.132 -59.1636 -3.2009e-08)
(230.155 -56.7096 -3.14574e-08)
(218.416 -50.6663 -3.16674e-08)
(207.93 -47.1977 -3.12183e-08)
(196.804 -40.9442 -3.14044e-08)
(187.068 -36.6866 -3.10081e-08)
(177.685 -30.2191 -3.1156e-08)
(170.217 -24.9366 -3.0857e-08)
(165.122 -17.4567 -3.10157e-08)
(163.387 -11.6318 -3.07579e-08)
(163.211 -4.12556 -3.09104e-08)
(162.016 1.01011 -3.07972e-08)
(165.117 7.60495 -3.09046e-08)
(164.316 12.9173 -3.08732e-08)
(167.5 18.063 -3.10361e-08)
(167.695 23.0784 -3.10672e-08)
(171.112 27.9678 -3.12765e-08)
(172.538 33.0225 -3.13812e-08)
(176.9 38.3655 -3.16468e-08)
(180.617 44.1487 -3.18354e-08)
(187.629 50.8064 -3.21648e-08)
(196.041 58.4527 -3.24466e-08)
(209.381 67.3724 -3.28567e-08)
(225.223 75.011 -3.3231e-08)
(241.657 76.275 -3.36471e-08)
(252.951 70.3996 -3.3894e-08)
(260.631 65.5229 -3.40153e-08)
(266.073 62.6767 -3.40883e-08)
(269.843 59.9257 -3.49611e-08)
(273.194 55.7458 -3.47307e-08)
(274.783 49.937 -3.51942e-08)
(276.234 43.6947 -3.53638e-08)
(276.769 37.6641 -3.53585e-08)
(276.97 31.1405 -3.54336e-08)
(275.795 25.2207 -3.54814e-08)
(274.215 19.5076 -3.55966e-08)
(271.655 14.5163 -3.55191e-08)
(269.066 10.0867 -3.56969e-08)
(265.979 6.44387 -3.56128e-08)
(263.178 3.43752 -3.57322e-08)
(260.286 1.14875 -3.56436e-08)
(257.947 -0.526149 -3.57133e-08)
(255.908 -1.57928 -3.56337e-08)
(254.633 -2.11048 -3.56737e-08)
(253.925 -2.22351 -3.563e-08)
(253.652 -2.25172 -3.56463e-08)
(212.222 -3.32315 -5.77414e-09)
(211.794 -4.30987 -5.80958e-09)
(211.473 -5.33804 -5.79996e-09)
(211.196 -6.3565 -5.97035e-09)
(210.985 -7.3702 -6.0525e-09)
(210.802 -8.36666 -6.21301e-09)
(210.647 -9.33743 -6.36259e-09)
(210.518 -10.2986 -6.53376e-09)
(210.413 -11.2226 -6.73653e-09)
(210.359 -12.129 -6.9318e-09)
(210.339 -12.9859 -7.17975e-09)
(210.393 -13.8155 -7.40864e-09)
(210.493 -14.5884 -7.69879e-09)
(210.686 -15.3297 -7.96968e-09)
(210.941 -16.0177 -8.30408e-09)
(211.31 -16.6798 -8.6261e-09)
(211.763 -17.3018 -9.01259e-09)
(212.35 -17.9084 -9.39938e-09)
(213.045 -18.4855 -9.85573e-09)
(213.92 -19.0596 -1.03397e-08)
(214.969 -19.6271 -1.0914e-08)
(216.292 -20.2148 -1.15612e-08)
(217.894 -20.8258 -1.23173e-08)
(219.857 -21.4755 -1.3081e-08)
(222.269 -22.1797 -1.40079e-08)
(225.253 -22.96 -1.49898e-08)
(228.957 -23.8493 -1.61772e-08)
(234.327 -25.0547 -1.7711e-08)
(239.475 -26.2801 -1.91868e-08)
(246.605 -27.868 -2.10426e-08)
(253.441 -29.4136 -2.27528e-08)
(261.424 -31.1292 -2.46164e-08)
(269.004 -32.7207 -2.62596e-08)
(276.48 -34.1687 -2.778e-08)
(283.812 -35.4975 -2.91599e-08)
(291.07 -36.6868 -3.04837e-08)
(297.836 -37.6766 -3.15328e-08)
(303.979 -38.4626 -3.24833e-08)
(309.352 -39.0638 -3.31e-08)
(314.006 -39.4959 -3.36849e-08)
(317.653 -39.7206 -3.39027e-08)
(320.57 -39.7986 -3.41139e-08)
(322.603 -39.8208 -3.40645e-08)
(323.959 -39.9842 -3.40082e-08)
(324.645 -40.4554 -3.38393e-08)
(324.613 -41.5096 -3.36298e-08)
(323.564 -43.4857 -3.34396e-08)
(320.758 -47.1879 -3.31099e-08)
(315.552 -52.7773 -3.28986e-08)
(307.171 -59.4736 -3.24066e-08)
(296.055 -64.9363 -3.20994e-08)
(283.196 -66.6852 -3.14136e-08)
(269.205 -65.3299 -3.17969e-08)
(257.357 -63.9534 -3.11665e-08)
(245.12 -59.4788 -3.14448e-08)
(234.335 -56.3246 -3.09184e-08)
(223.217 -50.6289 -3.11413e-08)
(212.947 -46.5935 -3.07378e-08)
(202.441 -40.4926 -3.09359e-08)
(193.063 -35.7298 -3.05796e-08)
(184.39 -29.1379 -3.07297e-08)
(177.555 -23.4467 -3.04878e-08)
(173.002 -16.144 -3.06621e-08)
(171.225 -10.0297 -3.04468e-08)
(170.781 -3.05354 -3.05907e-08)
(170.086 1.94695 -3.05316e-08)
(171.929 8.8614 -3.05487e-08)
(171.411 13.8274 -3.0567e-08)
(173.663 19.3879 -3.06463e-08)
(174.019 24.2364 -3.07106e-08)
(176.894 29.286 -3.08538e-08)
(178.493 34.2403 -3.09858e-08)
(182.679 39.573 -3.12062e-08)
(186.689 45.2741 -3.14128e-08)
(193.906 51.8486 -3.17099e-08)
(202.677 59.286 -3.20025e-08)
(215.656 67.332 -3.23775e-08)
(229.617 72.9248 -3.27377e-08)
(243.463 72.4297 -3.30934e-08)
(253.075 67.8683 -3.32883e-08)
(260.509 64.4321 -3.33813e-08)
(265.841 61.2143 -3.33777e-08)
(269.456 58.3607 -3.41483e-08)
(271.889 53.3212 -3.41723e-08)
(273.242 47.8194 -3.44048e-08)
(274.316 41.8416 -3.46534e-08)
(274.81 36.1822 -3.4495e-08)
(274.786 30.1199 -3.46331e-08)
(273.787 24.6458 -3.46559e-08)
(272.263 19.2628 -3.47734e-08)
(270.006 14.7102 -3.47288e-08)
(267.549 10.5605 -3.4838e-08)
(264.763 7.1985 -3.47982e-08)
(262.126 4.35519 -3.48743e-08)
(259.548 2.23241 -3.48149e-08)
(257.42 0.699569 -3.48528e-08)
(255.656 -0.170954 -3.47953e-08)
(254.53 -0.600814 -3.48171e-08)
(253.913 -0.68808 -3.47869e-08)
(253.672 -0.711088 -3.47945e-08)
(218.38 -2.39077 -1.01359e-08)
(217.83 -3.40165 -1.01176e-08)
(217.745 -4.42395 -1.03052e-08)
(217.563 -5.50718 -1.04025e-08)
(217.727 -6.56647 -1.06313e-08)
(217.839 -7.64772 -1.08239e-08)
(218.199 -8.69261 -1.11096e-08)
(218.562 -9.73712 -1.1386e-08)
(219.151 -10.7426 -1.17392e-08)
(219.824 -11.7527 -1.20995e-08)
(220.729 -12.7416 -1.25348e-08)
(221.792 -13.7443 -1.29922e-08)
(223.117 -14.7412 -1.3533e-08)
(224.685 -15.7624 -1.41156e-08)
(226.586 -16.794 -1.47989e-08)
(228.856 -17.8655 -1.55537e-08)
(231.601 -18.9732 -1.64394e-08)
(234.843 -20.143 -1.7418e-08)
(238.335 -21.3342 -1.84535e-08)
(242.28 -22.5856 -1.9562e-08)
(246.5 -23.8593 -2.07217e-08)
(251.105 -25.1713 -2.19244e-08)
(255.927 -26.4831 -2.31473e-08)
(261.016 -27.7995 -2.43729e-08)
(266.201 -29.0903 -2.55909e-08)
(271.435 -30.3494 -2.67513e-08)
(276.5 -31.536 -2.78462e-08)
(281.877 -32.7975 -2.89287e-08)
(286.003 -33.853 -2.9732e-08)
(291.786 -35.1753 -3.08046e-08)
(295.878 -36.175 -3.14882e-08)
(301.105 -37.3516 -3.23496e-08)
(304.795 -38.2308 -3.285e-08)
(309.211 -39.2078 -3.34652e-08)
(312.469 -39.9356 -3.38021e-08)
(316.088 -40.6617 -3.41936e-08)
(318.649 -41.146 -3.43341e-08)
(321.346 -41.6145 -3.45125e-08)
(323.155 -41.9228 -3.44763e-08)
(324.987 -42.2215 -3.44871e-08)
(326.061 -42.3778 -3.43056e-08)
(327.088 -42.5994 -3.42072e-08)
(327.596 -42.8712 -3.39333e-08)
(327.886 -43.356 -3.37679e-08)
(327.664 -44.1658 -3.34616e-08)
(326.853 -45.5838 -3.32422e-08)
(324.906 -48.0604 -3.29232e-08)
(321.356 -51.8979 -3.26246e-08)
(315.524 -56.9775 -3.22732e-08)
(307.162 -62.2505 -3.18326e-08)
(296.621 -66.1266 -3.14042e-08)
(284.467 -67.1612 -3.07789e-08)
(271.436 -65.6541 -3.11078e-08)
(260.081 -63.7117 -3.05418e-08)
(248.427 -59.3753 -3.07818e-08)
(237.904 -55.8015 -3.03174e-08)
(227.219 -50.1569 -3.05177e-08)
(217.162 -45.7939 -3.01779e-08)
(207.084 -39.635 -3.03682e-08)
(197.995 -34.5527 -3.0059e-08)
(189.819 -27.767 -3.01976e-08)
(183.4 -21.8492 -3.0008e-08)
(179.157 -14.5953 -3.01821e-08)
(177.254 -8.41462 -3.00074e-08)
(176.595 -1.71458 -3.01382e-08)
(176.13 3.37493 -3.0114e-08)
(177.208 10.2514 -3.0077e-08)
(176.89 15.1669 -3.01212e-08)
(178.458 20.9976 -3.01445e-08)
(179.007 25.8185 -3.02251e-08)
(181.385 31.0636 -3.03188e-08)
(183.2 36.0228 -3.04669e-08)
(187.104 41.428 -3.06505e-08)
(191.374 47.1252 -3.08712e-08)
(198.513 53.5573 -3.11412e-08)
(207.437 60.4398 -3.14441e-08)
(219.773 66.9486 -3.17897e-08)
(232.43 70.337 -3.21297e-08)
(244.363 69.0949 -3.24161e-08)
(252.934 65.7133 -3.25692e-08)
(260.126 62.6199 -3.26319e-08)
(265.226 58.8998 -3.27826e-08)
(268.566 55.6924 -3.32973e-08)
(270.583 50.1871 -3.35548e-08)
(271.735 45.2235 -3.36106e-08)
(272.61 39.4472 -3.38273e-08)
(273.04 34.272 -3.36913e-08)
(272.883 28.5952 -3.38524e-08)
(271.969 23.6549 -3.37928e-08)
(270.49 18.6672 -3.39421e-08)
(268.447 14.5368 -3.38808e-08)
(266.144 10.6729 -3.39798e-08)
(263.632 7.64464 -3.39498e-08)
(261.204 5.06235 -3.4005e-08)
(258.896 3.23522 -3.39612e-08)
(256.976 1.89501 -3.39817e-08)
(255.442 1.17732 -3.39399e-08)
(254.444 0.809595 -3.39472e-08)
(253.9 0.740272 -3.39272e-08)
(253.686 0.720368 -3.39294e-08)
(237.351 -1.01993 -1.73489e-08)
(237.223 -2.14016 -1.74706e-08)
(237.796 -3.32668 -1.77967e-08)
(238.32 -4.63353 -1.80576e-08)
(239.456 -5.97147 -1.84982e-08)
(240.62 -7.38474 -1.89056e-08)
(242.318 -8.80158 -1.94688e-08)
(244.102 -10.2526 -2.00225e-08)
(246.352 -11.7011 -2.07077e-08)
(248.732 -13.1877 -2.13953e-08)
(251.532 -14.6959 -2.2189e-08)
(254.492 -16.2532 -2.29875e-08)
(257.811 -17.837 -2.38651e-08)
(261.276 -19.4563 -2.47381e-08)
(265 -21.0811 -2.56555e-08)
(268.784 -22.7057 -2.65432e-08)
(272.652 -24.2948 -2.74269e-08)
(276.451 -25.8437 -2.82518e-08)
(280.438 -27.3629 -2.9105e-08)
(284.346 -28.8284 -2.98967e-08)
(288.32 -30.2405 -3.06846e-08)
(292.178 -31.5864 -3.14042e-08)
(295.998 -32.864 -3.20951e-08)
(299.657 -34.0701 -3.27116e-08)
(303.194 -35.2031 -3.32832e-08)
(306.532 -36.2652 -3.37766e-08)
(309.693 -37.2548 -3.42185e-08)
(313.013 -38.3084 -3.46318e-08)
(314.432 -38.9682 -3.47115e-08)
(317.503 -39.9327 -3.50382e-08)
(319 -40.6043 -3.50508e-08)
(321.397 -41.3657 -3.52362e-08)
(322.618 -41.9437 -3.5151e-08)
(324.493 -42.5525 -3.52249e-08)
(325.484 -43.0419 -3.50629e-08)
(326.907 -43.5119 -3.50459e-08)
(327.643 -43.9 -3.48151e-08)
(328.643 -44.2415 -3.47265e-08)
(329.14 -44.5507 -3.44401e-08)
(329.776 -44.8105 -3.43033e-08)
(330.043 -45.1155 -3.39732e-08)
(330.355 -45.4445 -3.38023e-08)
(330.278 -45.9162 -3.34566e-08)
(330.101 -46.6003 -3.32572e-08)
(329.317 -47.7133 -3.29026e-08)
(327.964 -49.5088 -3.26706e-08)
(325.395 -52.2423 -3.22957e-08)
(321.345 -56.0127 -3.19996e-08)
(315.232 -60.4104 -3.15754e-08)
(307.108 -64.5993 -3.11656e-08)
(297.089 -67.4306 -3.06629e-08)
(285.514 -68.0528 -3.01114e-08)
(273.314 -66.1856 -3.03675e-08)
(262.447 -63.8998 -2.98735e-08)
(251.303 -59.4769 -3.00619e-08)
(241.082 -55.5223 -2.96658e-08)
(230.744 -49.8383 -2.98344e-08)
(220.924 -45.0868 -2.95605e-08)
(211.178 -38.8391 -2.9738e-08)
(202.373 -33.333 -2.94723e-08)
(194.561 -26.3599 -2.9597e-08)
(188.421 -20.1497 -2.94504e-08)
(184.308 -12.9555 -2.96226e-08)
(182.246 -6.74022 -2.94792e-08)
(181.403 -0.235382 -2.95997e-08)
(181.002 4.92907 -2.95983e-08)
(181.619 11.6001 -2.95305e-08)
(181.381 16.5628 -2.95852e-08)
(182.5 22.4551 -2.95744e-08)
(183.138 27.2373 -2.9658e-08)
(185.175 32.5479 -2.97191e-08)
(187.154 37.4159 -2.98741e-08)
(190.904 42.7938 -3.00338e-08)
(195.461 48.3362 -3.02644e-08)
(202.598 54.5004 -3.05161e-08)
(211.553 60.7102 -3.0823e-08)
(222.992 65.9067 -3.11404e-08)
(234.305 67.8767 -3.14539e-08)
(244.774 66.5144 -3.16923e-08)
(252.777 63.8007 -3.18352e-08)
(259.642 60.7031 -3.18939e-08)
(264.421 56.7395 -3.20624e-08)
(267.37 53.3143 -3.26182e-08)
(269.122 47.8473 -3.25878e-08)
(270.098 43.252 -3.30088e-08)
(270.898 37.7109 -3.27479e-08)
(271.244 32.9231 -3.30356e-08)
(271.061 27.5763 -3.29453e-08)
(270.208 23.0284 -3.30125e-08)
(268.832 18.3666 -3.30851e-08)
(266.97 14.5701 -3.3053e-08)
(264.86 10.9693 -3.31254e-08)
(262.582 8.21681 -3.31061e-08)
(260.377 5.83523 -3.31457e-08)
(258.314 4.22167 -3.31132e-08)
(256.6 3.04657 -3.3114e-08)
(255.255 2.44727 -3.30908e-08)
(254.369 2.12521 -3.30839e-08)
(253.886 2.06955 -3.3074e-08)
(253.693 2.05183 -3.30704e-08)
(268.095 -0.223198 -2.6254e-08)
(268.887 -1.59342 -2.65907e-08)
(270.057 -3.10185 -2.69981e-08)
(271.413 -4.76351 -2.74129e-08)
(273.121 -6.49621 -2.78943e-08)
(274.976 -8.31342 -2.83761e-08)
(277.133 -10.1493 -2.89171e-08)
(279.381 -12.0133 -2.94482e-08)
(281.861 -13.8602 -3.00243e-08)
(284.37 -15.7026 -3.05784e-08)
(287.045 -17.5209 -3.11604e-08)
(289.711 -19.338 -3.17083e-08)
(292.493 -21.1363 -3.22681e-08)
(295.231 -22.9271 -3.27833e-08)
(298.033 -24.6919 -3.32958e-08)
(300.758 -26.4351 -3.37559e-08)
(303.498 -28.1382 -3.42016e-08)
(306.14 -29.7992 -3.45927e-08)
(308.761 -31.3964 -3.49633e-08)
(311.244 -32.9249 -3.52728e-08)
(313.67 -34.3717 -3.55566e-08)
(315.93 -35.7327 -3.57773e-08)
(318.103 -37.0019 -3.597e-08)
(320.095 -38.1782 -3.61005e-08)
(321.979 -39.2605 -3.62024e-08)
(323.681 -40.2504 -3.62476e-08)
(325.259 -41.15 -3.62652e-08)
(326.797 -42.0695 -3.62255e-08)
(327.011 -42.5527 -3.60556e-08)
(328.316 -43.2839 -3.59878e-08)
(328.767 -43.8569 -3.57429e-08)
(329.646 -44.3267 -3.56481e-08)
(329.969 -44.8191 -3.5358e-08)
(330.646 -45.195 -3.52355e-08)
(330.881 -45.6448 -3.49171e-08)
(331.433 -45.9862 -3.47699e-08)
(331.589 -46.3981 -3.44322e-08)
(332.008 -46.6975 -3.42664e-08)
(332.078 -47.0672 -3.39124e-08)
(332.343 -47.3545 -3.37282e-08)
(332.26 -47.7476 -3.3371e-08)
(332.277 -48.1706 -3.3169e-08)
(331.874 -48.8187 -3.28103e-08)
(331.355 -49.7335 -3.25896e-08)
(330.16 -51.1371 -3.22251e-08)
(328.385 -53.1813 -3.19725e-08)
(325.364 -56.031 -3.15819e-08)
(321.019 -59.5409 -3.12741e-08)
(314.863 -63.3277 -3.083e-08)
(307.046 -66.7144 -3.04302e-08)
(297.526 -68.854 -2.99054e-08)
(286.489 -69.1641 -2.94096e-08)
(275.047 -66.8608 -2.9604e-08)
(264.64 -64.2935 -2.91672e-08)
(253.98 -59.6653 -2.93106e-08)
(244.061 -55.3763 -2.89707e-08)
(234.041 -49.5432 -2.9112e-08)
(224.451 -44.4373 -2.88951e-08)
(214.999 -38.0171 -2.90631e-08)
(206.454 -32.1189 -2.8834e-08)
(198.935 -24.9273 -2.8947e-08)
(192.979 -18.444 -2.88338e-08)
(188.897 -11.2325 -2.90025e-08)
(186.642 -4.95885 -2.88867e-08)
(185.606 1.45407 -2.89983e-08)
(185.163 6.63189 -2.90141e-08)
(185.494 13.1276 -2.89276e-08)
(185.25 18.1802 -2.89862e-08)
(186.057 24.0662 -2.89541e-08)
(186.696 28.8656 -2.9035e-08)
(188.504 34.2122 -2.90753e-08)
(190.567 39.0195 -2.92339e-08)
(194.232 44.3622 -2.9379e-08)
(198.961 49.7069 -2.96161e-08)
(206.019 55.4744 -2.98568e-08)
(214.783 60.7952 -3.01649e-08)
(225.356 64.6673 -3.04569e-08)
(235.624 65.6198 -3.07509e-08)
(245.023 64.3445 -3.09642e-08)
(252.602 61.838 -3.11033e-08)
(259.063 58.5645 -3.11612e-08)
(263.509 54.3918 -3.1323e-08)
(266.148 50.8362 -3.18391e-08)
(267.724 45.5752 -3.16808e-08)
(268.565 41.2758 -3.23881e-08)
(269.303 36.0339 -3.17816e-08)
(269.563 31.5861 -3.2331e-08)
(269.388 26.5825 -3.19649e-08)
(268.574 22.392 -3.23303e-08)
(267.319 18.0625 -3.21452e-08)
(265.606 14.5821 -3.23155e-08)
(263.692 11.263 -3.22458e-08)
(261.622 8.76869 -3.23136e-08)
(259.639 6.61221 -3.2277e-08)
(257.794 5.19043 -3.22994e-08)
(256.275 4.15091 -3.2259e-08)
(255.088 3.64014 -3.22623e-08)
(254.301 3.35388 -3.22468e-08)
(253.869 3.30822 -3.22401e-08)
(253.696 3.29226 -3.2237e-08)
(296.217 0.0228971 -3.31229e-08)
(297.11 -1.45632 -3.34412e-08)
(297.951 -3.1102 -3.37214e-08)
(299.162 -4.93856 -3.40456e-08)
(300.369 -6.86511 -3.43398e-08)
(301.848 -8.89006 -3.46594e-08)
(303.333 -10.9469 -3.49546e-08)
(304.985 -13.0325 -3.52575e-08)
(306.622 -15.099 -3.55375e-08)
(308.328 -17.1503 -3.581e-08)
(309.992 -19.1591 -3.60587e-08)
(311.662 -21.1452 -3.62879e-08)
(313.297 -23.0985 -3.64924e-08)
(314.91 -25.0273 -3.66693e-08)
(316.494 -26.9163 -3.68205e-08)
(318.035 -28.7661 -3.69382e-08)
(319.544 -30.5597 -3.70317e-08)
(320.992 -32.295 -3.70879e-08)
(322.402 -33.9558 -3.71199e-08)
(323.734 -35.5407 -3.71148e-08)
(325.02 -37.0367 -3.70869e-08)
(326.215 -38.4438 -3.70231e-08)
(327.36 -39.7524 -3.69383e-08)
(328.405 -40.9661 -3.68202e-08)
(329.395 -42.0784 -3.66849e-08)
(330.285 -43.0964 -3.65172e-08)
(331.113 -44.0164 -3.63368e-08)
(331.87 -44.9472 -3.61023e-08)
(331.881 -45.3687 -3.59004e-08)
(332.532 -46.0987 -3.56659e-08)
(332.641 -46.5741 -3.53738e-08)
(333.071 -47.0423 -3.51632e-08)
(333.113 -47.4282 -3.48469e-08)
(333.434 -47.7893 -3.46315e-08)
(333.435 -48.1324 -3.43084e-08)
(333.696 -48.4694 -3.40852e-08)