/*--------------------------------*- C++ -*----------------------------------*\
  =========                 |
  \\      /  F ield         | OpenFOAM: The Open Source CFD Toolbox
   \\    /   O peration     | Website:  https://openfoam.org
    \\  /    A nd           | Version:  7
     \\/     M anipulation  |
\*---------------------------------------------------------------------------*/
FoamFile
{
    version     2.0;
    format      ascii;
    class       scalarField;
    location    "0.12/lagrangian/reactingCloud1";
    object      age;
}
// * * * * * * * * * * * * * * * * * * * * * * * * * * * * * * * * * * * * * //


843
(
0.006993
0.006345
0.006417
0.006273
0.006297
0.006441
0.006537
0.006513
0.006489
0.006465
0.006585
0.006249
0.006057
0.006657
0.006225
0.006081
0.006105
0.007017
0.005985
0.006153
0.006369
0.005937
0.006009
0.006129
0.005793
0.006321
0.005913
0.005817
0.005841
0.005769
0.006033
0.005601
0.005865
0.005745
0.005889
0.005577
0.005625
0.005457
0.005673
0.005553
0.006177
0.005505
0.005385
0.005529
0.005433
0.005649
0.005241
0.005289
0.005361
0.005217
0.005265
0.005169
0.005313
0.005121
0.00516862
0.005409
0.005193
0.004977
0.005073
0.005097
0.005337
0.005697
0.004905
0.004881
0.005145
0.005025
0.004857
0.001569
0.001545
0.001521
0.001497
0.001473
0.001449
0.001425
0.001401
0.001377
0.001353
0.001329
0.001305
0.001281
0.00128062
0.001257
0.001233
0.001209
0.001185
0.001161
0.001137
0.001113
0.001089
0.001065
0.001041
0.001017
0.000993
0.000969
0.000945
0.000921
0.000897
0.000873
0.000849
0.000825
0.000801
0.000777
0.000753
0.000729
0.000705
0.000681
0.000657
0.000633
0.000609
0.000585
0.000561
0.000537
0.000513
0.000489
0.000465
0.000441
0.000417
0.000393
0.000369
0.000345
0.000321
0.000297
0.000273
0.000249
0.000225
0.000201
0.000177
0.000153
0.000129
0.000105
8.1e-05
5.7e-05
3.3e-05
9e-06
0.005049
0.005961
0.003321
0.003921
0.002937
0.002841
0.002793
0.002865
0.002745
0.002769
0.002817
0.002721
0.002649
0.002577
0.002625
0.002553
0.002601
0.002529
0.002457
0.002505
0.002481
0.002673
0.002409
0.002433
0.002385
0.002361
0.002337
0.002697
0.002313
0.003945
0.002265
0.002289
0.002241
0.002217
0.002193
0.002145
0.002097
0.002121
0.002073
0.002025
0.002049
0.002001
0.001953
0.001977
0.002169
0.001929
0.001905
0.001881
0.001833
0.001809
0.001857
0.001785
0.001737
0.001761
0.001689
0.001713
0.001665
0.001641
0.001617
0.001593
0.006201
0.004017
0.003969
0.003993
0.003849
0.004209
0.003873
0.003777
0.003753
0.003801
0.003825
0.003705
0.003681
0.003729
0.003609
0.00365662
0.004161
0.003513
0.003657
0.003441
0.003633
0.003393
0.003489
0.003369
0.003537
0.003297
0.003561
0.003345
0.003225
0.003177
0.003129
0.003897
0.003201
0.003465
0.003273
0.003153
0.003249
0.002961
0.003081
0.003417
0.003057
0.002889
0.002913
0.003585
0.003105
0.002985
0.003033
0.003009
0.005721
0.005481
0.005001
0.004929
0.004953
0.004713
0.004737
0.004569
0.004617
0.004545
0.004641
0.004833
0.004665
0.004761
0.004689
0.004425
0.004449
0.004809
0.004353
0.004401
0.004521
0.004329
0.004377
0.004593
0.004281
0.004497
0.004473
0.004305
0.004233
0.004113
0.004185
0.004257
0.004137
0.004785
0.004041
0.004065
0.004089
0.0144806
0.018465
0.013953
0.014313
0.015705
0.014025
0.015225
0.014241
0.013809
0.013521
0.013425
0.014505
0.018825
0.0130886
0.012897
0.013401
0.012561
0.012369
0.012225
0.012657
0.012057
0.012081
0.012321
0.012753
0.012609
0.012273
0.012153
0.012009
0.011985
0.012921
0.011961
0.012873
0.011817
0.011769
0.011889
0.012129
0.012105
0.011673
0.012033
0.011649
0.012345
0.011553
0.011913
0.011577
0.011745
0.011481
0.011385
0.011865
0.0117926
0.011601
0.011505
0.012417
0.011193
0.011409
0.011937
0.011841
0.011217
0.013473
0.011145
0.011433
0.011169
0.011625
0.011529
0.011001
0.011313
0.010905
0.010929
0.011241
0.011721
0.011361
0.011121
0.011289
0.010881
0.011265
0.011073
0.011025
0.011457
0.010641
0.010977
0.010617
0.011049
0.010809
0.010737
0.015609
0.010689
0.010833
0.0105206
0.010377
0.011097
0.010425
0.010713
0.010521
0.010305
0.010209
0.010785
0.010185
0.010761
0.010857
0.012393
0.010281
0.010497
0.010113
0.010065
0.010545
0.010329
0.010473
0.010257
0.009801
0.010953
0.010233
0.009849
0.009705
0.010041
0.010017
0.010401
0.009993
0.010449
0.009585
0.011337
0.009489
0.010161
0.009681
0.009465
0.010089
0.009417
0.009513
0.009753
0.010353
0.009921
0.009825
0.009969
0.012249
0.009609
0.011697
0.009321
0.009657
0.009345
0.010569
0.009873
0.009945
0.009441
0.010665
0.009273
0.009297
0.009153
0.009393
0.009633
0.009777
0.009729
0.009129
0.009033
0.009177
0.009081
0.009369
0.009057
0.008961
0.008937
0.008841
0.008889
0.008865
0.008985
0.009201
0.008913
0.008745
0.008721
0.008769
0.008697
0.008577
0.014145
0.009009
0.008553
0.009561
0.009249
0.008817
0.008481
0.008433
0.008409
0.008361
0.008673
0.008385
0.008337
0.008625
0.008265
0.008289
0.008241
0.009225
0.008601
0.008121
0.008169
0.008457
0.008097
0.008505
0.008793
0.010593
0.008193
0.007977
0.008313
0.008145
0.008001
0.007929
0.007881
0.007905
0.009537
0.008649
0.007761
0.007809
0.008073
0.007641
0.007737
0.007713
0.007833
0.007521
0.008049
0.007617
0.007665
0.007425
0.008529
0.008025
0.007545
0.00788062
0.007497
0.007377
0.007281
0.007569
0.011793
0.007257
0.007473
0.007857
0.007449
0.007305
0.007329
0.007953
0.007161
0.009105
0.007209
0.007089
0.007065
0.007353
0.006969
0.007593
0.007113
0.007689
0.006921
0.007041
0.006873
0.010137
0.006897
0.006849
0.006945
0.006801
0.007185
0.007401
0.006825
0.006609
0.006681
0.009897
0.006561
0.007785
0.007137
0.008217
0.006753
0.006705
0.007233
0.006729
0.006393
0.006777
0.006633
0.014433
0.015513
0.019857
0.019617
0.019257
0.019281
0.018921
0.019833
0.018801
0.018993
0.018897
0.019377
0.019161
0.018945
0.019113
0.018489
0.019929
0.019473
0.018729
0.019641
0.018657
0.018537
0.018441
0.018345
0.018321
0.018393
0.018249
0.018201
0.018369
0.018057
0.018297
0.018009
0.018153
0.018225
0.018609
0.018681
0.018081
0.018273
0.017793
0.017985
0.019329
0.018033
0.018777
0.018177
0.018585
0.017673
0.017697
0.017841
0.018129
0.017961
0.017721
0.019305
0.017889
0.018753
0.018417
0.017865
0.017505
0.017193
0.017481
0.017553
0.017745
0.017361
0.017817
0.017937
0.018105
0.017217
0.017049
0.017649
0.017577
0.017121
0.017073
0.019545
0.017265
0.0177206
0.017145
0.017169
0.019665
0.017433
0.018705
0.018561
0.016809
0.017241
0.016977
0.016785
0.016929
0.016737
0.016953
0.016857
0.016905
0.019521
0.016521
0.016569
0.017457
0.016353
0.017529
0.016281
0.016545
0.016449
0.016473
0.016641
0.016377
0.016665
0.016881
0.016713
0.016017
0.016305
0.016137
0.016209
0.016257
0.017601
0.016161
0.016761
0.016185
0.017097
0.016425
0.016593
0.015873
0.015993
0.016089
0.016689
0.016617
0.015753
0.015777
0.017001
0.015945
0.017625
0.016233
0.015537
0.017409
0.016833
0.015489
0.015897
0.015585
0.017289
0.015561
0.015321
0.015729
0.016065
0.016113
0.015417
0.015393
0.015297
0.017337
0.015657
0.017313
0.015249
0.017913
0.017769
0.015921
0.016401
0.015009
0.015129
0.015465
0.015681
0.015081
0.0151046
0.016041
0.014841
0.014721
0.015969
0.015825
0.015633
0.014793
0.015273
0.014985
0.014769
0.014817
0.015801
0.014697
0.017025
0.014457
0.014745
0.015153
0.014481
0.014601
0.018513
0.014529
0.015177
0.015201
0.014361
0.014625
0.015105
0.014193
0.014409
0.016497
0.014097
0.014121
0.014337
0.015033
0.013881
0.013905
0.014001
0.013833
0.014073
0.014577
0.014169
0.014865
0.013713
0.019761
0.013737
0.013641
0.013545
0.013569
0.013977
0.014913
0.014385
0.013593
0.015345
0.013377
0.015441
0.013353
0.013665
0.015849
0.014049
0.013617
0.013449
0.013761
0.013113
0.016329
0.014889
0.013281
0.013233
0.013689
0.013257
0.013089
0.014553
0.013041
0.014265
0.013209
0.013185
0.012945
0.013161
0.014961
0.014289
0.013857
0.013065
0.013329
0.012849
0.012969
0.017385
0.013497
0.013017
0.012705
0.014649
0.012633
0.012729
0.014937
0.012801
0.013929
0.013785
0.015057
0.013305
0.012993
0.014673
0.013137
0.012489
0.012585
0.014217
0.012465
0.012825
0.012297
0.012513
0.012441
0.012201
0.012777
0.012537
0.012177
0.015369
0.012681
0.019977
0.019881
0.019905
0.019689
0.019953
0.019569
0.019809
0.019713
0.019593
0.019785
0.019449
0.019497
0.019233
0.019353
0.019137
0.019185
0.019401
0.019209
0.018633
0.019065
0.018969
0.019737
0.019017
0.019089
0.019425
0.018873
0.019041
0.018849
)


// ************************************************************************* //
