/*--------------------------------*- C++ -*----------------------------------*\
  =========                 |
  \\      /  F ield         | OpenFOAM: The Open Source CFD Toolbox
   \\    /   O peration     | Website:  https://openfoam.org
    \\  /    A nd           | Version:  7
     \\/     M anipulation  |
\*---------------------------------------------------------------------------*/
FoamFile
{
    version     2.0;
    format      ascii;
    class       labelField;
    location    "0.12/lagrangian/reactingCloud1";
    object      cellId;
}
// * * * * * * * * * * * * * * * * * * * * * * * * * * * * * * * * * * * * * //


843
(
91
18
52
16
18
53
86
86
86
51
156
112
184
298
188
225
294
367
289
254
329
291
293
365
321
366
360
360
360
431
506
462
466
468
502
536
572
565
574
572
574
605
602
642
640
643
738
742
778
774
777
807
813
801
865
895
921
910
946
1002
1004
1002
997
1024
1031
1055
1052
1028
1025
840
986
970
941
945
921
911
903
881
660
845
852
829
805
790
788
774
753
734
710
702
684
460
644
630
606
596
589
220
541
532
400
490
493
465
443
422
360
415
395
372
350
322
330
180
293
275
252
120
222
180
182
182
163
143
124
123
100
88
71
62
45
32
28
11
695
955
1036
755
957
978
978
897
1047
1022
755
980
940
973
776
880
798
881
865
736
819
817
844
821
824
804
738
656
762
455
765
761
743
746
702
710
663
617
642
649
621
626
607
601
495
584
516
518
527
527
497
479
469
457
443
461
426
408
408
388
881
1030
1034
969
938
803
869
833
792
747
583
626
586
564
547
504
441
510
423
470
362
409
384
389
322
372
262
285
312
293
275
202
248
201
203
166
143
156
126
101
84
94
69
63
42
44
23
22
439
549
466
461
492
512
652
645
676
643
704
708
706
789
787
810
838
898
889
892
950
946
975
1033
1027
400
360
362
364
307
263
261
265
238
253
226
183
4
47
0
15
31
14
30
17
29
14
82
247
196
243
237
194
149
151
191
141
144
190
190
140
235
141
191
142
145
233
232
406
185
186
317
317
273
229
269
267
272
268
268
311
395
353
353
393
393
351
392
386
349
389
384
433
390
389
391
474
432
433
516
471
515
465
470
467
513
558
511
554
464
509
509
593
554
548
549
548
595
592
546
635
631
587
633
626
630
630
671
713
671
709
757
711
755
754
925
750
754
751
787
831
834
835
830
830
836
834
830
867
917
960
916
913
916
910
904
907
953
949
951
984
949
949
952
59
6
9
9
0
23
0
5
22
22
140
97
38
40
19
21
36
36
168
34
31
59
36
51
56
169
89
58
88
89
86
89
88
126
195
195
159
157
193
194
189
340
265
190
227
262
262
224
259
260
294
296
295
294
324
328
329
328
509
400
358
362
397
361
398
474
513
399
391
396
432
395
423
424
500
495
611
496
499
495
529
568
565
601
598
634
633
633
623
694
725
659
661
689
689
686
682
720
686
720
750
713
717
750
814
740
779
808
775
775
807
801
808
836
833
833
864
831
898
863
863
894
892
894
925
919
945
949
983
944
980
1009
1039
1033
1056
1056
1056
1052
1056
1057
1024
1013
112
17
23
21
20
44
16
82
17
109
48
15
76
15
84
136
44
201
111
75
107
73
75
106
73
73
160
103
195
163
131
189
134
189
162
283
164
190
228
164
246
252
281
189
189
217
217
250
221
228
217
218
250
190
334
217
307
311
304
248
277
366
367
362
245
306
273
245
307
251
275
335
365
361
311
329
411
309
359
361
362
358
451
357
448
387
421
368
357
418
418
386
476
385
413
445
413
415
475
445
441
474
441
475
506
441
503
420
531
500
469
451
469
469
499
563
529
559
589
498
499
483
558
477
525
560
447
533
525
587
617
540
556
553
582
553
553
586
586
585
567
610
593
644
603
562
640
568
609
641
671
638
637
667
592
670
666
668
729
696
668
698
701
700
665
697
698
693
695
728
694
726
725
718
754
786
721
753
750
781
749
751
714
749
811
778
809
807
838
840
835
835
837
833
867
862
793
861
865
864
865
861
861
895
894
789
889
926
891
917
820
951
954
950
981
946
848
871
945
981
982
974
978
849
977
870
1008
1007
1005
1007
1003
1006
1021
1009
1019
1014
1019
904
1020
1019
1012
899
1024
1027
901
1028
1010
928
928
1022
1025
928
1041
1038
1034
958
1044
1048
1046
1042
1047
1045
1059
1059
1053
985
1059
900
922
944
944
948
944
945
949
967
968
966
966
966
989
988
1010
1013
1010
1011
1032
1037
1032
1035
1032
1032
1033
1034
1032
)


// ************************************************************************* //
