/*--------------------------------*- C++ -*----------------------------------*\
  =========                 |
  \\      /  F ield         | OpenFOAM: The Open Source CFD Toolbox
   \\    /   O peration     | Website:  https://openfoam.org
    \\  /    A nd           | Version:  7
     \\/     M anipulation  |
\*---------------------------------------------------------------------------*/
FoamFile
{
    version     2.0;
    format      ascii;
    class       vectorField;
    location    "0.12/lagrangian/reactingCloud1";
    object      coordinates;
}
// * * * * * * * * * * * * * * * * * * * * * * * * * * * * * * * * * * * * * //


843
(
(1.7474 0.104495 1.36371e-07)
(1.81772 0.0444196 2.72199e-14)
(1.79366 0.0654042 3.1676e-07)
(1.79822 0.0319815 -1.35749e-13)
(1.7964 0.0443626 -1.48116e-13)
(1.78947 0.0709651 1.12118e-07)
(1.76717 0.0767568 -5.4498e-07)
(1.76591 0.0777666 1.81566e-07)
(1.75697 0.0784846 -1.3497e-07)
(1.77167 0.0511348 2.00246e-07)
(1.69851 0.0949571 1.16755e-06)
(1.73538 0.0326131 1.14208e-07)
(1.68737 0.0458356 -1.42756e-12)
(1.60543 0.104075 -2.06938e-07)
(1.67028 0.0776245 -6.2003e-08)
(1.64434 0.0879439 9.71281e-09)
(1.6117 0.0840518 3.62702e-07)
(1.57139 0.0992767 -1.0669e-06)
(1.6157 0.0471177 -8.49722e-08)
(1.62254 0.0491824 1.83284e-07)
(1.58698 0.0813262 6.75599e-08)
(1.60459 0.0599269 -1.19401e-07)
(1.59674 0.0751876 2.51807e-09)
(1.56986 0.08956 8.2134e-07)
(1.59153 0.027635 7.44776e-15)
(1.55501 0.0930092 -1.92307e-07)
(1.57034 0.0545078 4.74035e-08)
(1.56877 0.0539983 -1.12339e-12)
(1.56337 0.0529214 -1.038e-07)
(1.52108 0.060309 3.99457e-08)
(1.48679 0.0944719 -4.3172e-07)
(1.50318 0.030825 3.53904e-14)
(1.48921 0.0627627 -1.83448e-07)
(1.49053 0.0710866 -1.53813e-08)
(1.48741 0.0645377 1.5423e-07)
(1.45548 0.0579115 1.23728e-07)
(1.44692 0.0677141 -1.019e-07)
(1.44726 0.0184225 4.69815e-14)
(1.43384 0.0787932 -2.12002e-07)
(1.43439 0.0638971 1.53452e-07)
(1.42798 0.0828062 -1.54308e-07)
(1.41957 0.0516207 1.58335e-07)
(1.40919 0.0292652 7.65524e-14)
(1.40246 0.0690069 -5.15334e-08)
(1.40052 0.0535127 7.88207e-08)
(1.39168 0.0719328 3.93481e-07)
(1.3496 0.0257341 5.71909e-14)
(1.34407 0.0494683 -6.93446e-12)
(1.33439 0.0684245 -3.33244e-08)
(1.3303 0.036644 -7.30175e-14)
(1.32333 0.0572759 1.90653e-07)
(1.31338 0.0326895 -1.56838e-12)
(1.30402 0.0749065 1.09775e-09)
(1.3049 0.00271243 -1.01592e-14)
(1.27989 0.0561114 2.06781e-09)
(1.252 0.0810769 1.32317e-08)
(1.24959 0.0703218 -1.12787e-07)
(1.24235 0.00730405 -6.0509e-13)
(1.23412 0.0572961 -3.65115e-12)
(1.20469 0.0715727 5.80344e-08)
(1.19753 0.0860057 -4.79099e-09)
(1.19829 0.0688827 3.01304e-07)
(1.19184 0.0381099 -1.42182e-13)
(1.18614 0.0336048 -5.63651e-12)
(1.17975 0.0822509 1.66299e-08)
(1.17151 0.0636123 -1.55229e-07)
(1.16392 0.0438827 -2.8754e-13)
(0.425057 0.091531 2.58391e-11)
(0.422798 0.112757 -3.65983e-11)
(0.389486 0.13731 8.5728e-07)
(0.416049 0.0980092 9.04272e-11)
(0.411687 0.0677072 2.72047e-11)
(0.409319 0.137474 -4.0717e-07)
(0.40807 0.109496 5.27739e-11)
(0.404277 0.134079 2.7376e-11)
(0.39852 0.0640647 9.82373e-12)
(0.39872 0.122463 1.7829e-11)
(0.395101 0.132351 -9.25711e-13)
(0.345902 0.130044 -7.4015e-07)
(0.38769 0.103113 -3.83727e-11)
(0.384193 0.0510271 -1.84644e-12)
(0.381883 0.0761376 -3.08053e-11)
(0.380181 0.0988976 -6.92493e-11)
(0.374269 0.0662275 -2.94589e-11)
(0.37172 0.0789349 -6.60022e-11)
(0.366929 0.0407894 -2.12193e-11)
(0.362686 0.0443367 -4.70158e-12)
(0.359063 0.0361739 -5.46932e-12)
(0.35688 0.0659934 -4.77077e-12)
(0.356841 0.117723 -1.47564e-11)
(0.351064 0.106299 -1.57133e-10)
(0.301797 0.126958 3.87264e-09)
(0.343789 0.100124 -4.42878e-11)
(0.338036 0.0651944 -4.7792e-11)
(0.33475 0.0884236 -3.77028e-11)
(0.328738 0.025864 -4.63329e-12)
(0.325889 0.0698945 -1.06204e-12)
(0.241268 0.128773 -1.02989e-08)
(0.318904 0.122106 -6.6055e-11)
(0.313689 0.0472128 -2.21525e-11)
(0.284103 0.126947 9.42393e-07)
(0.306304 0.0613094 7.67813e-12)
(0.302816 0.043797 -9.34196e-13)
(0.299914 0.091739 -4.22916e-11)
(0.295884 0.104739 -6.87895e-11)
(0.291484 0.114953 -5.59963e-11)
(0.276333 0.125001 2.11204e-09)
(0.283188 0.0288679 1.84115e-12)
(0.278433 0.0315526 -4.85996e-12)
(0.275256 0.0458026 -2.5352e-11)
(0.270887 0.060814 -8.0473e-13)
(0.268022 0.110464 -4.17055e-12)
(0.263841 0.0594859 1.49281e-12)
(0.228794 0.127775 -2.00184e-14)
(0.255175 0.0412249 -4.13376e-12)
(0.251137 0.028266 6.26105e-13)
(0.247408 0.0513637 -6.68657e-13)
(0.211985 0.128507 1.27808e-14)
(0.24009 0.112504 4.11707e-12)
(0.227783 0.125652 -1.12103e-11)
(0.231222 0.113919 4.12404e-12)
(0.228289 0.113325 2.20765e-11)
(0.224309 0.106607 5.1215e-12)
(0.219949 0.105349 -1.00581e-12)
(0.2159 0.0988883 1.1485e-11)
(0.21191 0.107258 1.66365e-11)
(0.207984 0.123437 7.28062e-13)
(0.204262 0.0748569 4.72316e-12)
(0.199484 0.0565218 2.03342e-12)
(0.195858 0.113884 6.99769e-12)
(0.192201 0.0933614 1.63526e-12)
(0.188467 0.0467717 2.03939e-12)
(0.18373 0.0767325 1.15765e-12)
(0.180454 0.0553003 -1.76703e-14)
(0.497672 0.162255 2.20565e-07)
(0.549784 0.154669 1.19998e-07)
(0.567674 0.143694 5.67424e-08)
(0.507319 0.159385 1.02815e-08)
(0.55108 0.137216 -3.66358e-08)
(0.553721 0.130116 1.34668e-10)
(0.552795 0.124273 4.9378e-11)
(0.538516 0.136754 1.97905e-07)
(0.566489 0.0548964 -1.00541e-12)
(0.561799 0.0944938 1.62307e-11)
(0.509362 0.156984 8.74832e-09)
(0.551961 0.108884 5.31932e-12)
(0.544057 0.108955 8.87387e-11)
(0.547833 0.0112013 -2.64144e-12)
(0.512506 0.146748 -7.6673e-08)
(0.53294 0.112931 2.80249e-11)
(0.516369 0.133285 -1.32302e-07)
(0.532178 0.105982 6.15244e-13)
(0.528889 0.0766616 8.01063e-13)
(0.505164 0.154232 -1.03475e-07)
(0.521043 0.125398 3.90259e-12)
(0.518996 0.137416 4.05091e-07)
(0.522968 0.081734 2.30712e-11)
(0.521201 0.108347 1.29337e-11)
(0.520332 0.0802903 7.10802e-11)
(0.516772 0.0848959 6.14288e-12)
(0.504143 0.131388 1.20494e-10)
(0.485276 0.15048 -2.28941e-07)
(0.509235 0.101894 2.15261e-11)
(0.446123 0.160671 -1.819e-07)
(0.507577 0.0733856 7.89817e-11)
(0.505607 0.109324 4.79016e-11)
(0.502723 0.0944708 5.63179e-12)
(0.502064 0.0716336 4.31013e-11)
(0.496695 0.0995318 7.86907e-12)
(0.495182 0.0405491 2.01535e-11)
(0.486766 0.0921844 7.69502e-11)
(0.479101 0.140744 -1.36114e-09)
(0.483148 0.105902 7.05389e-11)
(0.480347 0.0414798 3.64987e-11)
(0.479727 0.11159 3.28252e-11)
(0.47666 0.0732543 4.5675e-11)
(0.471693 0.0578514 2.33611e-11)
(0.472321 0.10972 1.68064e-11)
(0.453407 0.155416 -4.34242e-07)
(0.467749 0.0861744 -5.32803e-12)
(0.456282 0.147462 3.60818e-07)
(0.45802 0.134757 1.69236e-11)
(0.457354 0.0582476 3.73235e-11)
(0.454544 0.0621049 -3.7157e-12)
(0.453324 0.141326 7.05209e-11)
(0.449379 0.1291 3.00459e-10)
(0.445049 0.0447474 -5.79547e-12)
(0.445189 0.140124 -1.37354e-07)
(0.439706 0.0883802 8.3945e-11)
(0.442858 0.106069 -2.6812e-11)
(0.436222 0.0676274 -2.94168e-12)
(0.433326 0.0524219 -1.27802e-11)
(0.430087 0.0533406 -1.21008e-12)
(0.427006 0.0481553 2.38177e-11)
(0.774809 0.0969477 -3.39558e-07)
(0.814725 0.0503986 -8.61642e-11)
(0.817111 0.0278692 -4.79287e-11)
(0.800074 0.0552592 7.62672e-12)
(0.784086 0.00798969 -4.99121e-12)
(0.752589 0.0856484 1.95807e-07)
(0.767429 0.0509897 -2.05616e-10)
(0.755323 0.030401 -4.07398e-11)
(0.745456 0.0367947 -6.2124e-11)
(0.733025 0.065066 5.3353e-11)
(0.696803 0.0950515 -8.56016e-08)
(0.703873 0.0749478 1.3856e-10)
(0.697939 0.0766389 6.87336e-11)
(0.693668 0.0883639 7.20783e-11)
(0.689224 0.071183 1.25658e-11)
(0.678551 0.0918217 5.02088e-11)
(0.663322 0.114721 2.25923e-08)
(0.680023 0.0573667 1.55517e-11)
(0.660322 0.10585 2.48582e-10)
(0.666951 0.0575067 1.14881e-11)
(0.645272 0.114084 1.14687e-09)
(0.655013 0.0677514 3.08583e-11)
(0.64997 0.0979279 6.18934e-12)
(0.649791 0.0691716 0)
(0.637219 0.113448 3.51689e-08)
(0.645685 0.0508316 4.91254e-11)
(0.626279 0.120325 6.60123e-08)
(0.630015 0.0994831 1.40597e-10)
(0.634147 0.0501962 4.95389e-14)
(0.627699 0.0445809 -5.19737e-13)
(0.622706 0.0290695 -1.15797e-12)
(0.614916 0.121828 -4.25431e-08)
(0.620195 0.0799876 2.20983e-11)
(0.611426 0.128369 -2.88607e-08)
(0.612084 0.111795 1.59957e-10)
(0.605969 0.0988334 1.29209e-11)
(0.600165 0.121585 2.72259e-10)
(0.598541 0.0246478 7.49373e-14)
(0.596657 0.100465 8.3638e-11)
(0.589951 0.135548 -1.30884e-07)
(0.58824 0.111309 5.32431e-11)
(0.58685 0.041386 -5.7124e-13)
(0.583724 0.077591 -8.90035e-12)
(0.582642 0.121096 7.01983e-08)
(0.579855 0.13025 3.42538e-08)
(0.576987 0.116814 -4.85035e-11)
(0.573746 0.124106 8.58825e-09)
(0.573628 0.131877 -5.39914e-07)
(1.15638 0.0888582 -9.76391e-08)
(1.10345 0.0959176 -1.42201e-07)
(1.14003 0.0881326 6.74608e-08)
(1.13987 0.0560111 -3.43116e-07)
(1.12327 0.0799923 -4.25653e-07)
(1.11189 0.0355945 -1.23883e-13)
(1.05808 0.0671829 -4.9471e-08)
(1.0566 0.0256036 4.28836e-12)
(1.04769 0.0521255 5.28545e-12)
(1.05287 0.0138505 5.08633e-14)
(1.03669 0.058178 -1.01196e-07)
(1.02964 0.0841157 1.96288e-07)
(1.0352 0.0714919 6.81259e-07)
(0.999446 0.0804987 -6.48059e-07)
(1.0017 0.067419 -5.67013e-07)
(0.985307 0.0389952 7.96527e-13)
(0.982455 0.0487631 5.58942e-12)
(0.964018 0.0841915 -4.58072e-07)
(0.9629 0.030888 1.21463e-12)
(0.961044 0.0503773 2.23713e-11)
(0.939981 0.0750874 1.66852e-07)
(0.937837 0.0444318 5.75298e-12)
(0.928497 0.0609607 1.29298e-07)
(0.915525 0.0852235 7.88337e-09)
(0.916425 0.0472463 -7.05836e-12)
(0.903858 0.0796438 -2.24929e-08)
(0.88771 0.0793532 -2.03116e-07)
(0.887841 0.0697368 -1.20548e-07)
(0.887292 0.053593 3.22042e-11)
(0.866021 0.034944 3.54213e-11)
(0.857061 0.0610998 3.75573e-11)
(0.85626 0.0703016 -8.17962e-08)
(0.856093 0.0503276 -2.63335e-11)
(0.848796 0.0901119 9.83199e-08)
(0.851245 0.00591088 3.28867e-12)
(0.843381 0.0392596 -1.71347e-11)
(0.827517 0.0579862 -5.17019e-11)
(4.716 0.12751 1.60354e-07)
(4.5 0.11362 5.09741e-07)
(4.68772 0.100225 1.64716e-08)
(4.62558 0.0960553 -2.26843e-09)
(4.55254 0.107945 5.92725e-08)
(4.61297 0.0880406 4.60045e-07)
(4.54963 0.0952313 1.93227e-07)
(4.60555 0.113558 5.5846e-08)
(4.5787 0.0901477 -9.28741e-08)
(4.61671 0.0891161 2.46921e-08)
(4.41906 0.135105 -1.10904e-07)
(4.20886 0.163862 -1.26167e-07)
(4.2413 0.116969 1.03804e-07)
(4.1998 0.146019 4.88256e-07)
(4.20393 0.112237 3.26113e-07)
(4.27186 0.0977763 -9.61197e-08)
(4.33793 0.0711308 5.64434e-07)
(4.34361 0.0944492 4.17376e-08)
(4.2688 0.0777187 2.7399e-07)
(4.31641 0.00627694 -5.71565e-07)
(4.3387 0.031549 3.52558e-09)
(4.26418 0.0651792 2.10664e-07)
(4.26496 0.0618849 9.02856e-08)
(4.30742 2.8411e-11 1.0186e-13)
(4.19608 0.090026 -1.52027e-08)
(4.32854 0.0118071 9.65808e-08)
(4.24567 0.0700044 8.38016e-08)
(4.3141 0.0139454 7.96624e-08)
(4.31199 0.0358138 -8.71443e-09)
(4.20434 0.0709198 4.86749e-08)
(4.21337 0.0619007 -2.14106e-07)
(3.98261 0.155604 -4.08552e-07)
(4.24758 0.0250303 9.78406e-08)
(4.23238 0.0284586 1.0164e-07)
(4.1031 0.110965 -4.30393e-07)
(4.05749 0.105709 4.15482e-07)
(4.13142 0.0758421 1.80572e-08)
(4.17087 0.0417685 1.23717e-07)
(4.12752 0.0416055 2.76664e-07)
(4.16452 0.0219654 -3.38209e-08)
(4.10892 0.0664789 8.1498e-07)
(4.15342 0.031474 -6.57903e-08)
(4.11235 0.0292342 1.34472e-08)
(4.08432 0.0533854 -6.9536e-07)
(3.97527 0.0937712 -2.21395e-07)
(3.98778 0.0718424 -3.72529e-07)
(3.99751 0.0728511 -8.57731e-07)
(3.94914 0.0677255 6.24269e-07)
(3.96598 0.0700696 -1.23e-08)
(3.99359 0.0498525 -6.0489e-08)
(3.957 0.0656036 1.63045e-07)
(3.96683 0.016846 2.40022e-07)
(3.99069 0.0340372 -2.51091e-07)
(3.94155 0.0409099 7.3395e-08)
(3.96487 0.00203091 2.77848e-07)
(3.89645 0.0756578 1.1643e-07)
(3.95609 0.0465146 1.22977e-07)
(3.92964 0.0362724 7.18713e-07)
(3.93755 0.0507705 -2.03945e-07)
(3.86292 0.0822581 -6.77308e-08)
(3.90098 0.0664374 3.77644e-08)
(3.89483 0.0705785 -1.84792e-08)
(3.78315 0.0951365 1.05267e-06)
(3.86159 0.0524537 1.50847e-07)
(3.79945 0.090464 -3.97731e-08)
(3.8604 0.00970216 -1.74029e-07)
(3.8575 0.0409568 -1.47812e-07)
(3.84368 0.022916 -1.68307e-07)
(3.7606 0.0723495 1.08057e-07)
(3.75591 0.109133 4.16445e-07)
(3.78842 0.0553867 -1.69738e-08)
(3.75514 0.0798678 -5.1907e-07)
(3.81346 4.33535e-11 1.16935e-13)
(3.80621 0.0399755 -1.32565e-06)
(3.75953 0.0360872 4.53304e-07)
(3.68698 0.0728492 9.62459e-07)
(3.72532 0.0767955 -5.48345e-07)
(3.75098 0.0313887 2.93567e-07)
(3.7218 0.0393748 -1.43516e-08)
(3.72052 0.0296925 -1.93126e-08)
(3.67128 0.0884004 -4.34384e-07)
(3.68928 0.0607115 2.55882e-08)
(3.70948 0.0175083 -3.84458e-08)
(3.60718 0.0899232 -1.36905e-07)
(3.64222 0.053748 1.44254e-07)
(3.66109 0.0185148 -3.64063e-07)
(3.60857 0.0700674 -1.2106e-07)
(3.6265 0.0158069 -9.91704e-08)
(3.61104 0.0432376 -6.10901e-08)
(3.60652 0.0471453 4.59644e-08)
(3.55847 0.0489746 -9.35477e-08)
(3.52228 0.0715134 -1.29414e-07)
(3.55035 0.0486615 3.77432e-08)
(3.53597 0.0350192 2.73308e-07)
(3.4812 0.0981838 2.80758e-07)
(3.50354 0.0545833 -4.20015e-07)
(3.46268 0.083817 1.0078e-06)
(3.44977 0.0803184 1.40523e-07)
(3.27579 0.143272 1.05248e-08)
(3.46886 0.0419093 -1.85769e-07)
(3.44299 0.0805162 2.31855e-07)
(3.44376 0.0523501 1.8178e-08)
(3.41791 0.0212442 1.77204e-07)
(3.3677 0.0528442 1.21426e-06)
(3.36409 0.0728841 -1.15583e-07)
(3.35037 0.0873446 3.0366e-08)
(3.36712 0.039026 -1.91368e-07)
(3.364 0.0442245 4.13851e-07)
(3.33121 0.0957444 8.42308e-07)
(3.33597 0.0727102 7.934e-07)
(3.32687 0.0455767 -2.87014e-08)
(3.3266 0.0194207 -4.74759e-07)
(3.23321 0.0971708 4.29084e-07)
(3.2146 0.118684 1.12183e-07)
(3.26157 0.0934321 -9.74282e-08)
(3.25904 0.0639881 2.8441e-08)
(3.24923 0.0879783 8.26354e-09)
(3.24195 0.0437352 1.40779e-08)
(3.23372 9.98655e-12 -2.26105e-14)
(3.23071 0.0218288 -1.81512e-07)
(3.2184 0.0693575 2.54609e-07)
(3.21921 0.0321862 -5.12059e-08)
(3.21314 0.0509835 -2.92891e-07)
(3.15012 0.100757 7.42511e-07)
(3.19231 0.0326291 -4.952e-08)
(3.19064 0.0332358 -3.80855e-07)
(3.18313 0.0583201 1.40153e-07)
(3.02238 0.0700555 5.16577e-07)
(3.15815 0.042668 -1.32462e-07)
(3.15673 0.0615827 4.20663e-07)
(3.13007 0.0679869 -1.36224e-07)
(3.14225 0.000590449 -6.40437e-08)
(3.11721 0.0734654 -1.68256e-07)
(3.13331 0.00438676 1.13554e-06)
(3.13672 0.0332349 1.31026e-07)
(3.11215 0.0620348 -1.53678e-07)
(3.10183 0.0634245 -1.18431e-06)
(2.90014 0.145257 -3.15342e-07)
(2.94838 0.101337 2.59935e-07)
(3.0673 0.0516123 3.57651e-07)
(3.06737 0.0650907 5.31244e-09)
(3.1043 0.0372016 -1.37902e-07)
(3.08497 0.0569552 -1.39943e-08)
(3.0665 0.0343161 -5.76232e-07)
(3.07212 0.034181 2.42069e-07)
(2.87351 0.119252 -1.75778e-07)
(3.04033 0.0203905 8.02039e-07)
(3.05446 0.00417905 5.40024e-07)
(2.98917 0.0750286 -8.92019e-08)
(3.0436 0.0364632 3.36018e-08)
(3.0302 0.0119891 -1.70942e-14)
(3.0066 0.0487927 3.1478e-07)
(2.87473 0.12414 2.41718e-08)
(2.97567 0.0410206 1.34079e-08)
(2.98623 0.0632431 4.12294e-08)
(2.98251 0.0333022 -6.34942e-08)
(2.95881 0.0418298 -1.27762e-08)
(2.94307 0.0213154 -4.49989e-13)
(2.93986 0.0432866 2.7667e-08)
(2.94852 0.0308179 1.67349e-07)
(2.90759 0.0614129 3.45757e-09)
(2.84295 0.0700792 -1.2211e-07)
(2.82156 0.0747272 -5.77874e-09)
(2.87671 0.0519729 -4.53986e-07)
(2.86977 0.0378231 -4.303e-08)
(2.84532 0.0584094 -3.45338e-07)
(2.81589 0.0597046 3.53912e-07)
(2.82281 0.0258694 -1.315e-13)
(2.63903 0.125215 -1.01119e-07)
(2.73269 0.083874 -1.94823e-07)
(2.80712 0.034568 8.86751e-08)
(2.78994 0.0577053 3.63726e-08)
(2.74819 0.0662453 -3.35998e-07)
(2.74524 0.0616916 1.63364e-07)
(2.77546 0.0324339 2.88662e-07)
(2.74249 0.0417655 9.63312e-09)
(2.72513 0.0476546 -1.39564e-07)
(2.71195 0.0432402 4.46236e-08)
(2.68696 0.0619978 3.75276e-07)
(2.70669 0.0509271 3.21607e-08)
(2.69561 0.046381 -1.07079e-08)
(2.66049 0.0186353 1.69856e-07)
(2.65879 0.0456545 -9.37514e-08)
(2.6372 0.0554525 -2.55134e-07)
(2.65201 0.0455696 1.5197e-07)
(2.46876 0.119606 3.97748e-08)
(2.56957 0.0792917 1.3259e-08)
(2.62436 0.0179025 -2.0592e-13)
(2.60671 0.0456307 -1.0659e-08)
(2.59289 0.0509049 4.28431e-07)
(2.60023 0.039942 7.92423e-08)
(2.56828 0.0573316 -9.30031e-08)
(2.48028 0.114232 -6.65994e-07)
(2.44646 0.133923 -1.9908e-08)
(2.56241 0.0714104 -2.31937e-07)
(2.56332 0.0145735 -1.58443e-14)
(2.55423 0.0415197 6.65979e-07)
(2.54683 0.0584343 -6.09108e-08)
(2.55663 0.0376051 9.28106e-08)
(2.54337 0.000793593 -5.22485e-15)
(2.52206 0.00666273 -7.08628e-14)
(2.45207 0.061578 -1.06619e-07)
(2.47075 0.0228796 -1.36278e-07)
(2.34168 0.11879 -2.35431e-07)
(2.45937 0.03013 -2.26785e-13)
(2.45261 0.0504529 5.17402e-08)
(2.45255 0.0210493 -1.12398e-07)
(2.40823 0.0265144 1.68795e-13)
(2.39653 0.0609226 6.29605e-08)
(2.38135 0.0396306 2.22419e-07)
(2.35394 0.0548977 -2.04997e-07)
(2.3526 0.0307776 -2.09313e-13)
(2.30836 0.0835898 -1.44685e-07)
(2.317 0.074427 -1.8581e-07)
(2.31447 0.0735802 -1.72889e-07)
(2.31947 0.00972093 2.53442e-16)
(2.24008 0.0921981 1.72117e-07)
(2.20303 0.104745 8.63799e-08)
(2.25813 0.048429 -1.004e-07)
(2.25869 0.0669549 -7.06981e-08)
(2.24699 0.0591055 1.8126e-07)
(2.2504 0.0569311 1.1533e-07)
(2.24235 0.0338823 -1.61999e-13)
(2.22833 0.0106274 1.96849e-07)
(2.21071 0.0738334 4.22171e-09)
(2.22861 0.0360414 -7.53997e-13)
(2.21674 0.0706362 -5.18781e-08)
(2.16922 0.083498 7.34375e-07)
(2.20366 0.0259157 1.02467e-06)
(2.21012 0.0487308 -3.68861e-07)
(2.15743 0.0796227 4.91261e-08)
(2.08818 0.113003 1.6094e-07)
(2.15383 0.0146377 -1.57827e-07)
(2.13221 0.0814963 6.34246e-08)
(2.11374 0.0823261 -3.4215e-07)
(2.1319 0.0528103 3.61425e-08)
(2.1268 0.0488402 -4.82775e-09)
(2.1036 0.0703243 -2.40605e-07)
(2.11074 0.0276515 -1.27695e-13)
(2.0928 0.0773946 -5.63316e-08)
(2.07776 0.0696367 2.6363e-07)
(2.05887 0.0509558 6.80904e-07)
(2.06225 0.0504366 -7.1085e-09)
(2.05469 0.0629447 -2.29133e-08)
(2.06013 0.0354358 -7.13639e-13)
(1.99778 0.100548 -2.16107e-07)
(2.02672 0.0527246 2.09092e-07)
(2.02523 0.0534094 2.07834e-07)
(2.01008 0.0690876 -3.96742e-07)
(2.00569 0.0525318 -2.53586e-08)
(1.99543 0.073748 -8.75076e-07)
(1.97957 0.0828178 -3.19253e-07)
(1.97982 0.0433967 1.33444e-07)
(1.95525 0.020052 2.08222e-13)
(1.94335 0.0481256 8.56498e-08)
(1.92791 0.0832436 -7.14366e-08)
(1.9366 0.0169673 -1.53429e-13)
(1.93075 0.0632051 5.91916e-08)
(1.88447 0.0769933 -7.46051e-08)
(1.87531 0.101389 1.45947e-07)
(1.87053 0.0609711 1.19264e-07)
(1.84856 0.0753514 -6.52821e-08)
(1.84441 0.0794276 -1.09905e-07)
(1.84493 0.080523 -3.15679e-08)
(1.83819 0.0445873 -8.17437e-14)
(1.83576 0.0747583 6.11668e-07)
(1.82653 0.0855382 -8.04338e-08)
(4.62728 0.309328 4.40191e-08)
(4.6053 0.197725 -2.82194e-07)
(6.97248 0.109826 3.6708e-09)
(7.17755 0.0222061 -1.24926e-06)
(7.17388 0.0804508 5.05087e-07)
(7.1486 0.0605499 -2.53899e-07)
(7.14953 0.052885 -2.91793e-07)
(7.06534 0.00599817 2.69142e-07)
(7.15734 0.0165631 4.08934e-07)
(7.01153 0.0911407 2.52173e-07)
(7.15867 0.0209557 -4.32144e-09)
(6.95027 0.0782556 -1.35403e-07)
(7.10782 0.038602 3.80396e-07)
(7.13112 5.67874e-11 4.60208e-14)
(7.02997 0.0347186 6.66069e-08)
(7.1647 6.10411e-11 -9.01716e-17)
(6.99692 0.116115 -5.70984e-07)
(6.85888 0.0496797 3.37992e-07)
(7.07325 0.00234307 -1.86427e-07)
(6.69356 0.121056 9.82805e-07)
(6.92442 0.0910958 9.32547e-07)
(7.05175 0.01934 1.27545e-07)
(6.96539 0.0503655 1.93893e-07)
(7.02172 0.00479143 4.56997e-07)
(6.99727 0.0214819 2.02168e-08)
(6.97416 0.042345 -3.03788e-07)
(7.0207 0.00736031 -4.84889e-07)
(6.99895 0.00204042 2.05535e-08)
(6.81517 0.00474622 2.0624e-07)
(6.92256 0.0164585 -2.99305e-09)
(6.75033 0.0626773 -2.54951e-07)
(6.83429 0.0321391 -1.26718e-07)
(6.89162 1.88938e-10 -1.3656e-14)
(6.74793 0.00327318 6.52883e-07)
(6.84837 0.0287289 2.65716e-07)
(6.7453 0.000243878 3.8375e-07)
(6.80215 0.0206433 1.59447e-07)
(6.54499 0.0984899 -3.85211e-07)
(6.76868 0.0366164 -2.60279e-07)
(6.74698 0.0117438 5.40507e-08)
(6.66154 0.111953 9.60666e-09)
(6.80736 0.0419432 -2.77148e-07)
(6.5618 0.0084303 1.64391e-07)
(6.57247 0.0657357 8.11588e-08)
(6.50006 0.0843859 -1.1499e-07)
(6.75419 2.34542e-10 1.79501e-12)
(6.73859 0.00237595 -4.51024e-07)
(6.67416 0.00722746 -8.59019e-08)
(6.64107 0.00299423 -1.6765e-07)
(6.58931 0.0468087 -7.43785e-08)
(6.62221 0.0400436 6.33806e-08)
(6.6449 0.118768 -4.15596e-08)
(6.68728 0.000219581 5.11071e-08)
(6.63461 0.0148992 3.61993e-07)
(6.61293 0.0457319 -3.5446e-07)
(6.71881 0.00895142 -1.03509e-06)
(6.37416 0.0492405 1.11381e-07)
(6.62904 0.00762921 6.08892e-08)
(6.4164 0.0579401 2.43997e-07)
(6.46726 0.106764 -2.821e-07)
(6.43276 0.0263508 6.0079e-07)
(6.55166 0.026034 -3.9192e-07)
(6.47702 0.0346044 4.89944e-07)
(6.32898 0.0873335 3.17303e-07)
(6.26922 0.0997503 -3.08866e-07)
(6.32504 0.0472443 -1.35838e-06)
(6.58227 0.000341047 1.29706e-07)
(6.41212 0.0437109 5.59962e-07)
(6.53399 6.33938e-11 3.37223e-13)
(6.55843 0.000219486 1.062e-07)
(6.46477 0.062268 -3.98112e-07)
(6.57839 0.0612116 -2.259e-07)
(6.48403 0.0180542 1.28405e-07)
(6.3532 0.0598421 -7.40012e-07)
(6.25835 0.0739744 2.22338e-07)
(6.28658 0.0360429 4.68477e-07)
(6.42653 0.105221 2.58729e-08)
(6.37266 0.00625327 -2.94133e-07)
(6.1907 0.224765 -1.24304e-06)
(6.40273 0.0792201 -4.94618e-07)
(6.26171 0.0185704 1.00112e-07)
(6.28325 0.0383273 -4.24188e-07)
(6.27345 0.0449806 -2.03587e-07)
(6.318 0.0148612 -6.79291e-12)
(6.06694 0.0945029 1.79167e-07)
(6.28149 0.00628422 -1.4908e-08)
(6.10432 0.0720471 2.71333e-08)
(6.22423 0.0160535 2.49724e-07)
(6.15039 0.0739018 -2.24044e-07)
(6.27179 0.115358 7.08972e-08)
(6.31235 0.00306159 -1.17865e-07)
(6.15787 0.0435411 -1.04082e-08)
(6.13384 0.0454054 5.21816e-08)
(6.18747 0.00884906 3.01367e-07)
(5.99997 0.0714773 9.95068e-08)
(6.24395 4.17564e-11 8.9279e-14)
(6.166 0.0019082 1.87129e-07)
(6.0801 0.0374724 -1.91765e-07)
(6.1316 1.36644e-09 7.49038e-12)
(6.11695 0.0179131 2.29489e-07)
(5.97849 0.054816 5.91395e-07)
(6.05537 0.04132 1.20295e-06)
(6.09489 0.00368532 2.83455e-09)
(6.01371 0.0496412 4.44064e-08)
(6.09368 1.7837e-10 -1.22874e-13)
(6.01015 0.0518231 -1.46985e-07)
(5.93473 0.0901579 1.34371e-07)
(6.08513 0.000900812 -3.98197e-08)
(5.94166 0.0565185 7.46962e-08)
(6.17156 0.0637014 -1.80187e-07)
(5.8591 0.0579207 3.01542e-07)
(5.93739 0.0264864 3.62862e-07)
(5.9997 0.00507815 -2.36944e-08)
(6.08067 0.10368 -4.98218e-09)
(5.97758 0.00531303 1.24805e-08)
(5.97855 0.00306665 -1.03729e-07)
(5.96784 0.0180475 -3.57768e-07)
(5.78331 0.0931255 3.27283e-08)
(5.86009 0.0387367 3.30591e-07)
(5.80931 0.0581032 -1.96725e-07)
(5.70252 0.0791908 -7.52848e-07)
(5.92023 0.0107825 -1.65694e-09)
(5.93536 0.0178306 -3.26232e-07)
(6.04228 0.13926 5.37432e-08)
(5.80433 0.0502265 9.98182e-08)
(6.00166 0.0744532 -3.17274e-07)
(5.83767 0.00714458 -5.74872e-10)
(5.76918 0.0703267 -2.71409e-07)
(6.08222 0.0526469 2.68009e-07)
(5.85713 0.0793414 -1.01748e-08)
(5.83793 0.000461237 6.71284e-08)
(5.72288 0.0521948 2.72248e-07)
(5.6783 0.07604 -4.34642e-07)
(5.86472 0.140195 -7.67978e-07)
(5.76218 0.0292491 -3.86443e-07)
(5.80793 5.16572e-11 -2.99055e-13)
(5.72549 0.0129085 2.04762e-07)
(5.79883 9.97829e-11 3.56527e-13)
(5.80366 1.35363e-10 9.43148e-13)
(5.70988 0.0471111 1.81923e-08)
(5.74332 0.0424956 2.36991e-07)
(5.72341 0.031906 -1.53377e-08)
(5.82747 0.131308 6.80202e-08)
(5.6698 0.0113408 -4.29533e-07)
(5.73435 0.11307 -3.7197e-07)
(5.59802 0.0684545 -5.24517e-07)
(5.7123 0.180708 3.18127e-07)
(5.81625 0.0883271 -3.52619e-07)
(5.59666 0.0259469 1.95071e-08)
(5.76203 0.142657 -4.52222e-07)
(5.62594 2.31427e-10 1.96947e-12)
(5.58762 0.0350238 -1.52339e-07)
(5.5085 0.0515714 -3.76289e-07)
(5.58738 0.0140108 -5.99095e-07)
(5.5699 0.0014361 -1.16508e-09)
(5.49867 0.0179765 1.37945e-07)
(5.72771 0.105981 -1.13391e-06)
(5.48423 0.0451527 -1.81152e-07)
(5.52784 0.0110582 -2.19592e-07)
(5.51418 0.0288083 -1.39226e-07)
(5.38067 0.075858 -6.14722e-08)
(5.46901 0.0279317 2.35933e-07)
(5.48654 0.0258647 -9.424e-08)
(5.44912 0.0392915 6.94377e-07)
(5.41958 0.071566 3.23062e-08)
(5.4385 0.0622441 -2.43344e-07)
(5.51379 0.0044969 -7.94245e-08)
(5.43787 0.0385727 -2.1213e-08)
(5.42831 0.0454671 -4.43539e-08)
(5.46462 0.00109038 4.7992e-08)
(5.43982 0.0192378 -2.49548e-07)
(5.36536 0.0586755 8.8911e-08)
(5.44381 0.00966975 -3.46794e-07)
(5.3769 0.0391754 -4.51532e-08)
(5.34962 0.0333863 -1.47381e-08)
(5.46161 0.196457 -2.61922e-07)
(5.29236 0.0439383 2.86764e-07)
(5.25865 0.0832103 -1.11599e-07)
(5.34107 2.5115e-11 1.29e-13)
(5.3238 0.0369029 8.13435e-07)
(5.31763 0.00998225 4.2249e-08)
(5.25807 0.0355481 -2.94053e-07)
(5.31078 2.32831e-10 1.23403e-12)
(5.27422 0.015008 5.31873e-08)
(5.42702 0.173085 1.3962e-07)
(5.27419 0.00436776 -2.21467e-08)
(5.17386 0.0496615 -2.20792e-09)
(5.20398 0.0137681 -3.68912e-07)
(5.15033 0.0347169 9.41495e-08)
(5.18105 0.0168224 -1.51338e-07)
(5.09539 0.0420759 -3.18239e-07)
(5.07085 0.0565638 2.27568e-09)
(5.1173 0.0160121 -1.59661e-09)
(5.12805 0.0212713 -4.31876e-07)
(5.08867 0.0361458 9.82738e-07)
(5.09157 0.00469327 1.1609e-08)
(5.04561 0.0495551 -1.96218e-07)
(5.05065 0.00675783 -6.92258e-08)
(5.23633 0.144374 1.09195e-07)
(5.01704 0.00567596 5.07897e-08)
(5.00354 0.031294 -4.12993e-07)
(5.00205 0.0270425 -8.43142e-08)
(4.9978 0.0295675 -4.14256e-10)
(5.01728 3.2891e-10 2.76202e-12)
(5.00849 1.92078e-11 -1.44677e-13)
(4.94881 0.0502533 -1.49471e-07)
(4.94511 0.0396979 -3.03515e-08)
(5.25451 0.108369 -1.05598e-07)
(4.95556 0.00295887 6.95873e-08)
(4.86697 0.0776566 5.72946e-08)
(4.93202 0.0189888 -5.04642e-08)
(4.90784 0.000409478 9.67178e-09)
(5.16535 0.135589 7.22706e-08)
(4.85143 0.046382 1.26456e-07)
(4.82533 0.0740299 -3.91625e-09)
(4.84015 0.0435961 4.73316e-08)
(4.78531 0.0691511 -5.99195e-08)
(4.81892 0.0128851 1.82913e-07)
(5.09741 0.131895 5.07373e-08)
(5.06181 0.0903928 7.08708e-08)
(4.81039 8.76582e-10 4.96625e-12)
(4.75766 0.0651652 -8.138e-08)
(4.75521 0.0773664 1.67383e-08)
(4.79016 0.00752774 4.71864e-08)
(4.7852 0.0371684 9.60002e-08)
(5.07103 0.140172 -3.86396e-07)
(4.77087 0.0314256 9.83179e-07)
(5.03118 0.0851002 -1.62784e-07)
(4.72487 0.0549266 1.70033e-08)
(4.7225 0.0505144 -1.43544e-07)
(4.72149 0.035671 3.71507e-08)
(4.70944 0.0503264 5.87377e-08)
(4.69997 0.0196003 9.47268e-07)
(4.69126 0.0367817 -4.63568e-07)
(4.66338 0.0765298 4.519e-08)
(4.67544 0.0633292 4.84752e-08)
(4.65743 0.055923 -2.41567e-07)
(4.66241 0.020298 3.72042e-07)
(4.64757 0.0589804 -2.61862e-07)
(4.96946 0.131758 -1.55312e-08)
(4.62385 0.071978 -2.95209e-07)
(4.62092 0.0591744 7.54325e-08)
(4.62168 0.00209552 1.0128e-07)
(4.95491 0.0938831 -1.71448e-07)
(4.60125 0.0195249 2.6101e-07)
(4.59092 0.0427038 1.29978e-08)
(4.93586 0.105193 1.61854e-07)
(4.57987 0.049295 3.97798e-07)
(4.67487 0.0812808 1.15326e-07)
(4.90963 0.101043 5.59308e-08)
(4.91125 0.0967884 -1.524e-07)
(4.55237 0.00233514 -4.58474e-08)
(4.54383 0.0210116 4.00264e-07)
(4.88461 0.0991858 -1.07052e-07)
(4.48623 0.0751154 7.41982e-09)
(4.49468 0.0507721 -3.14314e-09)
(4.48585 0.0154369 4.36356e-07)
(4.8308 0.11397 2.40124e-07)
(4.46745 0.0176011 -2.12659e-07)
(4.45691 0.0480778 -2.95929e-07)
(4.44649 0.0339417 4.61285e-09)
(4.44147 0.00506868 2.23975e-07)
(4.42842 0.0362202 -4.92534e-07)
(4.42555 0.0244416 -8.13268e-08)
(4.39869 0.0525631 -9.2258e-07)
(4.39623 0.0563095 -5.27898e-08)
(4.39796 0.00946783 -1.26928e-07)
(4.74299 0.110376 -2.32522e-07)
(4.34964 0.0602378 -7.11786e-08)
(7.64294 7.70697e-11 6.35386e-15)
(7.57735 3.13153e-11 -3.62094e-14)
(7.53906 0.00643724 -7.1972e-07)
(7.53285 5.26211e-11 -1.20071e-13)
(7.51856 0.0414371 8.084e-08)
(7.518 9.21482e-11 5.18309e-13)
(7.51561 0.0143107 1.36788e-06)
(7.50405 0.0499457 7.24647e-07)
(7.46842 0.0140178 3.08367e-08)
(7.42282 0.0212498 -1.47141e-07)
(7.42244 0.00125338 1.08871e-07)
(7.42383 0.000281331 -3.67626e-08)
(7.42042 2.75716e-10 -2.31572e-12)
(7.36617 0.0157144 -1.68742e-07)
(7.34181 0.000512761 -3.69818e-10)
(7.3245 3.61785e-09 -2.68852e-11)
(7.2962 0.0318273 1.79064e-07)
(7.27954 2.14495e-11 6.73045e-16)
(7.28035 0.015217 -3.57149e-07)
(7.25843 0.00051873 -3.91997e-08)
(7.24896 0.0502078 1.47187e-07)
(7.23548 0.00260036 -3.96828e-07)
(7.22378 0.0338276 4.49359e-07)
(7.22468 0.00431136 7.51637e-08)
(7.21376 0.000154968 -1.89979e-07)
(7.20722 0.0146047 -5.25901e-07)
(7.20607 0.0199069 6.16028e-07)
(7.19963 0.000878107 -4.7789e-08)
)


// ************************************************************************* //
