/*--------------------------------*- C++ -*----------------------------------*\
  =========                 |
  \\      /  F ield         | OpenFOAM: The Open Source CFD Toolbox
   \\    /   O peration     | Website:  https://openfoam.org
    \\  /    A nd           | Version:  7
     \\/     M anipulation  |
\*---------------------------------------------------------------------------*/
FoamFile
{
    version     2.0;
    format      ascii;
    class       labelField;
    location    "0.12/lagrangian/reactingCloud1";
    object      origId;
}
// * * * * * * * * * * * * * * * * * * * * * * * * * * * * * * * * * * * * * //


843
(
548
575
572
578
577
571
567
568
569
570
565
579
587
562
580
586
585
547
590
583
574
592
589
584
598
576
593
597
596
599
588
606
595
600
594
607
605
612
603
608
582
610
615
609
613
604
621
619
616
622
620
624
618
627
625
614
623
633
629
628
617
602
636
637
626
631
638
776
777
778
779
780
781
782
783
784
785
786
787
788
789
790
791
792
793
794
795
796
797
798
799
800
801
802
803
804
805
806
807
808
809
810
811
812
813
814
815
816
817
818
819
820
821
822
823
824
825
826
827
828
829
830
831
832
833
834
835
836
837
838
839
840
841
842
630
591
703
677
719
723
725
722
727
726
724
728
731
734
732
735
733
736
739
737
738
730
741
740
742
743
744
729
745
676
747
746
748
749
750
752
754
753
755
757
756
758
760
759
751
761
762
763
765
766
764
767
769
768
771
770
772
773
774
775
581
673
675
674
680
665
679
683
684
682
681
686
687
685
691
689
667
695
688
698
690
700
696
701
694
704
693
702
707
709
711
678
708
697
705
710
706
718
713
699
714
721
720
692
712
717
715
716
601
611
632
635
634
644
643
650
648
651
647
639
646
642
645
656
655
640
659
657
652
660
658
649
662
653
654
661
664
669
666
663
668
641
672
671
670
232
63
254
239
179
251
199
242
260
272
276
230
48
291
299
277
313
321
327
309
334
333
323
305
311
325
330
336
337
298
338
300
344
347
341
331
332
351
335
352
322
356
340
355
348
359
363
342
346
354
358
319
371
362
339
343
370
274
373
361
372
353
357
379
366
383
382
369
349
364
374
367
384
368
376
378
360
394
380
395
377
387
390
183
392
386
400
406
375
404
391
399
409
413
388
414
389
385
320
410
401
417
419
398
408
402
411
430
381
412
428
434
420
421
405
422
403
439
365
443
415
435
444
418
446
442
432
407
425
429
423
326
438
350
450
436
449
397
427
424
445
393
452
451
457
447
437
431
433
458
462
456
460
448
461
465
466
470
468
469
464
455
467
474
475
473
476
481
246
463
482
440
453
471
485
487
488
490
477
489
491
479
494
493
495
454
480
500
498
486
501
484
472
396
497
506
492
499
505
508
510
509
441
478
516
514
502
521
517
518
513
526
503
522
520
530
483
504
525
511
527
532
536
524
345
537
528
512
529
535
534
507
541
459
539
544
545
533
549
523
543
519
551
546
553
416
552
554
550
556
540
531
555
564
561
426
566
515
542
496
558
560
538
559
573
557
563
234
187
5
15
30
29
44
6
49
41
45
25
34
43
36
62
2
21
52
14
55
60
64
68
69
66
72
74
67
80
70
82
76
73
57
54
79
71
91
83
27
81
50
75
58
97
96
89
77
84
94
28
87
51
65
88
104
117
105
102
93
110
90
85
78
116
123
98
101
120
122
18
114
95
119
118
13
107
53
59
133
115
126
134
128
136
127
131
129
19
145
143
106
152
103
155
144
148
147
140
151
139
130
137
166
154
161
158
156
100
160
135
159
121
149
142
172
167
163
138
141
177
176
125
169
99
157
186
108
132
188
171
184
113
185
195
178
164
162
191
192
196
111
181
112
198
86
92
170
150
209
203
189
180
206
205
165
216
221
168
174
182
218
197
210
219
217
175
222
124
233
220
202
231
226
61
229
201
200
237
225
204
244
235
146
248
247
238
208
257
256
252
259
249
227
245
215
264
9
263
267
271
270
253
213
236
269
194
278
190
279
266
173
250
268
275
262
289
153
214
282
284
265
283
290
228
293
241
285
286
297
287
211
240
258
292
280
301
296
109
273
294
307
224
310
306
212
303
255
261
207
281
295
223
288
316
312
243
317
302
324
315
318
328
304
314
329
193
308
0
4
3
12
1
17
7
11
16
8
22
20
31
26
35
33
24
32
56
38
42
10
40
37
23
46
39
47
)


// ************************************************************************* //
