/*--------------------------------*- C++ -*----------------------------------*\
  =========                 |
  \\      /  F ield         | OpenFOAM: The Open Source CFD Toolbox
   \\    /   O peration     | Website:  https://openfoam.org
    \\  /    A nd           | Version:  7
     \\/     M anipulation  |
\*---------------------------------------------------------------------------*/
FoamFile
{
    version     2.0;
    format      ascii;
    class       Cloud<passiveParticle>;
    location    "0.12/lagrangian/reactingCloud1";
    object      positions;
}
// * * * * * * * * * * * * * * * * * * * * * * * * * * * * * * * * * * * * * //

843
(
(0.420441 0.290722 0.240993 0.0478447) 46201 91809 1
(0.166771 0.0457249 0.370985 0.416519) 46104 91528 2
(0.0466137 0.0401783 0.438528 0.474679) 46150 91619 2
(0.293051 0.366157 0.222728 0.118064) 46102 91611 1
(0.157613 0.422587 0.40307 0.0167301) 46104 91615 1
(0.364002 0.126957 0.197352 0.311688) 46151 91621 2
(0.0534209 0.445063 0.0483255 0.453191) 46196 91711 2
(0.15034 0.253268 0.182648 0.413744) 46196 91711 2
(0.433367 0.203592 0.282883 0.0801583) 46196 91714 2
(0.104275 0.447818 0.0919436 0.355964) 46149 91618 1
(0.554969 0.228263 0.00291076 0.213857) 46287 91981 1
(0.516828 0.257752 0.152293 0.0731265) 46234 91787 1
(0.344705 0.346888 0.229906 0.0785) 46324 91967 1
(0.770753 0.0539799 0.113405 0.0618613) 46465 92337 2
(0.258025 0.0838751 0.367211 0.290889) 46328 92063 2
(0.100903 0.462203 0.0834423 0.353452) 46374 92155 1
(0.326575 0.179477 0.336695 0.157253) 46461 92244 2
(0.228312 0.280542 0.112732 0.378414) 46552 92423 2
(0.339162 0.176909 0.166328 0.317602) 46456 92231 2
(0.122162 0.438821 0.375361 0.0636553) 46412 92146 1
(0.84544 0.0787978 0.0372288 0.038533) 46505 92329 1
(0.69804 0.155534 0.078177 0.0682487) 46458 92323 1
(0.0172811 0.444488 0.471521 0.0667106) 46460 92327 2
(0.366039 0.0148681 0.302093 0.317) 46550 92419 2
(0.443204 0.0559579 0.227982 0.272856) 46497 92313 2
(0.294842 0.361558 0.0526517 0.290948) 46551 92509 1
(0.322962 0.116758 0.229253 0.331028) 46545 92409 2
(0.464947 0.115464 0.159518 0.260071) 46545 92409 2
(0.952226 0.0190306 0.00619055 0.0225531) 46545 92409 2
(0.837593 0.0148113 0.0672104 0.0803854) 46634 92587 2
(0.0989931 0.101794 0.351897 0.447315) 46727 92773 2
(0.527893 0.242654 0.0609114 0.168542) 46674 92667 1
(0.103223 0.448579 0.43234 0.0158584) 46678 92678 1
(0.213042 0.393526 0.0239239 0.369508) 46680 92680 1
(0.0385052 0.490757 0.178193 0.292544) 46723 92765 1
(0.634948 0.182536 0.0916961 0.0908196) 46766 92852 1
(0.0358031 0.289628 0.207394 0.467175) 46811 92941 2
(0.00107441 0.518755 0.134679 0.345491) 46804 92927 1
(0.632723 0.183901 0.180923 0.00245332) 46813 93033 1
(0.345676 0.327265 0.171732 0.155327) 46811 92942 1
(0.0376151 0.0322081 0.479826 0.450351) 46813 93033 2
(0.835462 0.0870686 0.0667594 0.0107098) 46853 93025 1
(0.0870221 0.469104 0.327829 0.116045) 46850 93107 1
(0.136747 0.243974 0.431264 0.188014) 46899 93120 2
(0.452444 0.188826 0.273591 0.0851385) 46897 93116 2
(0.233393 0.395489 0.118665 0.252454) 46900 93207 1
(0.369744 0.225098 0.1124 0.292757) 47025 93369 2
(0.5403 0.226395 0.00377515 0.22953) 47029 93378 2
(0.0865266 0.0145526 0.442962 0.455959) 47075 93469 2
(0.557519 0.233199 0.124201 0.0850818) 47071 93461 1
(0.640759 0.183761 0.109669 0.0658115) 47074 93555 1
(0.397978 0.0587847 0.300923 0.242314) 47114 93550 2
(0.135017 0.432635 0.307383 0.124965) 47120 93562 1
(0.488575 0.201456 0.154985 0.154985) 47108 93624 1
(0.512448 0.24515 0.0208141 0.221589) 47206 93731 1
(0.0298115 0.0108648 0.484675 0.474649) 47253 93913 2
(0.278164 0.370951 0.199037 0.151848) 47296 93911 1
(0.623211 0.188507 0.101913 0.0863693) 47285 93892 1
(0.260657 0.368963 0.0222985 0.348082) 47338 93995 2
(0.148977 0.336179 0.104586 0.410258) 47428 94175 2
(0.188793 0.405935 0.0621373 0.343135) 47430 94182 1
(0.398122 0.300988 0.28999 0.0109002) 47428 94176 1
(0.0999535 0.176932 0.435661 0.287453) 47423 94253 2
(0.152205 0.269081 0.155162 0.423552) 47467 94254 2
(0.421495 0.292542 0.195825 0.0901376) 47474 94355 1
(0.741603 0.135203 0.101044 0.0221497) 47515 94349 1
(0.179754 0.245072 0.392156 0.183018) 47512 94431 2
(0.231455 0.383747 0.0998712 0.284926) 3428 6661 1
(0.278784 0.356642 0.118976 0.245598) 3425 6654 1
(0.129362 0.358466 0.445118 0.0670538) 3240 6333 2
(0.0559266 0.469885 0.0517493 0.422439) 3386 6581 1
(0.164489 0.416383 0.143287 0.275842) 3370 6550 1
(0.593731 0.200927 0.11517 0.0901711) 3341 6529 1
(0.305081 0.346024 0.296509 0.0523858) 3345 6499 1
(0.73033 0.130164 0.135455 0.00405103) 3321 6454 2
(0.291533 0.3527 0.334296 0.0214701) 3311 6433 1
(0.0467246 0.202081 0.273622 0.477573) 3303 6417 2
(0.5998 0.194794 0.201636 0.00377013) 3281 6373 1
(0.0634563 0.461118 0.298996 0.17643) 3060 5943 1
(0.546323 0.222884 0.112154 0.118639) 3245 6342 1
(0.474287 0.0174769 0.244131 0.264105) 3252 6317 2
(0.213971 0.391607 0.351778 0.0426432) 3229 6273 1
(0.0017508 0.212529 0.506715 0.279005) 3205 6264 2
(0.313122 0.331259 0.112011 0.243608) 3190 6235 1
(0.349649 0.31159 0.326052 0.0127084) 3188 6192 1
(0.0428893 0.30682 0.170657 0.479634) 3174 6166 2
(0.678599 0.151659 0.12658 0.0431618) 3153 6124 1
(0.707965 0.145787 0.0722203 0.0740282) 3134 6090 1
(0.227624 0.38319 0.329215 0.0599718) 3110 6079 1
(0.873131 0.0633754 0.0202439 0.0432498) 3102 6025 1
(0.0564824 0.297098 0.173852 0.472568) 3084 5990 2
(0.666666 0.0338188 0.132853 0.166663) 2860 96681 1
(0.323954 0.337826 0.251735 0.0864847) 3044 5914 1
(0.163577 0.417762 0.218735 0.199926) 3030 5885 1
(0.319595 0.328011 0.0110334 0.34136) 3006 5876 1
(0.0789674 0.460415 0.0640209 0.396597) 2996 5819 1
(0.0476158 0.465338 0.238781 0.248265) 2989 5804 1
(0.0951503 0.373731 0.0786896 0.452429) 2620 96693 1
(0.3188 0.0823054 0.258205 0.34069) 2941 5711 2
(0.577062 0.211314 0.0260769 0.185547) 2932 5696 1
(0.017635 0.482732 0.321275 0.178358) 2800 5436 1
(0.228703 0.365914 0.0106953 0.394687) 2890 5650 1
(0.443138 0.0128075 0.26562 0.278435) 2893 5618 2
(0.422269 0.191736 0.28888 0.0971157) 2865 5565 2
(0.45302 0.273489 0.00971862 0.263773) 2843 5522 1
(0.380747 0.309627 0.248561 0.0610652) 2822 5479 1
(0.730267 0.0858324 0.134868 0.0490332) 2760 5360 2
(0.407931 0.261404 0.0019549 0.32871) 2815 5465 2
(0.23068 0.10044 0.284221 0.38466) 2795 5427 2
(0.1896 0.4052 0.0150822 0.390118) 2772 5384 1
(0.831039 0.0844805 0.0777461 0.00673445) 2750 5341 1
(0.229696 0.385152 0.339944 0.0452081) 2722 5286 1
(0.33488 0.0466882 0.283278 0.335154) 2730 5299 2
(0.407129 0.296436 0.0184303 0.278005) 2580 96695 2
(0.755752 0.119909 0.122124 0.00221492) 2693 5230 2
(0.531646 0.103989 0.247175 0.117189) 2675 5231 2
(0.0846997 0.45765 0.0152358 0.442414) 2652 5148 1
(0.178287 0.410856 0.0226221 0.388234) 2520 96698 2
(0.777149 0.039684 0.0705746 0.112593) 2622 5088 2
(0.0713677 0.433318 0.0195949 0.475719) 2580 5007 2
(0.594677 0.201153 0.149849 0.054322) 2582 5049 1
(0.303291 0.340284 0.290533 0.0658916) 2582 5010 1
(0.835347 0.0803191 0.0682456 0.0160879) 2563 4973 1
(0.64021 0.179895 0.107687 0.0722077) 2543 4937 1
(0.267872 0.186936 0.372295 0.172897) 2524 4936 2
(0.243925 0.370388 0.260089 0.125598) 2523 4895 1
(0.249888 0.26425 0.375056 0.110806) 2500 4853 2
(0.486113 0.250205 0.101951 0.161732) 2488 4866 1
(0.194974 0.394368 0.264044 0.146614) 2471 4833 1
(0.426703 0.282678 0.142925 0.147694) 2462 4776 1
(0.855161 0.0333874 0.073612 0.0378397) 2445 4782 2
(0.150151 0.170325 0.43709 0.242434) 2432 4757 2
(0.153362 0.421859 0.03505 0.38973) 2428 4710 1
(0.880323 0.0598383 0.0560116 0.00382667) 2411 4686 1
(0.106191 0.443348 0.311295 0.139166) 3760 7347 1
(0.00167724 0.498207 0.40949 0.0906259) 4020 96623 2
(0.0430529 0.479169 0.285416 0.192362) 4101 7973 1
(0.52204 0.236439 0.101517 0.140004) 3820 7425 1
(0.397266 0.300641 0.275436 0.0266559) 4022 7857 1
(0.179208 0.372227 0.039083 0.409482) 4043 7860 2
(0.270966 0.134847 0.364186 0.230001) 4043 7862 2
(0.369935 0.274806 0.3232 0.0320589) 3962 7740 2
(0.27679 0.115 0.36982 0.238391) 4112 8033 2
(0.807406 0.096408 0.0517486 0.0444372) 4087 7948 1
(0.480287 0.146404 0.263712 0.109597) 3820 7464 2
(0.257111 0.0178592 0.371401 0.353629) 4045 7866 2
(0.0193551 0.254776 0.489705 0.236164) 4005 7788 2
(0.735956 0.0408429 0.152444 0.0707577) 4038 7889 2
(0.379483 0.310883 0.0546148 0.25502) 3841 7468 1
(0.66302 0.168671 0.0926438 0.075665) 3945 7671 1
(0.811406 0.0944852 0.0567379 0.0373705) 3863 7509 1
(0.876817 0.00384779 0.0615821 0.0577526) 3946 7673 2
(0.428131 0.281164 0.195289 0.0954169) 3930 7678 1
(0.0747446 0.46309 0.19643 0.265735) 3801 7388 1
(0.604477 0.197778 0.00710148 0.190643) 3884 7550 1
(0.296952 0.0120921 0.338906 0.35205) 3882 7545 2
(0.522377 0.0817279 0.238619 0.157276) 3909 7601 2
(0.395034 0.294201 0.0788704 0.231894) 3886 7592 1
(0.106478 0.447304 0.215467 0.230751) 3889 7562 1
(0.317901 0.329405 0.096503 0.256192) 3869 7559 1
(0.284533 0.358257 0.11452 0.242691) 3803 7394 1
(0.104607 0.20678 0.235261 0.453352) 3721 7231 2
(0.0832862 0.444409 0.109664 0.362641) 3827 7477 1
(4.23587e-07 0.290518 0.210387 0.499094) 3520 96648 1
(0.118371 0.441422 0.17793 0.262278) 3830 7447 1
(0.112579 0.401549 0.0267169 0.459155) 3826 7436 2
(0.815767 0.0173973 0.0747566 0.0920792) 3808 7402 2
(0.424646 0.147101 0.140892 0.287361) 3811 7408 2
(0.0816075 0.109922 0.463776 0.344694) 3767 7360 2
(0.106774 0.446785 0.11883 0.327611) 3775 7338 1
(0.382187 0.309031 0.114535 0.194247) 3728 7248 1
(0.140004 0.429955 0.123964 0.306077) 3682 7158 1
(0.30868 0.345694 0.142415 0.203211) 3707 7205 1
(0.0604182 0.227154 0.469737 0.242691) 3714 7221 2
(0.259956 0.357953 0.0441614 0.33793) 3686 7202 1
(0.232862 0.15031 0.233238 0.38359) 3691 7174 2
(0.0477981 0.104372 0.476156 0.371674) 3672 7139 2
(0.230091 0.20616 0.170865 0.392884) 3666 7124 2
(0.297306 0.328281 0.352001 0.0224112) 3560 6920 2
(0.196319 0.382353 0.000370061 0.420958) 3649 7091 2
(0.215229 0.0791893 0.392692 0.31289) 3581 6961 2
(0.726842 0.132969 0.0174651 0.122723) 3583 7001 1
(0.269992 0.364647 0.193461 0.1719) 3592 6983 1
(0.0182454 0.468454 0.358774 0.154527) 3592 6980 1
(0.8164 0.087548 0.0920179 0.0040345) 3562 6924 2
(0.0323123 0.482672 0.400206 0.0848097) 3544 6887 1
(0.44245 0.260604 0.0788883 0.218058) 3534 6906 1
(0.915582 0.0422621 0.0408769 0.00127872) 3522 6846 1
(0.210354 0.260876 0.39581 0.13296) 3508 6819 2
(0.153181 0.181758 0.234661 0.4304) 3526 6851 2
(0.8279 0.0836969 0.0460484 0.0423545) 3491 6822 1
(0.127575 0.416773 0.183501 0.272152) 3473 6787 1
(0.301486 0.347793 0.0204925 0.330228) 3473 6748 1
(0.414208 0.217887 0.294001 0.0739039) 3453 6712 2
(0.174727 0.412631 0.276769 0.135873) 5001 9735 1
(0.162667 0.253962 0.16468 0.41869) 5150 10033 2
(0.171295 0.414987 0.214078 0.199639) 5154 10041 1
(0.137884 0.422834 0.277092 0.16219) 5089 9950 1
(0.406327 0.25925 0.150343 0.184079) 5058 9848 1
(0.491978 0.253837 0.0346954 0.219489) 4923 9579 1
(0.0720361 0.298011 0.464008 0.165945) 4989 9713 2
(0.166604 0.11723 0.416399 0.299767) 4953 9641 2
(0.558121 0.170331 0.220623 0.0509247) 4912 9559 2
(0.247406 0.367912 0.218023 0.16666) 4867 9466 1
(0.591683 0.196498 0.00891902 0.202901) 4703 9147 2
(0.0695099 0.395769 0.0542543 0.480467) 4746 9230 2
(0.468456 0.256768 0.0226717 0.252104) 4706 9191 1
(0.34482 0.230872 0.335286 0.0890217) 4684 9148 2
(0.202927 0.168035 0.405538 0.223499) 4667 9115 2
(0.778489 0.111228 0.0286992 0.0815834) 4624 8995 1
(0.180123 0.399253 0.405649 0.0149758) 4561 8869 1
(0.142828 0.415197 0.174188 0.267787) 4630 9043 1
(0.0914474 0.396708 0.0596993 0.452145) 4543 8835 2
(0.112489 0.318007 0.108082 0.461422) 4590 8926 2
(0.0233295 0.478267 0.362447 0.135957) 4482 8715 1
(0.553756 0.0899216 0.133676 0.222646) 4529 8808 2
(0.267535 0.171375 0.189145 0.371945) 4504 8758 2
(0.371688 0.00160985 0.312555 0.314148) 4509 8769 2
(0.343282 0.0317395 0.295668 0.32931) 4442 8637 2
(0.248957 0.19676 0.179772 0.374511) 4492 8736 2
(0.410782 0.295423 0.174735 0.11906) 4382 8521 1
(0.304243 0.349257 0.281204 0.0652958) 4405 8566 1
(0.591546 0.195874 0.0789284 0.133652) 4432 8657 1
(0.500347 0.241071 0.122578 0.136004) 4413 8581 1
(0.33124 0.109332 0.211381 0.348046) 4395 8546 2
(0.0690981 0.454508 0.0817598 0.394634) 4322 8442 1
(0.629078 0.0610855 0.124664 0.185172) 4368 8494 2
(0.23646 0.25068 0.12414 0.38872) 4321 8401 2
(0.0629569 0.315052 0.46707 0.154921) 4323 8408 2
(0.00885643 0.495682 0.0243745 0.471087) 4286 8334 1
(0.019764 0.485744 0.0065315 0.487961) 4263 8289 2
(0.841707 0.00567938 0.080093 0.0725204) 4276 8353 2
(0.103954 0.448816 0.179024 0.268206) 4246 8256 1
(0.00359438 0.48595 0.467664 0.0427914) 4221 8206 1
(0.354863 0.323018 0.218396 0.103724) 4204 8176 1
(0.505699 0.238053 0.14708 0.109168) 4214 8232 1
(0.360117 0.305282 0.0120916 0.322509) 4189 8183 1
(0.637798 0.0156754 0.18107 0.165457) 4183 8135 2
(0.747374 0.0913824 0.129016 0.0322272) 4162 8130 2
(0.0412751 0.467865 0.367917 0.122943) 4164 8095 1
(0.443182 0.270698 0.262044 0.024076) 4143 8054 1
(0.307965 0.337896 0.300618 0.0535217) 4142 8052 1
(0.911147 0.0304508 0.0149249 0.0434776) 47563 94445 2
(0.183516 0.369584 0.0390397 0.40786) 47741 94802 2
(0.687497 0.158389 0.0837315 0.0703829) 47607 94621 1
(0.663704 0.175076 0.0628625 0.0983571) 47602 94611 1
(0.0465135 0.4771 0.0579413 0.418445) 47650 94620 1
(0.403771 0.322781 0.0198669 0.253581) 47687 94781 1
(0.300986 0.0441359 0.305451 0.349427) 47912 95144 2
(0.35291 0.145565 0.323385 0.17814) 47905 95132 2
(0.0101661 0.0877049 0.494838 0.407291) 47953 95228 2
(0.695287 0.152366 0.00859152 0.143756) 47903 95126 1
(0.130013 0.0614587 0.377267 0.431261) 47998 95315 2
(0.19101 0.404513 0.200366 0.204111) 48002 95326 1
(0.340485 0.0290104 0.330272 0.300232) 48000 95322 2
(0.673627 0.163761 0.141842 0.02077) 48134 95588 1
(0.533476 0.0370072 0.196778 0.232739) 48132 95584 2
(0.194346 0.405126 0.37402 0.026507) 48172 95751 1
(0.375599 0.232688 0.0949719 0.296741) 48217 95753 2
(0.100352 0.0185979 0.43155 0.449499) 48311 95942 2
(0.321312 0.0257718 0.339321 0.313595) 48302 95926 2
(0.3177 0.222951 0.340979 0.118371) 48305 95932 2
(0.70283 0.100532 0.144676 0.0519623) 48397 96201 2
(0.00355577 0.49831 0.113859 0.384274) 48393 96106 1
(0.134817 0.45326 0.0585282 0.353394) 48439 96285 1
(0.699044 0.0836034 0.0669173 0.150436) 48531 96398 2
(0.654549 0.180718 0.103905 0.060828) 48525 96378 1
(0.287683 0.261947 0.0845171 0.365854) 5405 10542 2
(0.178691 0.377764 0.0190833 0.424462) 5365 10462 2
(0.204151 0.396297 0.0381557 0.361397) 5367 10466 1
(0.0478511 0.368319 0.0837408 0.500089) 5369 10470 2
(0.216193 0.301002 0.0636419 0.419163) 5312 10356 2
(0.298961 0.338502 0.119724 0.242812) 5268 10308 1
(0.220571 0.389558 0.242992 0.146879) 5266 10267 1
(0.19732 0.401318 0.202442 0.19892) 5270 10273 1
(0.255242 0.372014 0.204491 0.168252) 5243 10219 1
(0.107252 0.292033 0.592404 0.00831029) 5258 10288 2
(0.152518 0.423911 0.306405 0.117167) 5231 10197 1
(0.354173 0.205901 0.323053 0.116873) 5188 10111 2
(0.375472 0.0526793 0.259665 0.312184) 43339 85998 2
(0.647372 0.176297 0.0967974 0.0795337) 43469 86260 1
(0.214151 0.393593 0.174184 0.218071) 43335 85992 1
(0.730093 0.135317 0.128771 0.0058191) 43379 86165 2
(0.15514 0.422855 0.271106 0.150899) 43424 86170 1
(0.340359 0.177354 0.320922 0.161365) 43378 86163 2
(0.365867 0.327098 0.302209 0.00482564) 43423 86253 2
(0.110839 0.408967 0.430301 0.0498927) 43381 86169 2
(0.181985 0.272224 0.408087 0.137704) 43422 86166 2
(0.455779 0.010309 0.271592 0.26232) 43378 86163 2
(0.225913 0.387118 0.37724 0.00972965) 43516 86354 1
(0.228194 0.160659 0.22571 0.385437) 43699 86718 2
(0.512294 0.250902 0.0192912 0.217513) 43646 86699 1
(0.611159 0.118614 0.194287 0.0759401) 43695 86712 2
(0.203218 0.254339 0.397821 0.144623) 43689 86700 2
(0.136819 0.177086 0.2551 0.430995) 43644 86608 2
(0.198837 0.0770431 0.323336 0.400785) 43597 86514 2
(0.169137 0.297341 0.131744 0.401778) 43599 86517 2
(0.276082 0.157478 0.361649 0.204791) 43641 86604 2
(0.00725271 0.503176 0.472643 0.0169281) 43589 86498 1
(0.328437 0.248435 0.115148 0.307981) 43592 86503 2
(0.742656 0.117563 0.0187463 0.121034) 43640 86599 2
(0.31953 0.198409 0.142422 0.339639) 43640 86600 2
(4.01647e-09 1.86106e-09 0.668898 0.331102) 43588 189554 2
(0.549102 0.210744 0.0153731 0.224781) 43687 86694 2
(0.35578 0.150283 0.322029 0.171908) 43589 86500 2
(0.109887 0.445902 0.272833 0.171378) 43641 86602 1
(0.304928 0.348158 0.286123 0.0607909) 43590 86500 1
(0.285139 0.358412 0.261945 0.0945044) 43593 86506 1
(0.370203 0.16429 0.151114 0.314393) 43685 86690 2
(0.398763 0.00142851 0.299399 0.300409) 43684 86688 2
(0.113621 0.446808 0.186847 0.252723) 43874 87067 1
(0.478653 0.260899 0.141498 0.11895) 43635 86592 1
(0.221832 0.40722 0.243643 0.127305) 43636 86679 1
(0.0491946 0.100186 0.37899 0.471629) 43777 86873 2
(0.420298 0.291929 0.22741 0.0603626) 43777 86961 1
(0.441212 0.280107 0.0535885 0.225092) 43729 86780 1
(0.0997421 0.450143 0.399726 0.0503881) 43681 86684 1
(0.086387 0.457651 0.117949 0.338013) 43725 86772 1
(0.00836642 0.562312 0.366539 0.0627823) 43723 86765 1
(0.144537 0.144785 0.418756 0.291922) 43728 86863 2
(0.377787 0.143736 0.183566 0.294911) 43724 86767 2
(0.258244 0.409077 0.0674895 0.265189) 43724 86855 1
(0.680392 0.160817 0.0025135 0.156277) 43771 86861 1
(0.12746 0.118886 0.435781 0.317874) 43863 87048 2
(0.0628017 0.495655 0.438862 0.00268112) 43817 87041 2
(0.39169 0.232427 0.2897 0.0861837) 43817 87041 2
(0.105669 0.447679 0.317215 0.129437) 43861 87042 1
(0.583468 0.050327 0.158114 0.208091) 43861 87042 2
(0.0285766 0.486188 0.115543 0.369693) 43815 86950 1
(0.384704 0.303194 0.306793 0.00530963) 43860 87042 2
(0.655457 0.0101686 0.163148 0.171226) 43854 87027 2
(0.160969 0.421449 0.405073 0.0125088) 43813 87033 1
(0.0256987 0.487863 0.259115 0.227323) 43857 87036 1
(0.498649 0.00527762 0.111642 0.384432) 43852 189818 2
(0.0495535 0.476527 0.0361524 0.437767) 43905 87132 1
(0.732035 0.134269 0.0112758 0.122421) 43858 87038 1
(0.0724741 0.507274 0.0475162 0.372736) 43857 87121 1
(0.305907 0.347349 0.0185954 0.328149) 43859 87038 1
(0.238249 0.138038 0.250179 0.373534) 43950 87219 2
(0.0990202 0.409654 0.449185 0.042141) 43904 87130 2
(0.813258 0.0934759 0.0271448 0.066121) 43905 87130 1
(0.636624 0.181512 0.161566 0.0202974) 43996 87312 1
(0.284789 0.380316 0.257581 0.0773151) 43947 87213 1
(0.463701 0.0215184 0.247661 0.267119) 43995 87309 2
(0.32675 0.253231 0.148984 0.271035) 43941 87201 2
(0.0865106 0.170473 0.287083 0.455933) 43946 87212 2
(0.766152 0.0732647 0.116283 0.0443005) 43943 87208 2
(0.1629 0.188278 0.407373 0.24145) 43993 87393 2
(0.00278567 0.502592 0.127036 0.367586) 44042 87403 1
(0.418651 0.217563 0.28993 0.073855) 43991 87304 2
(0.0303778 0.4021 0.104391 0.463131) 44038 87395 2
(7.56756e-09 2.24968e-09 0.983865 0.0161349) 43940 189906 2
(0.0937941 0.0651153 0.450992 0.390099) 43989 87300 2
(0.125014 0.455083 0.394022 0.0258797) 43989 87385 2
(0.295676 0.0889592 0.352629 0.262736) 44081 87484 2
(0.520143 0.240951 0.19117 0.0477358) 44038 87396 1
(0.179435 0.0383268 0.375722 0.406516) 44032 87383 2
(0.141612 0.430337 0.110365 0.317686) 44033 87388 1
(0.715249 0.142437 0.13492 0.00739512) 44032 87386 1
(0.707653 0.146812 0.0205551 0.124979) 44083 87488 1
(0.390839 0.326496 0.281909 0.000755587) 44080 87479 1
(0.279021 0.360709 0.331599 0.0286712) 44030 87382 1
(0.200921 0.400242 0.187355 0.211482) 44127 87576 1
(0.0937792 0.237154 0.233782 0.435285) 44123 87565 2
(0.0833711 0.460329 0.253239 0.20306) 44075 87470 1
(0.673644 0.0569052 0.159665 0.109787) 44125 87657 2
(0.670573 0.0603095 0.115183 0.153934) 44118 87555 2
(0.76374 0.12707 0.0233531 0.0858367) 44122 87651 1
(0.0727613 0.464464 0.199216 0.263558) 44122 87566 1
(0.421358 0.290124 0.202554 0.0859642) 44167 87654 1
(0.291562 0.114078 0.35377 0.240591) 44213 87748 2
(0.360262 0.320105 0.0827641 0.23687) 44167 87654 1
(0.00615688 0.518944 0.0279684 0.446931) 44209 87737 2
(0.0600853 0.471364 0.0403313 0.42822) 44261 87841 1
(0.154669 0.424125 0.109538 0.311668) 44211 87744 1
(0.673626 0.0451296 0.117478 0.163767) 44259 87838 2
(0.115827 0.442917 0.125603 0.315654) 44258 87838 1
(0.00503111 0.246068 0.255612 0.493289) 44445 88209 2
(0.529487 0.249752 0.137639 0.0831217) 44254 87827 1
(0.0548466 0.473053 0.254547 0.217554) 44258 87838 1
(0.518018 0.0427175 0.237758 0.201506) 44255 87917 2
(0.468855 0.213767 0.079551 0.237827) 44295 87909 2
(0.361019 0.0209518 0.320703 0.297326) 44343 88008 2
(0.329057 0.107091 0.228793 0.335059) 44346 88012 2
(0.229197 0.386359 0.0375432 0.346901) 44347 88016 1
(0.2229 0.101244 0.287936 0.38792) 44342 88004 2
(0.463987 0.0415358 0.268384 0.226093) 44342 88006 2
(0.0926871 0.45327 0.41163 0.0424128) 44348 88018 1
(0.342838 0.327971 0.00974005 0.319451) 44346 88012 1
(0.0088019 0.0210596 0.493756 0.476383) 44342 88091 2
(0.00186884 0.556191 0.311175 0.130766) 44383 88085 1
(0.293453 0.35802 0.221203 0.127324) 44437 88281 1
(0.455925 0.21615 0.0608437 0.267081) 44484 88287 2
(0.501156 0.0363085 0.249266 0.213269) 44436 88194 2
(0.45332 0.110868 0.162784 0.273028) 44433 88186 2
(0.164943 0.41859 0.384442 0.0320247) 44436 88192 1
(0.407592 0.296571 0.17858 0.117257) 44430 88182 1
(1.99934e-09 0.157111 0.842889 4.68345e-10) 44424 141830 1
(0.193632 0.164632 0.381108 0.260628) 44427 88261 2
(0.209788 0.0460776 0.395179 0.348956) 44477 88276 2
(0.269603 0.383107 0.147345 0.199945) 44473 88265 1
(0.515647 0.0275942 0.217007 0.239752) 44475 88269 2
(0.253612 0.373636 0.0397925 0.332959) 44525 88372 1
(0.640969 0.183452 0.143818 0.0317611) 44473 88353 1
(0.573294 0.23243 0.042572 0.151704) 44473 88353 1
(0.270207 0.239118 0.348702 0.141973) 44476 88359 2
(0.342176 0.0392204 0.289372 0.329232) 44654 88628 2
(0.565373 0.0932111 0.216845 0.124571) 44518 88358 2
(0.0810388 0.363962 0.0962212 0.458778) 44521 88362 2
(0.0970049 0.130784 0.443418 0.328793) 44521 88449 2
(0.159509 0.218481 0.620668 0.00134226) 44512 141918 1
(0.437135 0.297418 0.261233 0.00421357) 44566 88451 1
(0.229754 0.121518 0.336264 0.312464) 44512 88432 1
(0.369339 0.339499 0.282457 0.00870547) 44517 88441 2
(0.264454 0.191552 0.176938 0.367057) 44565 88450 2
(0.604618 0.199288 0.159107 0.0369869) 44565 88450 1
(0.204818 0.397792 0.0343413 0.363049) 44755 88830 1
(0.391138 0.306714 0.230616 0.071532) 44702 88811 1
(0.166374 0.176919 0.416662 0.240045) 44607 88536 2
(0.517524 0.208143 0.0457902 0.228542) 44609 88537 2
(0.102 0.435824 0.0148175 0.447359) 44562 88444 2
(0.222065 0.340958 0.365614 0.0713636) 44564 88535 2
(0.554412 0.0542507 0.174731 0.216606) 44605 88529 2
(0.316875 0.191248 0.168578 0.3233) 44605 88529 2
(0.913063 0.0435715 0.000818855 0.0425471) 44793 88905 1
(0.342134 0.241077 0.299365 0.117424) 44603 88613 2
(0.686389 0.151443 0.0366392 0.125528) 44600 88522 1
(0.158964 0.117354 0.414072 0.309611) 44654 88715 2
(0.0088299 0.496304 0.258895 0.235971) 44605 88532 1
(0.0858309 0.489576 0.123429 0.301164) 44646 88611 1
(0.788748 0.105452 0.0486138 0.0571857) 44651 88624 1
(0.858399 0.0368617 0.0345448 0.070195) 44794 88907 2
(0.424938 0.149068 0.151312 0.274682) 44694 88707 2
(0.0332651 0.5097 0.0788552 0.37818) 44653 88713 1
(0.127718 0.346972 0.123117 0.402194) 44693 88705 2
(0.484398 0.258381 0.0778342 0.179387) 44694 88710 1
(0.160698 0.123625 0.403477 0.312199) 44691 88789 2
(0.0218433 0.0157555 0.487754 0.474647) 44694 88795 2
(0.396696 0.30796 0.240591 0.0547527) 44693 88793 1
(0.487527 0.256398 0.0567087 0.199366) 44741 88802 1
(0.281462 0.372727 0.217769 0.128042) 44830 88979 1
(0.103801 0.44896 0.124509 0.32273) 44830 88982 1
(0.240724 0.264171 0.11676 0.378345) 44784 88888 2
(0.573343 0.213948 0.17348 0.039229) 44782 88884 1
(0.117114 0.0282721 0.441027 0.413587) 44828 88978 2
(0.250726 0.374635 0.120614 0.254025) 44829 88978 1
(0.804588 0.0233041 0.0951037 0.0770047) 44824 89055 2
(0.190075 0.301526 0.400666 0.107732) 45015 89437 2
(0.398084 0.301411 0.126221 0.174284) 44920 89160 1
(0.0944571 0.0611043 0.446945 0.397494) 44825 89057 2
(0.18997 0.25228 0.404342 0.153409) 44872 89066 2
(0.0180009 0.303432 0.489896 0.188671) 44917 89156 2
(0.763712 0.121311 0.0473249 0.0676516) 44917 89153 1
(0.637955 0.0870316 0.172987 0.102027) 44869 89145 2
(0.155061 0.368277 0.421383 0.0552798) 44914 89150 2
(0.297236 0.151448 0.339501 0.211816) 44915 89237 2
(0.278955 0.0223216 0.338206 0.360517) 44959 89238 2
(0.490725 0.228289 0.240849 0.0401376) 44961 89329 2
(0.270705 0.151012 0.214031 0.364253) 44960 89240 2
(0.897646 0.0511931 0.0498812 0.00127974) 44959 89240 1
(0.777641 0.122169 0.0658313 0.0343589) 44999 89317 1
(0.85947 0.0757036 0.0579206 0.00690579) 45003 89325 1
(0.101665 0.182214 0.436273 0.279847) 45004 89415 2
(0.814111 0.0996852 0.0105016 0.0757022) 45003 89413 1
(0.348762 0.135405 0.192477 0.323356) 45234 89787 2
(0.376938 0.312 0.112429 0.198633) 45095 89512 1
(0.526061 0.251827 0.0844198 0.137692) 45043 89405 1
(0.610494 0.163407 0.182053 0.0440457) 45047 89501 2
(0.0659158 0.482758 0.201053 0.250273) 45092 89503 1
(0.293643 0.0701093 0.347193 0.289054) 45046 89499 2
(0.135797 0.432968 0.287389 0.143846) 45093 89506 1
(0.24868 0.382209 0.0714157 0.297695) 45189 89785 1
(0.315668 0.342345 0.0862448 0.255742) 45238 89796 1
(0.35452 0.323003 0.290464 0.0320137) 45094 89510 1
(0.463011 0.00198815 0.268154 0.266847) 45086 89579 2
(0.0123074 0.496196 0.455897 0.0355989) 45091 89589 1
(0.3619 0.322116 0.0423705 0.273613) 45137 89593 1
(0.131483 0.439885 0.396119 0.0325126) 45090 89587 2
(0.23449 0.614472 0.151038 1.18241e-10) 45128 142534 1
(0.386635 0.352927 0.170661 0.0897772) 45129 89665 1
(0.584088 0.208297 0.109626 0.0979881) 45225 89772 1
(0.244651 0.404746 0.185823 0.16478) 45220 89759 1
(0.217903 0.391805 0.0646628 0.325629) 45366 90054 1
(0.839374 0.0857427 0.0445307 0.0303527) 45221 89761 1
(0.589135 0.205668 0.109704 0.0954938) 45224 89768 1
(0.0371273 0.482867 0.384436 0.0955695) 45220 89760 1
(0.0877542 0.456675 0.265147 0.190423) 45264 89850 1
(0.154484 0.236082 0.201362 0.408072) 45313 89945 2
(0.161259 0.40597 0.41858 0.0141909) 45310 89942 2
(0.0668053 0.19598 0.465894 0.27132) 45356 90034 2
(0.532709 0.0893051 0.153105 0.224881) 45353 90025 2
(0.561999 0.206369 0.218462 0.0131694) 45404 90130 2
(0.492969 0.261378 0.00514755 0.240505) 45403 90125 2
(0.634135 0.186749 0.0672756 0.111841) 45403 90125 1
(0.126318 0.114262 0.436552 0.322868) 45393 90108 2
(0.0966585 0.373399 0.078922 0.45102) 45494 90308 2
(0.401598 0.298545 0.00118169 0.298675) 45540 90400 2
(0.19453 0.412332 0.277191 0.115948) 45444 90295 1
(0.226332 0.286997 0.370742 0.11593) 45446 90299 2
(0.444967 0.171894 0.116248 0.266891) 45489 90297 2
(0.248358 0.390191 0.201825 0.159625) 45489 90297 1
(0.398993 0.157126 0.143799 0.300083) 45486 90292 2
(0.27444 0.361889 0.101874 0.261797) 45482 90284 1
(0.547765 0.182441 0.0526993 0.217095) 45535 90389 2
(0.494261 0.230714 0.232663 0.0423629) 45486 90379 2
(0.193679 0.404573 0.0249499 0.376798) 45535 90389 1
(0.199051 0.400547 0.40016 0.000242691) 45580 90482 2
(0.00340083 0.47869 0.499269 0.0186399) 45528 90378 2
(0.582765 0.209137 0.000803684 0.207294) 45532 90383 1
(0.295508 0.363613 0.101802 0.239077) 45580 90567 1
(0.0573964 0.475099 0.246813 0.220691) 45674 90755 1
(0.0799525 0.460635 0.459047 0.000366028) 45570 90462 1
(0.650446 0.174851 0.116327 0.0583761) 45624 90570 1
(0.361142 0.00355433 0.316264 0.31904) 45668 90655 2
(0.178485 0.411385 0.124877 0.285253) 45620 90562 1
(0.438482 0.294442 0.100596 0.166481) 45620 90647 1
(0.428436 0.280278 0.00629753 0.284988) 45667 90654 2
(0.547807 0.23261 0.0531617 0.166422) 45661 90641 1
(0.336417 0.331841 0.00343306 0.328309) 45668 90656 1
(0.3114 0.143427 0.200952 0.344221) 45711 90742 2
(0.212495 0.157955 0.38332 0.246231) 45708 90823 2
(0.425143 0.126971 0.278441 0.169445) 45708 90823 2
(0.051733 0.492311 0.285994 0.169962) 45754 90827 1
(0.291442 0.281134 0.329568 0.0978558) 45706 90819 2
(0.261121 0.369569 0.365601 0.00370946) 45803 90928 1
(0.0140413 0.49291 0.0705711 0.422477) 45753 90826 1
(0.0595679 0.47491 0.397703 0.0678195) 45753 90913 1
(0.329021 0.299886 0.0365469 0.334545) 45799 90918 2
(0.00551133 0.498135 0.389649 0.106705) 45797 90914 1
(0.115193 0.137916 0.434847 0.312044) 45799 91005 2
(0.157467 0.389954 0.0322627 0.420316) 45845 91010 2
(0.43486 0.243053 0.28219 0.039897) 45839 91000 2
(0.242539 0.160845 0.218275 0.37834) 45880 91080 2
(0.629525 0.197363 0.02533 0.147782) 45884 91175 1
(0.423071 0.288795 0.00677626 0.281357) 45933 91185 1
(0.173166 0.386736 0.363749 0.0763488) 45879 91165 2
(0.227079 0.402846 0.00637474 0.3637) 45930 91179 2
(0.554947 0.228225 0.100102 0.116726) 45976 91359 1
(0.0899667 0.461478 0.258647 0.189909) 46024 91367 1
(0.432377 0.286191 0.0389721 0.242459) 46018 91355 1
(0.0038373 0.508604 0.216392 0.271166) 46064 91447 1
(0.306945 0.0540401 0.29495 0.344065) 46064 91447 2
(0.106448 0.0813345 0.446613 0.365605) 46064 91450 2
(0.174037 0.293295 0.120306 0.412362) 46060 91440 2
(0.300917 0.318568 0.0310701 0.349445) 46064 91448 2
(0.388974 0.0894509 0.302021 0.219554) 46065 91537 2
(0.782357 0.109772 0.0471241 0.0607472) 43405 86217 1
(0.103149 0.12328 0.445671 0.3279) 43394 86195 2
(0.205942 0.146773 0.257481 0.389803) 41926 83171 2
(0.498087 0.194543 0.0937064 0.213664) 41786 82891 2
(0.0635689 0.26793 0.200736 0.467765) 41792 82904 2
(0.588201 0.206322 0.0529581 0.152519) 41790 82900 1
(0.719893 0.0432375 0.135641 0.101228) 41789 82985 2
(0.375097 0.13078 0.248977 0.245146) 41828 83064 1
(0.0715173 0.464154 0.0304892 0.433839) 41785 82892 1
(0.121063 0.440454 0.379188 0.0592941) 41881 83082 1
(0.827363 0.0865551 0.0736037 0.0124779) 41786 82892 1
(0.0551384 0.383404 0.471144 0.0903136) 41923 83168 2
(0.442455 0.284897 0.0465439 0.226104) 41832 82983 1
(9.51257e-09 6.47321e-10 0.896093 0.103907) 41784 187750 2
(0.169308 0.219489 0.414747 0.196456) 41875 83072 2
(1.12699e-08 0.57229 0.42771 1.27573e-12) 41784 139190 1
(0.472794 0.26723 0.189613 0.0703638) 41883 83173 1
(0.641717 0.19084 0.0645273 0.102916) 41965 83337 1