/*--------------------------------*- C++ -*----------------------------------*\
  =========                 |
  \\      /  F ield         | OpenFOAM: The Open Source CFD Toolbox
   \\    /   O peration     | Website:  https://openfoam.org
    \\  /    A nd           | Version:  7
     \\/     M anipulation  |
\*---------------------------------------------------------------------------*/
FoamFile
{
    version     2.0;
    format      ascii;
    class       scalarField;
    location    "0.12/lagrangian/reactingCloud1";
    object      tTurb;
}
// * * * * * * * * * * * * * * * * * * * * * * * * * * * * * * * * * * * * * //


843
(
0.0016007
0.006345
0.00247333
0.006273
0.006297
0.002563
0.00084355
0.000832556
0.000820616
0.0032827
0.00103055
0.00229776
0.006057
0.00188105
0.00048285
0.000690296
0.000378
0.000266
0.001932
0.00163985
0.00090005
0.00167155
0.00212505
0.00099116
0.005793
0.0010202
0.00203
0.005817
0.00157555
0.00182211
0.00037605
0.005601
0.0021325
0.00182604
0.0036192
0.000465
0.00167183
0.005457
0.000363
0.00128755
0.00029605
0.00123955
0.005385
0.00165963
0.000313
0.00235984
0.005241
0.005289
0.00141401
0.005217
0.00383833
0.005169
0.00138916
0.005121
4.855e-05
0.001346
0.001314
0.004977
0.005073
0.001226
0.00124485
0.001275
0.004905
0.004881
0.00138825
0.001143
0.004857
0.001569
0.001545
0.0003987
0.001497
0.001473
2.36732e-05
0.001425
0.001401
0.001377
0.001353
0.001329
1.97e-05
0.001281
0.00128062
0.001257
0.001233
0.001209
0.001185
0.001161
0.001137
0.001113
0.001089
0.001065
0.001041
0.00042235
0.000993
0.000969
0.000945
0.000921
0.000897
0.00024205
0.000849
0.000825
0.0002117
0.000777
0.000753
0.000729
0.000705
0.000681
7.705e-05
0.000633
0.000609
0.000585
0.000561
0.000537
0.000513
0.000489
0.000465
0.000441
0.000417
0.000393
0.000369
0.000345
0.000321
0.000297
0.000273
0.000249
0.000225
0.000201
0.000177
0.000153
0.000129
0.000105
8.1e-05
5.7e-05
3.3e-05
9e-06
0.0001412
4.84683e-06
0.00086485
0.0003735
0.0009372
0.002841
0.002793
0.00228905
0.002745
0.002769
0.00020105
0.002721
0.002649
0.002577
0.00061355
0.002553
0.00117557
0.002529
0.002457
0.0010855
0.002481
0.00155085
0.002409
0.002433
0.002385
0.002361
0.002337
0.0009527
0.002313
0.000696348
0.002265
0.002289
0.002241
0.002217
0.002193
0.002145
0.002097
0.0001212
0.002073
0.002025
0.002049
0.002001
0.001953
0.001977
0.00030385
0.001929
0.0004885
0.001881
0.001833
0.001809
0.001857
0.001785
0.001737
0.000344
0.001689
0.001713
0.001665
0.001641
0.001617
0.001593
0.0003295
0.004017
0.003969
0.003993
0.003849
0.000234214
0.003873
0.003777
0.003753
0.003801
6.62e-05
0.003705
0.003681
0.003729
0.003609
0.00365662
0.00061885
0.003513
0.003657
0.003441
0.001334
0.003393
0.003489
0.003369
0.000390795
0.003297
0.00213304
0.003345
0.003225
0.003177
0.003129
0.00275135
0.003201
0.0002702
0.003273
0.003153
0.003249
0.002961
0.003081
0.00020505
0.003057
0.002889
0.002913
0.00231035
0.00060834
0.002985
0.0016165
0.000480597
8.235e-05
0.0003712
0.0001512
0.00100424
0.0010665
0.004713
0.0008235
0.004569
0.004617
0.004545
0.000593679
0.00120575
0.000761613
0.00101117
0.0009435
0.004425
0.004449
0.000664815
0.004353
0.004401
0.00078955
0.004329
0.000324192
0.000411261
0.004281
0.0002395
0.000703176
0.000399
0.004233
0.004113
0.004185
0.000375849
0.004137
0.000437
0.004041
0.004065
0.004089
0.00408085
0.0047965
0.0020655
0.00331655
0.0047532
0.00331755
0.0033167
0.0036922
0.00417855
0.00312485
0.004649
0.00470113
0.00495305
0.00442185
0.00112235
0.0001695
0.00073685
0.0009925
0.00373835
0.0081087
0.00555135
0.00025135
0.00232235
0.000303204
0.0010237
0.00606955
0.00022035
0.00419977
0.0041745
0.00227805
0.0013202
0.00441955
0.0033635
0.0021207
0.00279805
0.0031057
0.00320205
0.00450518
0.0031907
0.004481
0.00136085
0.000511688
0.001826
0.0019982
0.00228905
0.00239005
0.00039235
0.0010597
0.0036762
0.0008155
0.00041285
0.00498255
0.0008592
0.0002087
0.000691204
0.0004975
0.004049
0.00079305
0.00209508
0.00210635
0.00131635
0.00061285
0.00331855
0.003833
0.00187435
0.0002345
0.00311657
0.0074822
0.00213855
0.00372173
0.00074405
0.0024742
0.000125003
0.00407305
0.00495418
0.00123055
0.00111835
0.00413535
0.0012177
0.0021748
0.0021792
0.0035202
0.006689
0.0024662
0.0039287
0.00551035
0.0014635
0.00018205
0.00377555
0.00031635
0.00167785
0.00044305
0.00379935
0.00239523
0.0026432
0.00367935
0.0008887
0.0011987
0.001334
0.005161
0.00080605
0.00222805
0.00612766
0.00244055
0.00221785
0.00254185
0.00012105
0.00395435
0.0013132
0.0006757
0.00400235
5.67e-05
0.0033225
0.00327473
0.001447
0.00249435
0.0005647
0.00307935
0.000915705
0.00044085
0.00313605
0.005411
0.002297
9.72e-05
0.000968521
0.00524755
0.00310716
0.0026117
0.00237412
0.0009542
0.00137805
0.001721
0.00054735
0.0038395
0.00150852
5.335e-05
0.00025405
0.00197485
0.00097955
0.0027942
0.00312605
0.00551225
0.00342635
0.00503155
0.00070172
0.00199185
0.00561204
0.0086467
0.0001932
0.001961
0.009033
0.00337405
0.00323435
0.00418635
0.00321035
0.00114616
0.001769
0.008841
0.001721
0.00104733
0.001755
0.00260535
0.0007117
0.00223935
0.001553
0.0009405
0.00285035
0.008577
0.0026747
4.87e-05
0.000746619
0.000545805
0.00109705
0.00210355
3.12649e-05
0.001265
0.001241
0.001193
0.002973
0.00253835
0.00183135
0.00719309
0.00175935
0.003169
0.00173535
0.0032687
0.00140905
0.008121
0.003049
0.00330455
0.000280294
0.0025307
0.0025915
0.00274255
0.00148755
0.007977
0.00308235
0.00027455
0.000185748
0.007929
0.007881
0.00047405
0.0062912
0.0036137
0.007761
0.00196235
0.00749305
0.007641
0.002625
0.0039775
0.00407218
0.007521
0.00121835
0.00190263
0.00149902
0.007425
0.0012542
0.00161755
0.00359285
0.0018852
0.0017517
0.002257
0.007281
0.0061577
0.0006375
0.007257
0.00127606
0.0003895
0.00603372
0.00346051
0.00160869
0.00289155
0.00289555
0.00201605
0.00123785
0.00124235
0.00055935
0.00167557
0.006969
0.001485
0.00041585
0.0032308
0.00107435
0.0029865
0.006873
0.0014135
0.00262963
0.00289801
0.0002452
0.002747
0.00165835
0.00124755
0.00255955
0.006609
0.001569
0.00059705
0.006561
0.002761
0.00047835
0.00090955
0.0026736
0.000426779
0.00144435
0.00104523
0.006393
0.0012935
0.00099885
0.0057317
0.00453
0.0019187
0.00281555
0.00419085
0.0047387
0.00463135
0.0024162
0.00661735
0.0020702
0.005691
0.00040585
0.00317935
0.00368131
0.00560905
0.00392813
0.00295805
0.00147435
0.00050435
0.00546985
0.0001462
0.0009587
0.0061805
0.0039192
0.005743
0.002654
0.0044335
0.000441876
0.00592255
0.00148855
0.00394455
0.00562455
0.001938
0.000344204
0.003528
0.000819935
0.00257113
0.00028485
0.0020712
0.00180042
0.00240735
0.00310034
0.0013662
0.005201
0.00337205
0.0024232
0.0050465
0.00293255
0.0046892
0.0019017
8.605e-05
0.00389335
0.0011609
0.00439155
0.00135155
0.00043505
0.0020882
0.00014335
0.00279185
0.00622305
0.00306405
0.00454208
0.00150485
0.0022265
0.0006977
0.003041
0.003502
0.00060885
0.00257
0.00045128
0.002599
0.00232185
0.00493762
0.00163805
0.00134385
0.00505205
0.001543
0.00240757
0.00142855
0.0014692
0.00549405
0.00451885
0.0028417
0.00440355
0.00484135
0.0027047
0.00167935
0.00473855
0.00501127
0.0041552
0.001615
0.0019502
0.00322385
0.00267885
0.00436505
0.00337303
0.00136955
0.0023962
0.0018662
0.00472805
0.00274085
0.0002665
0.0045642
0.00483235
0.00409953
0.00409785
0.00442135
0.00109197
0.00275735
0.00441755
0.0025155
0.00521585
0.0002532
0.00262455
0.00097135
0.00213471
0.00252118
0.00372255
0.00297435
0.00502185
0.0016402
0.00501017
0.00386796
0.00027905
0.0030602
0.0027032
0.000352329
0.00240505
0.00417555
0.00399235
7.76543e-05
0.00259435
0.00459605
0.0032417
0.00362767
0.00221174
0.00468585
0.00559422
0.000194367
0.0033342
0.0031162
0.001914
0.0028442
0.00146285
0.0004065
0.0035412
0.0063317
0.0028837
0.00036855
0.00177785
0.00511321
0.0006687
0.0006577
0.0055362
0.00659071
0.00306105
0.003227
0.00267035
0.00627114
0.0021437
0.00374785
0.00494805
0.00294012
0.00050035
0.0018957
0.0030612
0.0041235
0.00401105
0.00298135
0.00145085
0.0048087
0.00190035
0.00192021
0.00076985
0.00014255
0.00415285
0.00269419
0.00132285
0.000479
0.00030355
0.0027825
0.0028682
0.000386687
0.00410455
0.00650435
0.00390205
0.0024132
0.00367272
0.00323235
0.00368605
0.00100329
0.0038062
0.00054335
0.00174925
0.00401855
0.0062602
0.00261255
0.00527021
0.0022337
0.00538
0.0019332
0.00449005
0.0017292
0.000745175
0.00479455
0.00236335
0.002649
0.0030212
0.0049338
0.0004517
0.0037047
0.00101631
0.00571555
0.00443318
0.00056655
0.00372316
0.000312
0.00244461
0.00528155
0.00437535
0.0031017
0.00193535
0.00283605
0.008137
0.00034555
0.0049742
0.0002987
0.00247585
0.0036302
0.00405734
0.00020905
0.00457785
0.00132
0.0001687
0.00116505
0.00300285
0.00194385
0.00233724
0.0020077
0.00377085
0.00043835
0.00095535
0.000449202
0.00452255
0.005467
0.0028942
0.0030552
0.00261385
0.0016497
0.00103755
0.003475
0.00318472
0.00589485
0.0044452
0.00082085
0.00243385
0.0058272
0.0043092
0.00341354
0.00245405
0.00448759
0.001624
0.00457412
0.00314417
0.0039242
0.00150235
0.0043705
0.00311635
0.00089505
0.0027885
0.0052317
0.00321199
0.0039672
0.006804
0.00455064
0.00195285
0.0003007
0.0013962
0.00208535
0.00224986
0.00195053
0.00138499
0.00625639
0.0036712
0.0063452
0.0023397
0.00436171
0.00357836
0.00692516
0.0032472
0.003387
0.00572735
0.0023202
0.0010442
0.0067325
0.00413635
0.00638363
)


// ************************************************************************* //
