/*--------------------------------*- C++ -*----------------------------------*\
  =========                 |
  \\      /  F ield         | OpenFOAM: The Open Source CFD Toolbox
   \\    /   O peration     | Website:  https://openfoam.org
    \\  /    A nd           | Version:  7
     \\/     M anipulation  |
\*---------------------------------------------------------------------------*/
FoamFile
{
    version     2.0;
    format      ascii;
    class       vectorField;
    location    "0.12/lagrangian/reactingCloud1";
    object      U;
}
// * * * * * * * * * * * * * * * * * * * * * * * * * * * * * * * * * * * * * //


843
(
(366.179 9.96717 2.72743)
(440.713 -0.045212 5.34334e-07)
(433.238 -0.0574051 6.3352)
(440.967 -0.0259706 -2.69689e-06)
(440.652 -0.0465644 -2.83073e-06)
(433.096 -0.448622 2.24235)
(433.117 -4.834 -10.8996)
(425.568 0.611229 3.63133)
(421.916 0.0602402 -2.6994)
(458.625 -13.8093 4.00492)
(386.725 7.35813 23.3509)
(443.136 -14.8265 2.28416)
(440.254 -0.0574029 -2.86632e-05)
(356.426 6.04753 -4.13875)
(426.278 0.939647 -1.24006)
(399.282 -0.989687 0.194257)
(417.116 8.17875 7.25404)
(344.128 15.316 -21.338)
(436.322 -8.32671 -1.69944)
(453.066 -21.5163 3.66567)
(417.948 -0.910723 1.3512)
(438.383 -1.04308 -2.38802)
(431.98 0.420926 0.212575)
(398.376 6.01575 16.4268)
(440.282 -0.0185221 1.55499e-07)
(390.071 5.21317 -3.84614)
(440.821 -7.96851 0.948069)
(439.408 -0.0429559 -2.26633e-05)
(436.416 -3.8809 -2.076)
(439.698 -3.31749 0.798914)
(380.152 13.0289 -8.6344)
(439.873 0.0230244 7.25111e-07)
(428.613 -6.74347 -3.66897)
(433.292 0.705242 -0.307626)
(438.956 -6.70918 3.08459)
(439.251 0.966934 2.47456)
(433.461 0.604221 -2.038)
(439.71 0.045338 9.48776e-07)
(423.083 -9.43089 -4.24004)
(432.261 4.18548 3.06903)
(421.888 3.11285 -3.08615)
(440.42 -6.68669 3.16669)
(439.391 0.128596 1.5146e-06)
(439.114 -0.907003 -1.03067)
(440.428 -1.746 1.57641)
(437.901 -4.80828 7.86961)
(438.991 0.217433 1.15173e-06)
(438.458 0.436256 -0.000138456)
(432.601 2.17549 -0.666489)
(438.663 0.371682 -1.47294e-06)
(449.899 -11.1382 3.81306)
(438.541 0.383758 -3.07107e-05)
(433.133 4.14461 0.0219536)
(438.681 0.0339657 -2.04277e-07)
(436.736 -0.331426 0.0413558)
(421.138 -2.41871 0.264634)
(436.563 0.12597 -2.25574)
(437.653 0.147823 -1.22998e-05)
(436.371 1.14129 -7.33043e-05)
(430.41 2.43307 1.16069)
(412.291 4.1562 -0.0958216)
(449.639 -17.6119 6.02608)
(435.913 0.969404 -2.82243e-06)
(435.776 0.875264 -0.00011211)
(419.322 4.79988 0.3326)
(432.944 -5.75708 -3.10457)
(434.647 1.23008 -5.71777e-06)
(125.799 13.7758 0.000508572)
(122.263 19.4809 -0.00072369)
(99.0633 25.1212 17.1457)
(128.679 16.6506 0.00180229)
(133.686 10.2892 0.000541114)
(120.561 27.5523 -8.14333)
(131.003 21.1754 0.00104961)
(125.15 32.1052 0.000554195)
(138.891 10.1254 0.000195492)
(134.089 26.8186 0.000359337)
(132.184 32.2361 -1.83792e-05)
(101.961 -2.89427 -14.8031)
(143.398 20.3356 -0.000778975)
(144.228 7.70323 -3.3945e-05)
(145.697 12.6182 -0.000613075)
(147.445 18.6235 -0.00139607)
(148.288 10.2 -0.000593402)
(150.069 12.6745 -0.00131348)
(149.568 5.56977 -0.000426728)
(150.966 5.91011 -9.28563e-05)
(151.629 4.60987 -0.000107019)
(154.14 8.87342 -9.83743e-05)
(162.014 19.7929 -0.000273001)
(162.302 16.3102 -0.00316163)
(132.591 1.6751 0.0774572)
(163.326 12.6091 -0.000868504)
(158.797 6.83358 -0.000948288)
(162.774 9.08187 -0.000758004)
(157.933 2.30523 -9.03211e-05)
(161.471 5.95195 -2.10936e-05)
(74.526 -0.749238 -0.205978)
(169.359 8.74987 -0.00135141)
(161.159 3.24385 -0.00043904)
(103.166 3.77266 7.67992)
(162.892 3.55165 0.000154218)
(162.136 2.45523 -2.21211e-05)
(166.028 3.98984 -0.000853497)
(167.394 3.4577 -0.00136887)
(168.1 2.17041 -0.00111237)
(163.543 -0.100567 0.0422385)
(163.15 1.13227 3.65837e-05)
(163.492 1.11818 -9.88996e-05)
(164.031 1.45222 -0.000505017)
(164.694 1.61743 -1.36272e-05)
(166.798 0.948399 -8.05968e-05)
(164.836 1.36971 2.88709e-05)
(106.075 -0.159212 -4.17947e-07)
(164.639 0.885705 -8.38305e-05)
(164.578 0.592548 1.27364e-05)
(165 0.899312 -1.22547e-05)
(84.6986 -0.124342 2.66969e-07)
(166.09 0.205876 7.93049e-05)
(121.951 -0.135773 -0.000223614)
(165.917 0.0888354 8.5007e-05)
(165.872 0.0925037 0.000439207)
(165.841 0.257773 0.000100238)
(165.79 0.260819 -1.97116e-05)
(165.722 0.357046 0.000231639)
(165.727 0.180615 0.000330824)
(164.677 -0.170151 1.46453e-05)
(165.572 0.581235 9.5348e-05)
(165.531 0.556498 4.10853e-05)
(165.637 0.0214581 0.000138549)
(165.615 0.381848 3.43572e-05)
(165.555 0.491875 4.1158e-05)
(165.586 0.539754 2.22814e-05)
(165.575 0.539532 -3.5245e-07)
(18.7482 -0.122905 4.4113)
(27.7661 -6.18318 2.39996)
(93.7699 -14.421 1.13485)
(43.3257 -4.50913 0.205653)
(98.1998 -14.3739 -0.732727)
(107.211 -15.4668 0.00270272)
(109.776 -15.0846 0.000997322)
(99.3216 -17.8548 3.95811)
(127.702 -8.78122 -2.03864e-05)
(119.737 -13.749 0.000314997)
(60.1978 -7.44176 0.174929)
(114.101 -13.5005 0.000116195)
(112.394 -11.9618 0.00178415)
(125.916 -1.41381 -5.52267e-05)
(87.3282 -9.21608 -1.53347)
(109.321 -10.2269 0.000551034)
(94.8051 -20.6738 -2.64606)
(110.838 -9.34981 1.80565e-05)
(116.014 -6.31181 1.62567e-05)
(74.9562 1.72663 -2.06952)
(103.649 -8.76293 6.86346e-05)
(110.143 -18.6645 8.10183)
(114.351 -5.76503 0.000469337)
(108.54 -7.41461 0.000260086)
(114.31 -5.2176 0.00141307)
(113.108 -4.90657 0.00012349)
(98.8706 -5.35749 0.00239779)
(75.7903 -6.26016 -4.57882)
(108.875 -4.45208 0.000432009)
(19.5824 5.46453 -1.97479)
(114.764 -2.70612 0.00157118)
(106.765 -4.06469 0.000955083)
(110.527 -2.61512 0.000123587)
(115.069 -1.7439 0.000870596)
(109.369 -1.4862 0.000159392)
(119.268 -0.349652 0.000398401)
(111.552 0.873876 0.00152844)
(92.7259 2.33534 -0.0272377)
(108.286 1.7328 0.00139847)
(120.04 0.997279 0.000734647)
(106.805 2.67941 0.000658938)
(116.227 2.45687 0.000922203)
(119.154 2.53611 0.000473799)
(108.14 4.74797 0.000334054)
(57.3647 10.781 -8.68481)
(114.926 4.73267 -0.000106185)
(87.0651 18.7649 7.21635)
(99.1106 10.4117 0.00034183)
(121.434 4.34162 0.000740343)
(121.493 5.04324 -0.00026548)
(93.719 13.1213 0.00142927)
(104.477 13.7476 0.00598996)
(125.413 4.28125 -0.000116714)
(101.228 15.5159 -2.74708)
(121.144 10.6169 0.00168879)
(115.861 12.7812 -0.000532019)
(125.442 7.98914 -6.11815e-05)
(127.776 6.1675 -0.000257088)
(128.638 6.55097 -2.27383e-05)
(129.911 6.03076 0.000479962)
(286.504 -24.9655 -6.79117)
(348.115 -5.93366 -0.0017425)
(347.845 -2.59283 -0.00094671)
(338.273 -9.2073 0.000155384)
(318.564 -1.74433 -9.82775e-05)
(303.072 -37.8587 3.91636)
(307.246 -16.6159 -0.00415255)
(289.905 -10.9832 -0.000833838)
(279.454 -15.2788 -0.00126196)
(266.356 -32.982 0.00105352)
(209.643 -42.7654 -1.71203)
(222.341 -38.3313 0.00275524)
(214.515 -37.9426 0.00138704)
(205.827 -43.5532 0.00145622)
(205.468 -33.5141 0.000254876)
(188.525 -40.1245 0.000980088)
(161.316 -45.7195 0.451886)
(198.225 -25.2247 0.000313522)
(166.124 -40.5682 0.00499565)
(185.728 -23.3344 0.000228293)
(150.442 -38.2298 0.0298406)
(173.676 -25.416 0.00063152)
(161.888 -34.8092 0.000122494)
(169.279 -24.9023 4.70194e-06)
(146.166 -35.8414 0.703392)
(169.268 -17.7776 0.000992411)
(138.939 -37.3868 1.32024)
(147.927 -30.291 0.00279536)
(161.143 -16.0409 1.00732e-06)
(157.624 -13.5449 -1.02514e-05)
(156.015 -8.50689 -2.27854e-05)
(129.673 -36.2438 -0.850874)
(147.114 -22.5429 0.000455492)
(120.425 -30.9714 -0.57719)
(133.57 -28.8548 0.00321505)
(134.86 -24.1413 0.000244091)
(123.158 -27.0132 0.00546212)
(143.169 -5.76905 3.16067e-07)
(130.133 -22.2095 0.00165897)
(106.432 -23.3479 -1.8588)
(123.435 -21.9471 0.00104984)
(136.567 -8.524 -1.15897e-05)
(130.126 -15.1173 -0.000178837)
(132.889 -31.8071 1.40399)
(111.298 -17.0551 0.68507)
(117.826 -19.7823 -0.000966509)
(116.58 -27.572 0.171775)
(117.714 -14.0551 -10.7983)
(397.287 1.24692 -1.95278)
(364.15 3.95606 -2.84402)
(390.065 -6.36637 1.34922)
(434.98 -11.6704 -6.86232)
(417.744 8.18301 -8.51305)
(431.602 1.07367 -2.46302e-06)
(423.113 1.41738 -0.989422)
(425.975 0.63915 8.47082e-05)
(424.541 1.23454 0.00010355)
(425.518 0.337461 1.44732e-06)
(419.209 -4.06051 -2.02393)
(406.157 4.63841 3.92575)
(422.903 7.5684 13.6252)
(389.684 6.08947 -12.9612)
(418.904 -9.85627 -11.3403)
(413.769 0.042031 1.48703e-05)
(413.131 0.0835151 0.000112801)
(382.779 1.85417 -9.16145)
(408.57 -0.284253 2.25984e-05)
(408.062 -0.38834 0.000443166)
(400.984 -2.02913 3.33705)
(401.874 -0.731594 0.00011744)
(400.643 -2.75393 2.58596)
(379.477 -1.46941 0.157654)
(395.432 -1.0725 -0.000144549)
(398.584 4.01029 -0.449858)
(376.846 -5.79729 -4.06233)
(387.958 2.64307 -2.41096)
(385.072 -2.09696 0.00109599)
(376.116 -1.09071 0.000702324)
(372.135 -4.04031 0.000759926)
(371.709 -9.06553 -1.63592)
(371.597 -2.76439 -0.000519783)
(341.539 -7.66656 1.96642)
(368.552 -0.0949057 6.64878e-05)
(364.884 -2.13538 -0.000334977)
(356.728 -5.63588 -0.00104902)
(349.176 8.06816 3.20707)
(350.194 -5.09045 10.1948)
(367.749 3.17665 0.329433)
(375.622 -0.651598 -0.0453689)
(361.829 1.22824 1.18545)
(362.17 3.1507 9.2009)
(374.943 -3.3002 3.86454)
(359.706 6.51208 1.11692)
(378.75 1.62803 -1.85748)
(391.805 3.61185 0.493842)
(344.649 9.96125 -2.21809)
(324.213 2.70779 -2.52335)
(351.725 5.41721 2.07609)
(342.347 11.885 9.76512)
(366.364 -9.19286 6.52226)
(376.582 -8.59287 -1.92239)
(402.881 -8.39224 11.2887)
(378.527 39.0222 0.834752)
(392.833 3.98716 5.4798)
(426.692 -9.59326 -11.4313)
(436.958 -2.4678 0.0705114)
(412.184 -1.55386 4.21328)
(410.735 -2.58817 1.80571)
(435.677 0.00256121 0.0366669)
(384.158 -0.65291 -0.304054)
(439.252 -10.4979 1.93162)
(409.62 -1.44593 1.67603)
(437.239 -4.98884 1.59325)
(433.955 -0.254053 -0.174289)
(396.621 0.404962 0.973498)
(407.013 4.60678 -4.28212)
(330.137 13.1666 -8.17105)
(439.828 -1.97485 1.95681)
(436.525 4.18345 2.0328)
(365.355 16.9267 -8.60786)
(384.812 3.14503 8.30964)
(398.896 -0.2869 0.361145)
(432.793 0.298563 2.47434)
(430.73 -11.4251 5.53327)
(441.692 -4.84126 -0.676419)
(429.387 -4.86268 16.2996)
(439.805 6.6563 -1.31581)
(431.421 -9.96638 0.268944)
(426.599 -2.05083 -13.9072)
(374.547 13.7318 -4.4279)
(406.681 2.35295 -7.45057)
(414.461 17.0572 -17.1546)
(407.002 -14.1709 12.4854)
(406.282 -1.26066 -0.246001)
(425.437 0.263137 -1.20978)
(416.757 -1.4784 3.2609)
(427.227 -14.4898 4.80045)
(432.72 0.2144 -5.02183)
(432.946 0.296587 1.4679)
(437.952 2.37359 5.55695)
(398.487 1.74055 2.3286)
(430.475 0.40899 2.45954)
(434.072 -14.2324 14.3743)
(420.973 11.6186 -4.0789)
(391.168 2.77576 -1.35462)
(413.162 1.65598 0.755287)
(409.977 14.4851 -0.369584)
(361.473 4.71488 21.0533)
(427.656 2.27184 3.01693)
(388.186 8.38197 -0.795462)
(445.042 0.0729546 -3.48059)
(438.306 1.63078 -2.95624)
(438.462 -7.55175 -3.36614)
(393.778 -6.783 2.16114)
(379.61 10.0894 8.32891)
(427.208 -5.75405 -0.339477)
(402.107 0.0844505 -10.3814)
(436.934 0.000390186 0.0553015)
(442.391 -11.1811 -26.5131)
(433.676 -7.54183 9.06609)
(378.166 -3.70921 19.2492)
(415.398 -6.54812 -10.9669)
(450.078 -3.84215 5.87134)
(436.806 1.6184 -0.287031)
(439.871 0.136371 -0.386251)
(397.897 5.93029 -8.68768)
(419.3 -1.41639 0.511765)
(440.243 -6.71502 -0.768916)
(382.048 6.38732 -2.73809)
(427.087 -4.86273 2.88508)
(464.681 -12.4092 -7.28126)
(414.565 8.97612 -2.42121)
(443.125 -0.704114 -1.98341)
(432.474 -10.8946 -1.2218)
(435.192 -0.541194 0.919288)
(443.202 -14.7023 -1.87095)
(400.183 -4.62444 -2.58829)
(433.151 0.0885286 0.754863)
(441.084 -0.0471903 5.46617)
(373.476 9.22895 5.61515)
(429.714 2.40473 -8.4003)
(395.152 0.658757 20.156)
(393.372 -2.97751 2.81045)
(350.908 -0.592192 0.210496)
(426.738 -3.02336 -3.71539)
(394.836 -1.95355 4.6371)
(435.612 -2.59959 0.363559)
(442.039 -7.10878 3.54408)
(418.87 -17.9156 24.2852)
(408.44 -0.690598 -2.31165)
(387.575 0.681506 0.607321)
(430.077 -4.89681 -3.82737)
(447.958 -2.43251 8.27703)
(367.515 17.449 16.8462)
(402.563 -8.29884 15.868)
(432.202 -1.66913 -0.574029)
(442.465 -2.84322 -9.49519)
(369.208 8.20629 8.58167)
(361.265 15.5266 2.24365)
(384.136 2.38183 -1.94856)
(420.957 -0.734016 0.56882)
(385.676 -2.22319 0.165271)
(438.746 -0.680742 0.281557)
(443.133 -0.0027803 -0.00309148)
(446.81 -3.51228 -3.63023)
(413.604 -4.53784 5.09218)
(435.221 -5.53812 -1.02412)
(443.141 3.98084 -5.85781)
(380.496 10.3383 14.8502)
(444.403 1.21077 -0.9904)
(443.017 -5.24924 -7.61711)
(426.666 -3.70063 2.80307)
(390.376 -9.35706 10.3315)
(438.605 -8.2756 -2.64925)
(424.044 11.0084 8.41326)
(417.911 1.36047 -2.72449)
(442.702 0.309289 -1.28087)
(425.069 9.48653 -3.36512)
(438.743 -23.3609 22.7109)
(438.05 -0.849887 2.62051)
(428.325 -2.10473 -3.07355)
(422.412 10.9597 -23.6863)
(350.392 -2.39095 -6.30684)
(367.189 8.0434 5.19869)
(430.583 -9.31603 7.15302)
(424.32 -3.81316 0.106249)
(440.187 -8.53413 -2.75805)
(430.653 1.4632 -0.279887)
(437.057 -5.26008 -11.5247)
(442.105 5.13263 4.84139)
(353.85 12.9756 -3.51556)
(434.524 -11.5927 16.0408)
(441.798 -12.0153 10.8005)
(419.411 6.42857 -1.78404)
(438.794 -2.7595 0.672035)
(442.914 -0.0024552 -3.43269e-07)
(441.766 -8.72663 6.2956)
(356.55 22.8867 0.483436)
(433.594 -9.87448 0.268157)
(425.731 3.23743 0.824588)
(442.258 -2.40128 -1.26988)
(437.279 -0.0871067 -0.255524)
(442.744 -0.000796508 -8.96926e-06)
(440.196 -0.290328 0.55334)
(451.813 -7.35943 3.34697)
(426.198 -0.624989 0.0691514)
(410.362 -4.29965 -2.44221)
(411.131 -0.045375 -0.115575)
(440.167 2.08647 -9.07973)
(440.466 -1.29347 -0.8606)
(431.386 1.16751 -6.90676)
(425.668 2.68495 7.07824)
(442.62 0.00830264 -2.58796e-06)
(359.892 10.5697 -2.02237)
(404.641 -8.31526 -3.89645)
(444.1 0.734889 1.7735)
(430.702 1.4026 0.727452)
(426.941 -10.7076 -6.71996)
(425.709 -3.63224 3.26728)
(442.217 -0.413037 5.77325)
(441.501 0.637875 0.192663)
(433.899 5.05142 -2.79127)
(443.377 0.0291392 0.892472)
(431.895 -5.51842 7.50552)
(440.325 -0.32372 0.643214)
(441.796 0.299962 -0.214158)
(441.927 -11.591 3.39712)
(440.677 -1.16347 -1.87503)
(431.916 0.230391 -5.10268)
(443.394 -1.60862 3.0394)
(350.701 10.8437 0.795497)
(407.708 1.086 0.26518)
(442.664 0.00746312 -4.14355e-06)
(443.033 -3.41432 -0.213179)
(437.761 -9.49759 8.56861)
(444.904 4.79183 1.58485)
(426.463 -5.83218 -1.86006)
(368.371 13.4828 -13.3199)
(358.084 16.442 -0.398161)
(419.672 2.10778 -4.63873)
(442.646 0.0100219 -3.09185e-07)
(439.105 -12.9897 13.3196)
(439.743 -0.948357 -1.21822)
(436.769 -0.0413529 1.85621)
(442.675 0.000690259 -1.04497e-07)
(442.646 0.00637331 -1.40957e-06)
(423.13 -5.71491 -2.13239)
(443.254 -13.0984 -2.72557)
(359.061 8.5515 -4.70861)
(442.326 0.00781194 -4.59147e-06)
(439.53 0.335716 1.0348)
(442.076 -11.3001 -2.24797)
(442.343 0.00783798 3.386e-06)
(433.725 1.01382 1.25921)
(454.428 -9.74532 4.44838)
(440.021 -6.43711 -4.09995)
(442.192 -0.000398851 -4.21243e-06)
(405.234 2.04851 -2.8937)
(420.905 -1.67437 -3.71619)
(426.043 0.79312 -3.45778)
(442.386 0.00359772 4.48697e-09)
(377.176 3.00877 3.44234)
(359.968 4.33905 1.7276)
(430.044 -5.16836 -2.008)
(431.699 -6.20889 -1.41396)
(426.477 -11.1031 3.62521)
(440.573 -0.697826 2.30661)
(441.971 0.00566936 -3.22786e-06)
(440.205 -14.7682 3.93698)
(421.509 -2.33703 0.0844339)
(441.881 0.00445857 -1.50421e-05)
(427.812 -1.23244 -1.03756)
(387.427 -0.904261 14.6875)
(443.324 -12.2139 20.4934)
(456.497 -8.18074 -7.37721)
(413.269 -1.59699 0.982522)
(350.105 7.56245 3.2188)
(442.991 -15.1757 -3.15653)
(413.96 -1.12774 1.26849)
(404.323 -1.2726 -6.843)
(438.695 0.943127 0.722849)
(440.551 0.019448 -0.0965547)
(417.56 -6.26764 -4.81209)
(441.868 0.010102 -2.58466e-06)
(417.338 -1.11018 -1.12663)
(429.332 -1.29339 5.2726)
(431.258 -10.8775 13.6181)
(440.731 -0.080171 -0.14217)
(427.174 -0.0384165 -0.458266)
(441.604 0.00802754 -1.42408e-05)
(367.895 3.87941 -4.32214)
(440.49 -3.28488 4.18185)
(451.132 -4.48871 4.15669)
(449.089 -9.05698 -7.93484)
(449.099 -3.7396 -0.507172)
(425.679 -5.55737 -17.5015)
(409.34 2.18097 -6.38506)
(432.496 -6.07168 2.66889)
(441.571 -0.00351178 4.14515e-06)
(443.914 -6.48886 1.713)
(410.777 -10.5454 -1.42873)
(441.539 -0.0040822 -3.06407e-06)
(434.899 -1.2179 1.18383)
(422.85 2.86071 -1.4921)
(365.204 2.40735 2.91894)
(448.286 -9.27598 2.38528)
(424.205 -3.49419 -1.30564)
(386.322 -2.42804 -2.19811)
(415.078 -1.23649 -0.631359)
(440.761 -0.0452593 -1.6307e-06)
(416.156 -6.05934 12.2334)
(405.89 6.66279 -1.60868)
(247.439 41.8296 0.880381)
(296.32 9.48902 -5.64387)
(343.989 -0.0632865 0.0734161)
(376.373 -11.5387 -24.9852)
(330.747 15.4768 10.1017)
(368.916 2.51573 -5.07798)
(377.615 4.80253 -5.83585)
(375.724 -12.3257 5.38285)
(385.681 -1.70201 8.17868)
(358.078 12.5086 5.04347)
(387.576 0.0502679 -0.0864287)
(342.995 12.7882 -2.70806)
(386.785 4.39861 7.60793)
(394.06 0.00141927 0.0446888)
(388.926 -2.68906 1.33214)
(391.384 0.00120952 -0.034402)
(374.847 -19.5957 -11.4197)
(378.541 -5.24569 6.75983)
(399.968 -13.8761 -3.72853)
(337.848 7.72296 19.6561)
(351.673 -20.7031 18.6509)
(391.231 10.3563 2.55089)
(383.356 3.27393 3.87786)
(392.415 1.17037 9.13994)
(390.2 0.0273091 0.404336)
(385.035 10.6859 -6.07576)
(395.994 1.61486 -9.69778)
(391.786 4.607 0.411071)
(387.178 -7.02044 4.1248)
(395.938 -0.351953 -0.059861)
(389.104 -3.17952 -5.09902)
(392.727 -2.37645 -2.53437)
(403.135 -0.128845 -0.0963237)
(410.868 8.9734 13.0577)
(404.527 7.0602 5.31432)
(398.275 0.260964 7.67501)
(389.586 7.37367 3.18894)
(344.675 8.92194 -7.70422)
(384.199 13.0934 -5.20558)
(401.693 6.42545 1.08101)
(319.313 2.41138 0.192133)
(405.917 9.83678 -5.54296)
(402.924 -18.0298 3.28781)
(378.315 -0.089686 1.62318)
(355.283 4.92598 -2.29981)
(402.532 0.00194282 0.102847)
(402.719 -5.34627 -9.02048)
(393.097 -9.31598 -1.71804)
(401.143 -11.1089 -3.35299)
(380.237 0.707643 -1.48757)
(390.966 59.6384 1.26761)
(348.854 -8.65133 -0.831191)
(432.007 0.183816 1.02214)
(409.973 -8.26403 7.23986)
(389.291 9.79168 -7.0892)
(408.966 -2.4851 -20.7019)
(373.008 -14.5745 2.22761)
(394.976 16.569 1.21779)
(381.58 -2.39049 4.87994)
(369.536 10.2225 -5.642)
(391.935 -12.4596 12.0158)
(390.763 4.10676 -7.83841)
(375.991 3.47867 9.79888)
(352.986 7.88128 6.34606)
(361.063 -0.771256 -6.17731)
(342.681 2.92027 -27.1675)
(412.818 0.0558697 2.59413)
(372.173 2.89615 11.1992)
(408.623 0.00032676 0.0145848)
(407.165 0.480081 2.12399)
(381.418 17.2569 -7.96225)
(372.039 -8.93743 -4.51799)
(410.169 0.918412 2.5681)
(378.593 8.03509 -14.8002)
(370.954 3.18256 4.44677)
(394.905 -4.99016 9.36955)
(357.58 -3.58536 0.517458)
(410.863 2.49247 -5.88266)
(306.057 8.05184 -24.8607)
(367.523 -7.12002 -9.89235)
(399.989 -6.18748 2.00224)
(399.906 -1.21391 -8.48376)
(398.54 0.746196 -4.07175)
(412.257 -0.324157 -0.000135853)
(353.375 8.22312 3.58334)
(421.48 -12.0697 -0.298161)
(373.664 0.0534057 0.542665)
(410.731 -7.28824 4.99448)
(377.833 7.63902 -4.48089)
(351.622 -5.79276 1.41794)
(417.8 1.79061 -2.3573)
(399.384 -0.522738 -0.208165)
(399.162 1.33504 1.04363)
(413.351 -3.04303 6.02734)
(376.015 -0.101688 1.99014)
(425.209 -0.0304314 0.0510721)
(423.777 -0.990437 3.74259)
(404.142 -2.10307 -3.83531)
(420.031 0.00125054 0.0654409)
(416.072 -3.89501 4.58979)
(383.123 -4.59312 11.8279)
(367.291 -4.54728 24.059)
(413.542 0.710881 0.056691)
(396.71 -1.098 0.888128)
(420.498 0.000833467 -0.0260784)
(391.896 7.00542 -2.93971)
(372.436 9.82228 2.68741)
(425.547 0.817612 -0.796396)
(393.001 -0.565681 1.49393)
(378.139 -7.31145 -3.60375)
(389.019 -9.06962 6.03084)
(409.063 -2.87805 7.25724)
(423.033 3.01035 -0.473889)
(356.391 6.32852 -0.0996435)
(426.484 2.37283 0.249611)
(426.598 1.38633 -2.07459)
(427.684 0.171965 -7.15536)
(365.253 10.2998 0.654567)
(401.558 -0.262766 6.61182)
(388.874 1.64407 -3.9345)
(368.292 -0.388195 -15.057)
(424.348 2.02083 -0.0331389)
(426.853 4.43708 -6.52465)
(334.625 3.12928 1.07486)
(396.56 -1.92373 1.99636)
(373.631 -3.45156 -6.34547)
(426.752 -0.14854 -0.0114975)
(382.215 7.93429 -5.42818)
(395.886 -12.3069 5.36018)
(376.591 -0.490114 -0.203497)
(427.841 5.94056 1.34257)
(394.641 -8.33539 5.44495)
(377.568 3.26689 -8.69284)
(320.617 11.9866 -15.3596)
(411.983 -0.397994 -7.72887)
(429.409 0.000708598 -0.055966)
(414.176 -9.54484 4.09523)
(428.674 0.000338336 0.013532)
(431.955 0.00250666 0.115203)
(409.114 -2.96836 0.363845)
(413.97 4.19663 4.73983)
(419.662 -3.24861 -0.306755)
(338.522 -0.542827 1.3604)
(439.105 -31.8124 -8.59067)
(353.628 1.51851 -7.43939)
(385.072 5.46508 -10.4903)
(316.724 6.87705 6.36254)
(366.491 -10.3799 -7.05239)
(411.998 -14.6745 0.390142)
(338.884 4.25144 -9.04445)
(430.455 0.000886666 0.0512155)
(416.18 2.09014 -3.04679)
(381.584 -6.28696 -7.52578)
(424.476 -5.68487 -11.9819)
(432.921 0.18449 -0.0233016)
(425.421 -15.3456 2.7589)
(374.865 6.59188 -22.6782)
(405.367 1.49867 -3.62304)
(433.044 -3.2761 -4.39184)
(425.85 3.62304 -2.78452)
(378.776 0.377261 -1.22944)
(418.614 -7.18122 4.71867)
(420.686 -0.604202 -1.8848)
(408.235 -11.8303 13.8875)
(387.742 9.97898 0.646123)
(397.136 6.44325 -4.86687)
(435.918 1.01499 -1.58849)
(417.424 -0.595762 -0.42426)
(415.302 0.302075 -0.887079)
(435.526 -4.80723 0.95984)
(435.407 -0.0712586 -4.99096)
(402.969 2.60894 1.77822)
(440.397 4.82712 -6.9359)
(415.357 2.22158 -0.903064)
(421.469 -0.617304 -0.294763)
(306.563 8.31516 -5.23845)
(411.052 -0.392234 5.73528)
(392.584 11.3419 -2.23199)
(435.767 0.000453077 0.0189939)
(439.702 -4.89422 16.2687)
(435.572 3.24842 0.844981)
(426.558 -19.4388 -5.88106)
(438.437 0.0023787 0.103359)
(425.592 -7.05949 1.06375)
(316.045 12.2109 2.79239)
(438.974 -3.05863 -0.442935)
(411.162 -0.166163 -0.0441583)
(441.631 3.41709 -7.37826)
(425.323 -9.92763 1.88299)
(437.227 0.98644 -3.02677)
(424.632 -20.9196 -6.36479)
(406.715 -0.510963 0.0455137)
(435.539 -0.107532 -0.0319321)
(440.107 3.95679 -8.63752)
(431.677 -7.41471 19.6548)
(432.77 -8.57266 0.232181)
(416.374 -0.801143 -3.92436)
(431.474 -4.35489 -1.38452)
(330.749 0.59952 2.18391)
(438.254 0.869995 1.0158)
(430.526 -6.17935 -8.25986)
(430.723 -0.153598 -1.68628)
(429.451 -0.47401 -0.00828551)
(442.245 0.00154723 0.0904693)
(439.978 0.000213837 -0.0111743)
(419.479 -11.6563 -2.98943)
(422.053 1.44527 -0.60703)
(370.302 10.9529 -2.11195)
(442.718 -5.31105 1.39175)
(381.841 0.515956 1.14589)
(436.021 -0.563545 -1.00929)
(441.214 0.395404 0.193436)
(338.495 6.40007 1.44541)
(419.246 0.362991 2.52912)
(402.36 -4.59197 -0.078325)
(422.55 1.26392 0.946632)
(388.904 -3.61423 -1.19839)
(432.488 0.91442 3.65827)
(341.241 0.023629 1.01475)
(377.668 1.14136 1.41742)
(443.481 0.0014767 0.0746848)
(391.19 7.26126 -1.6276)
(395.265 2.68514 0.334767)
(433.203 -6.05212 0.943728)
(427.296 1.14503 1.92)
(337.014 17.3679 -7.72792)
(427.722 -20.5647 19.6636)
(380.975 2.25909 -3.25569)
(410.029 -0.229906 0.340067)
(415.414 1.33488 -2.87087)
(432.577 -2.97491 0.743015)
(415.597 -1.01802 1.17475)
(434.699 -19.7085 18.9454)
(440.229 -5.39784 -9.27136)
(397.858 -3.82586 0.9038)
(432.014 -0.497903 0.969504)
(414.423 0.523609 -4.83134)
(434.467 -6.21065 7.44085)
(414.813 -2.85023 -5.23725)
(345.744 -2.77297 -0.310623)
(403.293 -3.09737 -5.90417)
(410.701 6.01392 1.50865)
(440.094 4.32148 2.0256)
(373.217 -1.9131 -3.42895)
(439.331 -3.76742 5.2202)
(426.183 0.0997692 0.259955)
(361.391 2.27897 3.23709)
(424.68 -4.49755 7.95596)
(389.123 1.20971 2.30652)
(358.305 14.8664 1.11862)
(375.072 1.84897 -3.04799)
(442.73 0.683046 -0.916948)
(443.421 -10.9473 8.00527)
(369.728 4.15897 -2.14105)
(398.996 -5.32053 0.148396)
(426.424 -3.73428 -0.0628629)
(439.161 -9.59385 8.72712)
(348.658 5.98934 4.80247)
(418.889 -2.72861 -4.25317)
(404.582 -4.98377 -5.91859)
(433.001 -0.483399 0.0922571)
(445.062 3.08388 4.4795)
(439.84 -4.31663 -9.85069)
(440.411 -0.9812 -1.62654)
(413.53 -5.78297 -18.4516)
(406.866 -3.19241 -1.0558)
(439.428 -5.66046 -2.53856)
(363.61 -4.5091 -4.65043)
(409.635 -1.9444 -1.42357)
(362.784 0.00173892 0.0733469)
(374.267 -0.0109004 -0.039336)
(366.865 1.9735 -14.3944)
(377.513 0.000942838 -0.049453)
(370.509 1.15509 1.6168)
(383.104 0.0853318 0.0631737)
(391.781 -9.75213 27.3576)
(381.066 21.7078 14.4929)
(394.146 5.13697 0.616734)
(378.744 -1.30501 -2.94281)
(379.341 0.551753 2.17742)
(386.204 0.0416675 -0.735251)
(388.427 0.00236731 -0.132156)
(378.104 2.47142 -3.37484)
(386.082 0.111962 -0.00739636)
(384.902 0.00138328 -0.0960843)
(388.61 13.4098 3.58128)
(388.342 0.000540881 0.0165361)
(405.585 4.1971 -7.14298)
(387.158 -2.70056 -0.783995)
(376.81 12.0778 2.94374)
(391.035 0.755067 -7.93656)
(379.63 3.39279 8.98718)
(390.792 1.78253 1.50328)
(381.636 -0.188193 -3.79958)
(379.934 2.11505 -10.518)
(385.869 -3.07442 12.3206)
(396.322 -3.40667 -0.95578)
)


// ************************************************************************* //
