/*--------------------------------*- C++ -*----------------------------------*\
  =========                 |
  \\      /  F ield         | OpenFOAM: The Open Source CFD Toolbox
   \\    /   O peration     | Website:  https://openfoam.org
    \\  /    A nd           | Version:  7
     \\/     M anipulation  |
\*---------------------------------------------------------------------------*/
FoamFile
{
    version     2.0;
    format      ascii;
    class       vectorField;
    location    "0.12/lagrangian/reactingCloud1";
    object      UTurb;
}
// * * * * * * * * * * * * * * * * * * * * * * * * * * * * * * * * * * * * * //


843
(
(5.94048 10.4754 2.72732)
(0 0 0)
(-3.65864 0.174844 6.33523)
(0 0 0)
(0 0 0)
(0.36408 -0.123108 2.24244)
(8.62185 -4.42404 -10.8994)
(2.60465 1.03572 3.63147)
(-0.504301 0.493159 -2.69939)
(18.4199 -13.7366 4.00492)
(7.42346 7.99241 23.3509)
(2.38569 -14.7949 2.28417)
(0 0 0)
(-1.67565 6.54144 -4.13888)
(1.04448 1.3398 -1.24001)
(-0.790665 -0.432965 0.194404)
(5.02276 8.65364 7.25408)
(-22.9507 15.8746 -21.3382)
(-3.63657 -8.27968 -1.69943)
(13.1722 -21.4614 3.66568)
(-1.98466 -0.507222 1.35123)
(-0.503387 -0.935752 -2.38798)
(2.6478 0.735337 0.212865)
(2.31301 6.54287 16.4268)
(0 0 0)
(5.13313 5.75952 -3.84612)
(1.45766 -7.92118 0.948092)
(0 0 0)
(-3.1001 -3.85014 -2.07599)
(1.05112 -3.29375 0.79892)
(0.120171 13.4699 -8.63437)
(0 0 0)
(-9.44759 -6.75299 -3.66896)
(-1.68223 0.790484 -0.307616)
(1.45273 -6.70402 3.08471)
(0.575701 0.85392 2.47459)
(-2.9329 0.532122 -2.03783)
(0 0 0)
(-4.23836 -9.41294 -4.24003)
(-5.44037 4.03952 3.06912)
(3.41101 3.17878 -3.08612)
(1.49134 -6.8822 3.1667)
(0 0 0)
(3.07112 -1.13657 -1.03049)
(1.73987 -2.0009 1.57652)
(3.61978 -5.05651 7.86983)
(0 0 0)
(0 0 0)
(-3.34819 1.60056 -0.666483)
(0 0 0)
(12.0863 -11.7302 3.81307)
(0 0 0)
(0.929285 3.38617 0.0220914)
(0 0 0)
(-0.612845 -1.15972 0.04136)
(-2.55258 -3.56883 0.264648)
(2.36954 -1.06025 -2.2556)
(0 0 0)
(0 0 0)
(-2.151 0.859897 1.16088)
(1.93188 2.53552 -0.0953567)
(15.9515 -19.2082 6.02635)
(0 0 0)
(0 0 0)
(-0.849098 2.95705 0.332756)
(-0.891793 -7.4498 -3.10453)
(0 0 0)
(0 0 0)
(0 0 0)
(-2.87925 0.959589 17.0782)
(0 0 0)
(0 0 0)
(3.35703 -4.11368 -8.14334)
(0 0 0)
(0 0 0)
(0 0 0)
(0 0 0)
(0 0 0)
(1.45034 -14.599 -14.8369)
(0 0 0)
(0 0 0)
(0 0 0)
(0 0 0)
(0 0 0)
(0 0 0)
(0 0 0)
(0 0 0)
(0 0 0)
(0 0 0)
(0 0 0)
(0 0 0)
(-0.018982 0.0764364 0.0775753)
(0 0 0)
(0 0 0)
(0 0 0)
(0 0 0)
(0 0 0)
(-0.96637 -0.644913 -0.205959)
(0 0 0)
(0 0 0)
(4.15586 3.45061 7.67821)
(0 0 0)
(0 0 0)
(0 0 0)
(0 0 0)
(0 0 0)
(0.284106 -0.267128 0.0423598)
(0 0 0)
(0 0 0)
(0 0 0)
(0 0 0)
(0 0 0)
(0 0 0)
(0 0 0)
(0 0 0)
(0 0 0)
(0 0 0)
(0 0 0)
(0 0 0)
(0 0 0)
(0 0 0)
(0 0 0)
(0 0 0)
(0 0 0)
(0 0 0)
(0 0 0)
(0 0 0)
(0 0 0)
(0 0 0)
(0 0 0)
(0 0 0)
(0 0 0)
(0 0 0)
(0 0 0)
(-9.89488 1.81405 4.41525)
(-0.913348 -1.68246 2.39923)
(1.58776 2.0701 1.13275)
(-1.77122 0.253364 0.209957)
(-3.84258 0.624497 -0.732589)
(0 0 0)
(0 0 0)
(-1.28942 -4.93636 3.95891)
(0 0 0)
(0 0 0)
(2.27008 -1.15024 0.182254)
(0 0 0)
(0 0 0)
(0 0 0)
(-0.257335 -0.307489 -1.53565)
(0 0 0)
(-4.74418 -12.0186 -2.64655)
(0 0 0)
(0 0 0)
(4.81148 8.32565 -2.0715)
(0 0 0)
(12.8765 -9.37167 8.10187)
(0 0 0)
(0 0 0)
(0 0 0)
(0 0 0)
(0 0 0)
(-3.15572 -5.66843 -4.57926)
(0 0 0)
(-0.588351 0.59312 -1.97688)
(0 0 0)
(0 0 0)
(0 0 0)
(0 0 0)
(0 0 0)
(0 0 0)
(0 0 0)
(0.428593 -0.0460891 -0.0314108)
(0 0 0)
(0 0 0)
(0 0 0)
(0 0 0)
(0 0 0)
(0 0 0)
(-5.65207 0.12937 -8.69032)
(0 0 0)
(1.10641 7.9382 7.21499)
(0 0 0)
(0 0 0)
(0 0 0)
(0 0 0)
(0 0 0)
(0 0 0)
(4.75616 -1.39147 -2.74709)
(0 0 0)
(0 0 0)
(0 0 0)
(0 0 0)
(0 0 0)
(0 0 0)
(5.15281 -7.4445 -6.78781)
(0 0 0)
(0 0 0)
(0 0 0)
(0 0 0)
(0.393304 -1.43519 3.91839)
(0 0 0)
(0 0 0)
(0 0 0)
(0 0 0)
(3.0544 6.21892 -1.71491)
(0 0 0)
(0 0 0)
(0 0 0)
(0 0 0)
(0 0 0)
(1.38958 -1.79425 0.459566)
(0 0 0)
(0 0 0)
(0 0 0)
(0.00477785 0.0776781 0.0308494)
(0 0 0)
(0 0 0)
(0 0 0)
(-0.241494 -0.431409 0.703516)
(0 0 0)
(3.1664 -3.48259 1.31824)
(0 0 0)
(0 0 0)
(0 0 0)
(0 0 0)
(0.629071 -4.92284 -0.850123)
(0 0 0)
(-0.560952 0.511702 -0.572053)
(0 0 0)
(0 0 0)
(0 0 0)
(0 0 0)
(0 0 0)
(2.02746 1.45627 -1.84872)
(0 0 0)
(0 0 0)
(0 0 0)
(15.2751 -9.79469 1.40387)
(0.269245 4.21696 0.685751)
(0 0 0)
(2.67329 -7.89826 0.173546)
(9.0612 5.53833 -10.7956)
(-1.57287 -0.710609 -1.95272)
(3.54451 1.98515 -2.84393)
(-10.6686 -8.46199 1.34939)
(2.03111 -13.3198 -6.86228)
(-4.282 5.95762 -8.513)
(0 0 0)
(-1.61157 -0.31564 -0.989473)
(0 0 0)
(0 0 0)
(0 0 0)
(-3.55874 -5.30472 -2.02393)
(1.40987 2.98344 3.92539)
(2.33283 6.04087 13.6251)
(-18.4781 5.17179 -12.9615)
(2.74207 -10.6406 -11.3403)
(0 0 0)
(0 0 0)
(-10.7007 2.02117 -9.16152)
(0 0 0)
(0 0 0)
(1.08934 -0.644986 3.33701)
(0 0 0)
(1.80214 -1.29111 2.58637)
(-0.634735 1.28944 0.157122)
(0 0 0)
(13.185 7.75709 -0.449799)
(-3.49492 -1.22047 -4.06254)
(3.29581 6.23447 -2.41109)
(0 0 0)
(0 0 0)
(0 0 0)
(0.169835 -3.77149 -1.63539)
(0 0 0)
(0.450645 -0.512345 1.96759)
(0 0 0)
(0 0 0)
(0 0 0)
(2.34466 8.1839 3.20706)
(-9.42818 -4.73408 10.1948)
(-2.83878 3.71459 0.32941)
(0.62227 -0.0669164 -0.045605)
(-2.67445 1.67022 1.18543)
(-20.6196 3.78022 9.20078)
(-1.47101 -2.70973 3.86414)
(0.438338 6.86531 1.11642)
(-2.33854 2.2534 -1.85751)
(10.0879 4.24118 0.493827)
(2.03245 9.93628 -2.21813)
(1.67495 2.23145 -2.52334)
(-6.66266 5.72874 2.0757)
(6.76141 11.6491 9.76512)
(3.6919 -8.7991 6.52222)
(0.603197 -8.01956 -1.92241)
(0.872434 -7.79057 11.2887)
(-0.307847 39.6219 0.834448)
(-3.26158 4.61539 5.4798)
(-15.6567 -9.58579 -11.4313)
(1.13455 -2.23811 0.0706519)
(3.40938 -0.985648 4.21321)
(-1.19383 -2.01985 1.80574)
(-6.8229 -3.79349 -1.26311)
(-0.0735925 -0.0261992 -0.304057)
(-2.68074 -10.475 1.93163)
(5.57383 -0.857018 1.67604)
(-4.48388 -4.95878 1.59327)
(0.337872 0.0520173 -0.174276)
(-6.92945 0.997321 0.973503)
(-5.48723 5.16216 -4.28213)
(0.113724 12.7471 -8.17109)
(0.281421 -1.85472 1.95682)
(-1.69496 4.35623 2.0329)
(0.837558 17.3455 -8.60797)
(15.1894 3.63753 8.30949)
(-0.314755 0.331582 0.361145)
(1.77471 0.7057 2.47435)
(-0.896035 -11.0283 5.53332)
(1.02339 -4.75363 -0.676229)
(20.4031 -4.30244 16.2996)
(2.26607 6.87338 -1.31572)
(-7.32982 -9.78693 0.269136)
(4.25273 -1.54756 -13.9072)
(-7.23679 14.3231 -4.42791)
(2.08507 2.93942 -7.45066)
(10.9762 17.6534 -17.1547)
(-2.32336 -13.6108 12.4854)
(-0.447101 -0.680554 -0.246)
(-1.07123 0.72032 -1.20977)
(5.22258 -0.936445 3.26091)
(-15.0322 -14.4502 4.80045)
(-4.9051 0.458034 -5.02183)
(-1.17802 0.640099 1.46794)
(-4.91424 2.37501 5.55695)
(-2.84229 2.34424 2.32862)
(0.418537 0.831976 2.45956)
(-2.73909 -13.9646 14.3745)
(-5.45217 12.0666 -4.0789)
(-3.30426 3.38555 -1.35468)
(1.97161 2.20344 0.755296)
(3.07672 15.067 -0.369584)
(-19.6683 5.29486 21.0533)
(1.90395 2.71582 3.01691)
(2.1783 8.97668 -0.795476)
(2.25665 0.0886875 -3.48058)
(3.34548 1.95279 -2.95621)
(-3.36481 -7.47287 -3.36614)
(-12.3362 -6.20842 2.16111)
(12.1301 10.534 8.32879)
(3.2211 -5.29628 -0.339468)
(4.30594 0.678984 -10.3816)
(-6.01644 -5.7835 1.92131)
(6.34222 -10.8876 -26.5131)
(-4.59199 -7.31561 9.06631)
(-28.0917 -3.13797 19.2492)
(13.9445 -5.95851 -10.9669)
(9.86517 -3.68175 5.87136)
(-0.339378 1.88108 -0.286986)
(-1.08489 0.26716 -0.38625)
(9.1272 6.52394 -8.68769)
(-0.385125 -0.925898 0.51176)
(-2.32723 -6.67424 -0.768915)
(-5.58672 6.97394 -2.7381)
(-0.0431256 -4.43841 2.88513)
(22.128 -12.3652 -7.28125)
(4.33579 9.52601 -2.42122)
(0.379462 -0.672616 -1.9834)
(-3.6978 -10.6049 -1.22175)
(1.89226 -0.196693 0.919318)
(10.6812 -14.3419 -1.87093)
(-9.17683 -4.07825 -2.58828)
(0.32117 0.443009 0.754873)
(1.08374 0.116635 5.4664)
(-5.1646 9.77466 5.61513)
(1.48868 2.8216 -8.40028)
(0.141173 1.24395 20.156)
(-5.96934 -2.40191 2.81046)
(6.33342 -0.914209 0.21032)
(-11.2354 -2.7866 -3.7153)
(-4.30644 -1.37776 4.6371)
(4.49777 -2.21566 0.363577)
(-0.573911 -7.06362 3.5441)
(-12.4898 -17.5394 24.2852)
(-0.779231 -0.151545 -2.31165)
(-3.74693 1.26217 0.607316)
(-9.73226 -4.7221 -3.82736)
(10.3608 -2.18481 8.27704)
(-13.93 18.0033 16.8462)
(-7.16706 -7.7636 15.868)
(-4.84206 -1.40545 -0.574016)
(-0.267068 -2.81614 -9.49514)
(-10.655 8.7461 8.58156)
(1.46401 15.7647 2.24344)
(-0.0560332 2.94588 -1.94857)
(-0.4398 -0.268509 0.568827)
(-5.23775 -1.6469 0.165266)
(0.0040825 -0.469927 0.281573)
(0.116644 -0.387757 0.0737648)
(4.12293 -3.4931 -3.63021)
(-1.68538 -4.03706 5.09219)
(-6.63144 -5.46207 -1.02406)
(8.34778 4.29912 -5.8578)
(4.79611 10.8481 14.8502)
(2.48015 1.28327 -0.990387)
(1.19849 -5.17142 -7.61705)
(-1.82793 -3.29686 2.80314)
(-26.381 -8.87455 10.3316)
(-1.10221 -8.1014 -2.64924)
(-1.40035 11.4407 8.41329)
(-0.101137 1.84036 -2.72448)
(-0.29662 0.309534 -1.28087)
(14.0293 10.0056 -3.36513)
(-4.24009 -23.3568 22.7109)
(-3.82295 -0.778049 2.62062)
(2.76309 -1.676 -3.07354)
(-1.79168 11.3982 -23.6863)
(3.60853 -2.77883 -6.30684)
(-7.43463 8.53632 5.19857)
(-5.11576 -9.02027 7.15304)
(1.70652 -3.36644 0.106271)
(-1.14747 -8.43404 -2.75801)
(-0.330827 1.83368 -0.279754)
(-4.83537 -5.19182 -11.5246)
(0.249356 5.20243 4.84145)
(-4.92715 13.151 -3.51557)
(-8.24969 -11.5851 16.0408)
(-1.17558 -12.0142 10.8005)
(9.17492 6.94473 -1.78403)
(-2.81127 -2.67493 0.672052)
(0 0 0)
(3.56363 -8.49339 6.29561)
(-0.178342 22.9538 0.483413)
(-7.30506 -9.75388 0.268227)
(0.15651 3.65372 0.82466)
(0.200853 -2.34375 -1.2698)
(-3.545 0.0379736 -0.255506)
(0 0 0)
(-0.252881 -0.147588 0.553348)
(9.46367 -7.32178 3.34699)
(-2.88671 -0.242798 0.0691578)
(-8.65877 -3.84802 -2.44217)
(-1.51377 0.447092 -0.115556)
(2.92417 2.34262 -9.07969)
(-1.33289 -1.22122 -0.860584)
(-1.35859 1.50199 -6.90676)
(-6.25959 3.02521 7.07826)
(0 0 0)
(3.48359 10.5663 -2.02264)
(5.38676 -7.76752 -3.89645)
(1.95661 0.771225 1.77352)
(-3.30999 1.7118 0.727485)
(1.40235 -10.3107 -6.71994)
(-5.4774 -3.2839 3.2673)
(-0.116793 -0.396854 5.77326)
(0.126101 0.713315 0.19271)
(-6.11055 5.19373 -2.79118)
(2.1584 0.11109 0.892474)
(0.580065 -5.1798 7.50564)
(1.32399 -0.137623 0.643233)
(1.06173 0.410353 -0.214157)
(-0.756646 -11.5956 3.39713)
(-0.303737 -1.06848 -1.87499)
(-4.98395 0.465398 -5.10255)
(2.39507 -1.51487 3.03945)
(-6.82443 10.9328 0.795397)
(-0.663855 1.59063 0.265188)
(0 0 0)
(2.02201 -3.32469 -0.213098)
(-1.59454 -9.34118 8.56878)
(3.10857 4.83607 1.58487)
(-10.0472 -5.5862 -1.86003)
(8.5228 13.7075 -13.3202)
(3.31463 16.2321 -0.398163)
(-1.60928 2.52955 -4.63873)
(0 0 0)
(-2.53808 -12.9398 13.3196)
(3.72636 -0.690007 -1.21819)
(-5.20606 -0.0126144 1.85632)
(0 0 0)
(0 0 0)
(-11.5658 -5.433 -2.13238)
(0.78804 -13.1091 -2.72556)
(1.75404 8.64071 -4.70863)
(0 0 0)
(-0.830443 0.451235 1.03481)
(-0.396859 -11.3106 -2.24797)
(0 0 0)
(-1.53719 1.26783 1.25938)
(12.5779 -9.73116 4.44838)
(0.855594 -6.29069 -4.09992)
(0 0 0)
(1.92078 2.55897 -2.8937)
(0.710957 -1.26021 -3.71609)
(4.27846 1.19721 -3.45775)
(0 0 0)
(-9.53705 3.55652 3.44233)
(-5.54523 4.76795 1.72758)
(-10.8907 -5.1159 -2.00792)
(0.443606 -5.89778 -1.41379)
(-11.3525 -10.9129 3.62535)
(1.86668 -0.539654 2.30679)
(0 0 0)
(-2.03202 -14.7719 3.93698)
(-1.44888 -1.94747 0.0845122)
(0 0 0)
(0.243187 -0.879839 -1.03755)
(-17.5748 -0.403048 14.6875)
(1.25988 -12.2219 20.4934)
(15.4787 -8.13518 -7.37721)
(0.283799 -1.14158 0.982623)
(-7.68796 7.78604 3.21857)
(0.912647 -15.1819 -3.15653)
(4.21849 -0.648624 1.26849)
(-3.88803 -0.78417 -6.843)
(-1.63087 1.01849 0.722872)
(-0.377371 0.0597713 -0.0964788)
(-12.2362 -5.93702 -4.81208)
(0 0 0)
(-1.14282 -0.684495 -1.12663)
(-1.62139 -0.974608 5.2726)
(-9.34763 -10.8276 13.6181)
(0.0246966 -0.037661 -0.142115)
(-9.35089 0.183262 -0.458039)
(0 0 0)
(-1.8462 4.40421 -4.32217)
(0.111037 -3.22312 4.18185)
(10.9126 -4.41674 4.15676)
(16.6486 -8.75009 -7.93483)
(8.69582 -3.68352 -0.507147)
(-0.49226 -5.19071 -17.5015)
(0.442183 2.6756 -6.38505)
(-8.66628 -6.0655 2.66886)
(0 0 0)
(3.09394 -6.45267 1.71302)
(2.1622 -10.0434 -1.42873)
(0 0 0)
(-2.32472 -1.02744 1.18417)
(-0.0467669 3.26766 -1.49203)
(-1.73867 2.94878 2.91873)
(9.64025 -9.12805 2.38532)
(-1.54025 -3.10588 -1.30551)
(-32.396 -1.98031 -2.19808)
(-1.28477 -0.771407 -0.631358)
(0 0 0)
(-11.3134 -5.6807 12.2334)
(1.47397 7.20601 -1.60863)
(-0.324796 41.8034 0.88039)
(-2.28495 8.92003 -5.64385)
(0.0113594 0.184681 0.0733448)
(-10.483 -11.2558 -24.9852)
(-27.8369 15.8647 10.1017)
(-1.03257 2.95893 -5.07799)
(3.5852 5.24649 -5.8359)
(-17.4791 -12.2336 5.38286)
(-3.20724 -1.47454 8.17865)
(3.68721 12.87 5.04343)
(-0.261291 0.323287 -0.0864352)
(-19.7932 13.2234 -2.70812)
(4.87233 4.82058 7.60791)
(2.42126 -3.64879 2.35099)
(3.53181 -2.26789 1.3321)
(0.664328 -2.041 -1.99757)
(34.7052 -19.3934 -11.4198)
(-2.57332 -4.74027 6.75974)
(6.73107 -13.8448 -3.72854)
(-1.64035 7.89954 19.6561)
(-3.47069 -20.3322 18.651)
(0.487583 10.6308 2.55081)
(4.69376 3.75513 3.87765)
(-2.25031 1.23787 9.13995)
(-1.43538 0.335788 0.404288)
(2.26338 11.1498 -6.07591)
(1.67574 1.73433 -9.69782)
(-3.54251 4.63544 0.411072)
(-13.2925 -6.93765 4.12481)
(0.817099 -0.0878675 -0.0598837)
(14.0108 -2.65917 -5.09909)
(1.71986 -1.92837 -2.53449)
(4.74234 -6.86658 -1.03913)
(8.38439 9.03329 13.0577)
(12.1097 7.47987 5.31423)
(-4.3568 0.2655 7.67503)
(-7.6172 7.71438 3.18895)
(-9.87241 9.28756 -7.70424)
(-6.04453 13.5866 -5.2057)
(0.424417 6.64729 1.08096)
(-25.7822 2.66127 0.19211)
(19.3165 10.3426 -5.54298)
(-4.56286 -17.8293 3.2878)
(2.50375 0.456442 1.62314)
(-8.99992 5.39655 -2.29982)
(0.152713 -4.43287 5.75145)
(-0.107908 -5.30439 -9.0205)
(-11.1255 -9.16366 -1.71805)
(-4.54928 -11.0536 -3.353)
(-7.80275 1.26811 -1.4876)
(-0.467544 60.176 1.26732)
(7.83199 -8.45693 -0.831205)
(27.6688 0.187904 1.02215)
(6.40574 -7.9697 7.23987)
(1.12313 10.3451 -7.0893)
(6.33051 -2.30367 -20.7019)
(-17.6121 -13.9693 2.22761)
(-10.4484 16.7385 1.21778)
(-2.11784 -1.79647 4.87969)
(19.6616 10.5274 -5.64201)
(-11.943 -11.9707 12.0158)
(-10.2483 4.57145 -7.83848)
(-21.9599 4.02594 9.79884)
(-11.2488 8.35237 6.3459)
(4.84347 -0.392492 -6.17766)
(-50.1211 3.52852 -27.168)
(5.39645 0.0625891 2.59414)
(-21.3449 3.48517 11.1992)
(-0.219908 -0.325301 0.665716)
(-0.958196 0.484423 2.124)
(1.54471 17.8334 -7.96232)
(-6.74683 -8.37918 -4.51805)
(3.69614 1.28613 2.56805)
(-4.86879 8.64175 -14.8003)
(-3.64544 3.74973 4.44677)
(-6.50866 -4.41259 9.36956)
(6.44484 -3.26558 0.517425)
(-2.33053 2.63692 -5.88268)
(20.0728 7.62623 -24.8607)
(-1.41598 -6.60621 -9.89278)
(-12.001 -5.80481 2.00211)
(-0.0804062 -0.624009 -8.48387)
(3.04145 1.35993 -4.07177)
(5.66721e-05 -7.58283e-05 -0.000134613)
(-8.55918 8.66838 3.58331)
(5.72682 -11.9246 -0.29816)
(-4.57787 0.65484 0.542653)
(-3.46696 -6.94782 4.99452)
(1.66923 8.22292 -4.48096)
(5.9316 -5.55602 1.41794)
(2.58521 1.85689 -2.3573)
(0.612595 0.102337 -0.208189)
(0.875184 1.96879 1.04345)
(-4.18693 -2.83856 6.0273)
(-4.15373 0.516298 1.99009)
(8.01149 -3.70775 0.850347)
(4.42874 -0.95225 3.7426)
(-0.808485 -1.5029 -3.83532)
(-0.247162 -0.295334 -1.47495)
(0.121866 -3.53747 4.58971)
(-10.4397 -3.92386 11.8276)
(-35.111 -3.92205 24.059)
(-7.60827 0.785334 0.0566913)
(-0.293371 -0.433972 0.888107)
(-0.789344 -0.356618 -0.979968)
(-3.41345 7.67258 -2.93976)
(5.8535 10.322 2.68738)
(4.03414 0.83484 -0.796397)
(0.00968671 0.111301 1.49386)
(-5.38155 -6.68358 -3.60378)
(-4.18634 -8.38944 6.03084)
(-6.40566 -2.40763 7.25726)
(-0.560403 3.10617 -0.47389)
(1.14153 6.68953 -0.0996876)
(2.72768 2.48255 0.249612)
(2.58566 1.44813 -2.07459)
(8.23667 0.509241 -7.15543)
(-0.692109 10.7922 0.654537)
(-6.75196 0.360884 6.61182)
(-5.01834 2.31912 -3.9345)
(-9.79287 0.224149 -15.057)
(0.3798 2.22568 -0.0331672)
(6.26412 4.76291 -6.52465)
(2.8055 3.13537 1.07475)
(-3.68675 -1.24718 1.99636)
(-4.30553 -2.84946 -6.34556)
(-0.00607038 -0.00673636 -0.0114943)
(-2.19764 8.5792 -5.4282)
(2.52432 -11.6492 5.36014)
(0.598855 0.100041 -0.20352)
(0.254803 5.94837 1.34257)
(-5.52004 -7.66133 5.44496)
(-3.44396 3.89672 -8.69316)
(-11.5243 11.9763 -15.3596)
(-5.02678 0.115058 -7.72891)
(1.15619 -5.33557 2.45505)
(-13.2979 -9.30719 4.09523)
(0.222339 -0.164556 0.481669)
(3.60927 -8.60218 6.37625)
(4.53192 -2.29631 0.363846)
(6.3854 4.85164 4.73984)
(3.74689 -2.69019 -0.306787)
(0.627949 -0.464752 1.36037)
(10.0158 -31.5941 -8.59071)
(2.39196 1.80283 -7.43942)
(-3.45097 6.12521 -10.4904)
(8.57143 6.5126 6.36252)
(-2.7469 -9.85126 -7.0525)
(-10.6246 -14.1861 0.390112)
(8.04503 4.20863 -9.04465)
(-1.51552 -1.00299 -2.2336)
(-0.201491 2.70133 -3.04682)
(-22.7586 -5.64459 -7.52578)
(-5.02726 -5.39786 -11.982)
(-0.0670444 0.211714 -0.0233015)
(-3.8288 -14.961 2.75887)
(18.3107 6.95674 -22.6783)
(-4.62144 2.1357 -3.62332)
(1.23046 -3.03319 -4.39188)
(3.71632 4.16982 -2.78454)
(-6.44881 1.04806 -1.22947)
(-4.78365 -6.63929 4.71859)
(-3.84269 -0.0923617 -1.88496)
(-7.03392 -11.2059 13.8876)
(-0.68306 10.6511 0.645979)
(0.77104 7.10205 -4.86688)
(1.97981 1.10882 -1.5885)
(1.35644 0.0257522 -0.42424)
(4.49361 0.929925 -0.887104)
(0.798208 -4.78223 0.959843)
(5.74516 0.355201 -4.99098)
(2.49253 3.24973 1.77823)
(6.65899 5.06314 -6.93593)
(-1.22795 2.83318 -0.90303)
(-0.0713974 -0.0254177 -0.294988)
(6.99134 7.84449 -5.23843)
(-3.25564 0.198396 5.73521)
(12.3245 11.9761 -2.23229)
(-0.721335 -1.22043 1.09106)
(20.3645 -4.29429 16.2687)
(0.161507 3.52137 0.844935)
(5.24614 -18.8521 -5.88116)
(1.57066 -3.87181 -5.60616)
(-8.4102 -6.67066 1.06374)
(3.10331 11.8544 2.79239)
(2.02145 -2.92692 -0.442937)
(-0.12701 0.401076 -0.0441429)
(6.19289 3.78518 -7.37828)
(1.5658 -9.381 1.88286)
(2.6923 1.40843 -3.02683)
(5.67755 -20.4024 -6.3648)
(0.00704869 0.114597 0.0455117)
(-0.0919696 0.290423 -0.0319644)
(7.24984 4.4312 -8.63754)
(8.10806 -6.89426 19.6548)
(-6.32339 -8.44313 0.232182)
(3.07682 -0.249331 -3.92437)
(-7.47858 -4.15804 -1.3845)
(-0.98522 0.498085 2.1839)
(-1.23989 1.02262 1.01581)
(2.31419 -5.70469 -8.26005)
(-0.315057 0.308096 -1.68642)
(-0.00440262 -0.00488562 -0.0083364)
(2.48259 -2.04584 4.14235)
(0.148995 -0.539056 -0.635682)
(5.39673 -11.1003 -2.98941)
(-0.825469 1.90456 -0.607048)
(11.6601 11.3305 -2.11196)
(2.51369 -5.24251 1.39175)
(-8.15414 1.17358 1.14556)
(-0.169146 -0.202112 -1.00938)
(0.715844 0.403847 0.193436)
(0.274317 6.40392 1.44539)
(0.588387 0.872736 2.52912)
(8.46299 -3.92429 -0.0783171)
(1.32689 1.72999 0.946637)
(-10.1113 -2.93488 -1.19867)
(-6.97251 1.13846 3.65834)
(0.00657982 0.0756024 1.01472)
(1.61057 1.72925 1.41693)
(2.45406 -0.527663 2.07385)
(-11.8958 7.94734 -1.6276)
(3.65772 3.329 0.33472)
(-7.46135 -5.91807 0.943725)
(0.356882 1.53608 1.92003)
(1.49929 17.309 -7.72818)
(-3.67117 -20.2229 19.6636)
(-0.215307 2.88655 -3.25573)
(-2.86884 0.410372 0.340067)
(-1.433 1.91094 -2.8708)
(3.70246 -2.61849 0.743028)
(-1.7255 -0.440988 1.17478)
(-3.5371 -19.4843 18.9455)
(11.7886 -5.03728 -9.27132)
(4.50207 -3.18399 0.903497)
(26.2439 0.178228 0.96951)
(1.55341 1.17082 -4.8314)
(-3.76872 -6.00404 7.44087)
(4.54522 -2.17745 -5.23731)
(3.79382 -2.72388 -0.310629)
(5.12395 -2.4547 -5.90417)
(0.286313 6.68398 1.5086)
(-1.68888 4.3406 2.02561)
(-0.72283 -1.34368 -3.42899)
(0.403437 -3.60257 5.2202)
(0.962039 0.542739 0.259964)
(-2.65363 2.72954 3.23693)
(4.76819 -3.92934 7.95601)
(0.42872 1.84529 2.30652)
(-9.59753 15.3753 1.11861)
(3.34269 2.40097 -3.04801)
(0.754887 0.698239 -0.916949)
(4.53139 -10.7999 8.00528)
(-0.067116 4.68947 -2.14124)
(2.3811 -4.69719 0.148279)
(6.79236 -3.14962 -0.062857)
(-1.624 -9.51381 8.72714)
(-8.5129 6.32091 4.80245)
(-21.4421 -2.63914 -4.25315)
(-17.8982 -4.4391 -5.91853)
(-0.375292 -0.205508 0.0922742)
(2.87631 3.09892 4.47952)
(7.79231 -3.99838 -9.85069)
(1.91284 -0.842134 -1.62649)
(-5.59166 -5.19512 -18.4516)
(-8.9073 -2.58542 -1.05594)
(-2.53756 -5.63563 -2.53855)
(2.74999 -4.11722 -4.65045)
(-2.87333 -1.35085 -1.42361)
(-15.6299 -7.56011 2.60752)
(-5.73962 -3.13087 -0.832302)
(-13.8647 2.0456 -14.3944)
(-3.59081 -4.85184 1.96646)
(-1.91524 1.49927 1.61679)
(1.62922 -2.8675 0.337739)
(11.2856 -9.59614 27.3577)
(11.9849 22.0716 14.4929)
(12.5983 5.29659 0.616716)
(-2.37042 -1.07093 -2.94287)
(-4.54472 0.564898 2.17742)
(2.35085 0.0446313 -0.735252)
(4.48683 -6.71758 -7.58758)
(-5.71097 2.66063 -3.37487)
(0.107414 0.117592 -0.00739633)
(-1.52982 -0.285193 1.78461)
(7.8005 13.7554 3.58126)
(0.721898 -1.3497 0.870572)
(19.5146 4.39148 -7.143)
(-1.024 -2.69427 -0.783996)
(3.27146 12.4967 2.9437)
(2.24453 0.786765 -7.93657)
(-1.90613 3.76525 8.98717)
(1.70871 1.83463 1.50328)
(-7.74584 -0.186177 -3.79958)
(-8.11265 2.3114 -10.5181)
(-0.886275 -2.81958 12.3205)
(6.57115 -3.39538 -0.955781)
)


// ************************************************************************* //
