/*--------------------------------*- C++ -*----------------------------------*\
  =========                 |
  \\      /  F ield         | OpenFOAM: The Open Source CFD Toolbox
   \\    /   O peration     | Website:  https://openfoam.org
    \\  /    A nd           | Version:  7
     \\/     M anipulation  |
\*---------------------------------------------------------------------------*/
FoamFile
{
    version     2.0;
    format      ascii;
    class       surfaceScalarField;
    location    "0.1225";
    object      phi;
}
// * * * * * * * * * * * * * * * * * * * * * * * * * * * * * * * * * * * * * //

dimensions      [1 0 -1 0 0 0 0];

internalField   nonuniform List<scalar> 
96484
(
-0.00143596
-0.00141421
-0.00139337
-0.00137345
-0.00135435
-0.00133602
-0.00131836
-0.00130133
-0.00128485
-0.00126889
-0.00125342
-0.0012384
-0.00122379
-0.00120955
-0.00119562
-0.00118196
-0.00116852
-0.00115525
-0.0011421
-0.00112905
-0.00111605
-0.00110309
-0.00109012
-0.00107712
-0.00106404
-0.00105087
-0.00103759
-0.00103258
-0.00102655
-0.00101923
-0.00101024
-0.000999036
-0.000984994
-0.000967865
-0.000947685
-0.000924488
-0.000899233
-0.000872728
-0.000847586
-0.000824174
-0.000800837
-0.00077762
-0.000753535
-0.00073116
-0.000714197
-0.000721292
-0.000771236
-0.000863304
-0.000997983
-0.00121566
-0.00164751
-0.00154508
-0.00142836
-0.00138104
-0.00130641
-0.00124785
-0.00116709
-0.00108331
-0.000994341
-0.000901582
-0.000788817
-0.000657825
-0.000572659
-0.000548863
-0.00046355
-0.000478938
-0.000516767
-0.000538102
-0.000569269
-0.000607685
-0.000654801
-0.000707472
-0.000767333
-0.000831989
-0.000901417
-0.000976396
-0.00105579
-0.00113009
-0.00120497
-0.00145101
-0.0019222
-0.00163042
-0.00151396
-0.00146335
-0.00145717
-0.00150283
-0.00159733
-0.00165963
-0.00170834
-0.00173316
-0.00174216
-0.0017459
-0.00174919
-0.00175103
-0.00175367
-0.00175621
-0.00175928
-0.00175964
-0.0017492
0.000140346
0.000150679
-0.0014886
0.00015643
-0.00146858
0.00016179
-0.0014494
0.00016671
-0.00143108
0.000171252
-0.00141345
0.00017542
-0.00139652
0.000179275
-0.00138017
0.000182858
-0.00136441
0.000186229
-0.00134919
0.000189434
-0.00133454
0.000192495
-0.0013204
0.000195454
-0.00130679
0.000198316
-0.00129361
0.00020112
-0.00128084
0.000203863
-0.00126835
0.000206579
-0.00125606
0.000209267
-0.00124388
0.000211962
-0.00123174
0.00021467
-0.00121954
0.000217422
-0.00120726
0.000220212
-0.00119485
0.000223053
-0.0011823
0.000225944
-0.00116958
0.000228894
-0.00115661
0.000231902
-0.00114331
0.000234801
-0.00112957
0.000337726
-0.00111526
0.00034262
-0.00110076
0.00034652
-0.00108391
0.000349688
-0.0010649
0.000351731
-0.00104354
0.000352745
-0.00102009
0.000352883
-0.00099495
0.000352057
-0.000969984
0.000349801
-0.000945758
0.000346686
-0.000923406
0.000342264
-0.000902022
0.000338296
-0.000881255
0.000334461
-0.00086158
0.000326482
-0.00084254
0.000317971
-0.000828197
0.000304432
-0.00082212
0.000290774
-0.00083189
0.00028029
-0.000867564
0.00027624
-0.000936306
0.000270312
-0.00102517
0.000258453
-0.00112304
0.000263976
-0.00122516
0.000309773
-0.00134289
0.000530788
-0.00150772
-0.000102427
-0.00167139
-0.000116724
-0.00159265
-4.73241e-05
-0.00154073
-7.46268e-05
-0.00149445
-5.85567e-05
-0.00144657
-8.07675e-05
-0.00139876
-8.37797e-05
-0.00134043
-8.89651e-05
-0.00127853
-9.27588e-05
-0.00122007
-0.000112765
-0.00116984
-0.000130992
-0.0011061
-8.51653e-05
-0.00102951
-2.37966e-05
-0.000983226
-8.53124e-05
-0.000972768
1.53877e-05
-0.000907369
3.78291e-05
-0.000949912
2.13351e-05
-0.000999899
3.11665e-05
-0.00103321
3.84166e-05
-0.00108244
4.71156e-05
-0.00112606
5.26714e-05
-0.00117203
5.98605e-05
-0.00121406
6.46562e-05
-0.00125562
6.9428e-05
-0.00129445
7.49789e-05
-0.00133137
7.93926e-05
-0.00136378
7.43004e-05
-0.00138897
7.48835e-05
-0.00141529
0.000246034
-0.00148139
0.000471195
-0.00161439
-0.00029178
-0.00164571
-0.000116461
-0.00164446
-5.06115e-05
-0.00160676
-6.17378e-06
-0.00159326
4.56521e-05
-0.0016148
9.45018e-05
-0.00165906
6.23002e-05
-0.00168681
4.87118e-05
-0.00171719
2.48202e-05
-0.00173319
8.99505e-06
-0.0017413
3.74351e-06
-0.00175091
3.2875e-06
-0.00175376
1.84055e-06
-0.00175477
2.64513e-06
-0.00175347
2.54122e-06
-0.00175159
3.06953e-06
-0.00174789
3.6209e-07
-0.0017417
-1.04449e-05
-0.00173171
-2.55788e-05
-0.00171751
0.00012001
0.000130662
-0.00157444
0.000137246
-0.00155742
0.000143467
-0.00154103
0.000149087
-0.0015253
0.000154325
-0.00151008
0.000159062
-0.00149538
0.000163519
-0.00148109
0.00016764
-0.00146723
0.000171576
-0.0014538
0.000175296
-0.00144084
0.00017888
-0.00142828
0.000182281
-0.00141608
0.000185541
-0.00140411
0.000188628
-0.00139234
0.000191581
-0.00138065
0.000194399
-0.00136899
0.00019712
-0.00135727
0.000199767
-0.00134544
0.000202389
-0.00133343
0.000205011
-0.00132118
0.000207665
-0.00130859
0.000210327
-0.00129562
0.000212974
-0.00128206
0.000215598
-0.00126801
0.00021816
-0.00125343
0.000220493
-0.00123847
0.00032322
-0.0012232
0.000325778
-0.00119781
0.000327506
-0.00117213
0.000328327
-0.00114646
0.000328283
-0.00112095
0.000327603
-0.00109531
0.000327917
-0.00106899
0.00032783
-0.00104399
0.000327449
-0.00102009
0.000325301
-0.000997617
0.000321498
-0.000978924
0.000318621
-0.000965795
0.000315421
-0.000961453
0.00031214
-0.000970925
0.000311894
-0.000999864
0.000314202
-0.00105197
0.000326447
-0.00112536
0.000349031
-0.00120692
0.0003651
-0.00127613
0.000368189
-0.00132722
0.000360572
-0.00137316
0.000381705
-0.00142558
0.000474609
-0.00149888
0.000694456
-0.00158818
-0.000181171
-0.00164612
-0.000168639
-0.00160774
-9.36095e-05
-0.0015817
-0.000122502
-0.00154542
-0.000106372
-0.00150618
-0.000139097
-0.0014682
-0.000145675
-0.00141915
-0.00014743
-0.00137024
-0.000142985
-0.0013268
-0.000176505
-0.00129606
-0.000207583
-0.00125536
-0.000131452
-0.00120966
-3.42542e-05
-0.00118415
-0.000150712
-0.00117354
5.79309e-05
-0.00114267
8.78169e-05
-0.00118982
5.46493e-05
-0.00122212
8.03883e-05
-0.00125928
8.20424e-05
-0.00130273
9.308e-05
-0.00133985
9.47014e-05
-0.0013735
0.000101429
-0.00139805
0.000103477
-0.00141917
0.00010635
-0.00143391
0.000107389
-0.00144475
0.000104588
-0.00145043
0.000100613
-0.00145459
0.000140985
-0.00147534
0.000379032
-0.00154905
0.000502524
-0.00164234
-0.000293039
-0.00162536
-0.00015416
-0.00161757
-6.41045e-05
-0.00159582
1.53615e-05
-0.00159296
8.99169e-05
-0.00162485
0.000122244
-0.00165976
9.26803e-05
-0.00167737
6.47178e-05
-0.00169807
3.2929e-05
-0.00170883
1.86074e-05
-0.00171677
6.59384e-06
-0.00171886
4.29456e-06
-0.00172103
5.35703e-07
-0.0017207
7.72096e-07
-0.0017213
-1.16592e-06
-0.00172048
-3.11764e-06
-0.0017179
-9.62395e-06
-0.00171103
-2.46454e-05
-0.00169949
-4.19951e-05
-0.00168658
0.000102781
0.000113644
-0.00163002
0.00012085
-0.00161503
0.000127734
-0.00160015
0.000133872
-0.0015857
0.00013963
-0.00157145
0.000144768
-0.00155767
0.000149663
-0.00154421
0.000154204
-0.00153128
0.000158621
-0.00151869
0.000162732
-0.00150649
0.000166676
-0.00149454
0.000170316
-0.0014829
0.000173767
-0.0014715
0.000176937
-0.00146042
0.000179924
-0.00144964
0.000182678
-0.00143924
0.00018529
-0.00142919
0.00018776
-0.00141951
0.000190143
-0.00141008
0.000192421
-0.00140081
0.000194693
-0.00139155
0.000196759
-0.00138225
0.000198925
-0.00137288
0.000201023
-0.00136332
0.000203201
-0.00135361
0.000205226
-0.00134373
0.000297827
-0.00133378
0.000300093
-0.00130688
0.000301836
-0.00127964
0.00030282
-0.00125257
0.000302648
-0.00122621
0.000301282
-0.001202
0.000302913
-0.00118071
0.000303928
-0.00116327
0.000304981
-0.00115214
0.000306608
-0.00115089
0.000308369
-0.00116193
0.000314278
-0.00118878
0.000324893
-0.0012302
0.000341079
-0.00128157
0.000363999
-0.00134086
0.000387588
-0.00139327
0.00040801
-0.00143309
0.000418247
-0.00145797
0.000416183
-0.00147087
0.000414133
-0.00148124
0.000412991
-0.00149086
0.000455009
-0.00152206
0.000563902
-0.00156874
0.000752399
-0.0016158
-0.000219555
-0.00162482
-0.000194669
-0.00160274
-0.000129892
-0.00159227
-0.000161745
-0.00156018
-0.000144355
-0.00153661
-0.000188144
-0.00150196
-0.000194579
-0.00146681
-0.000190879
-0.00142427
-0.00017372
-0.00139573
-0.000217207
-0.00137657
-0.000253277
-0.00135407
-0.000156969
-0.00132685
-4.4864e-05
-0.0013104
-0.000181576
-0.00129319
0.000105073
-0.00128852
0.000120118
-0.00132665
9.18173e-05
-0.00134327
0.000123832
-0.00138003
0.000119162
-0.00141163
0.000126732
-0.00144369
0.000119247
-0.00146787
0.000122557
-0.00148493
0.000118218
-0.001497
0.000117189
-0.00150342
0.000113063
-0.00150621
0.000108749
-0.00150526
0.000121368
-0.00150822
0.000214696
-0.00153167
0.00047232
-0.00158588
0.000485538
-0.00161869
-0.00030082
-0.00159645
-0.000175913
-0.00160599
-6.69651e-05
-0.00161003
4.72491e-05
-0.00162814
0.000124829
-0.00164764
0.000139854
-0.00166219
0.000113383
-0.00167033
7.54786e-05
-0.00167868
4.08668e-05
-0.00168283
2.06906e-05
-0.00168803
8.7674e-06
-0.00169036
3.96904e-06
-0.00169144
1.13307e-06
-0.00169056
-4.98868e-08
-0.00168864
-3.7414e-06
-0.00168522
-9.9925e-06
-0.00168089
-2.11589e-05
-0.00167427
-3.75623e-05
-0.00166538
-5.40664e-05
-0.00165597
8.79403e-05
9.86569e-05
-0.00164897
0.000105967
-0.0016368
0.00011329
-0.00162516
0.000119622
-0.00161392
0.000125846
-0.00160334
0.00013131
-0.00159332
0.00013673
-0.00158396
0.000141615
-0.00157518
0.000146427
-0.00156692
0.000150783
-0.00155913
0.000155036
-0.00155176
0.000158914
-0.00154477
0.000162686
-0.0015381
0.000166156
-0.00153173
0.000169523
-0.0015256
0.000172632
-0.00151969
0.000175611
-0.00151398
0.000178328
-0.00150849
0.000180871
-0.00150318
0.000183161
-0.00149811
0.000185389
-0.00149329
0.00018739
-0.00148873
0.000189372
-0.00148461
0.000191305
-0.00148109
0.000193325
-0.00147849
0.000195281
-0.00147701
0.000270922
-0.0014771
0.000272857
-0.00145712
0.000274764
-0.00143992
0.000276455
-0.00142725
0.000278442
-0.00141963
0.000279989
-0.0014187
0.000285477
-0.00142597
0.000292794
-0.00144282
0.000303737
-0.00146843
0.000317647
-0.0015007
0.000335217
-0.00153663
0.000355697
-0.00157143
0.000376265
-0.00159956
0.00040037
-0.00162457
0.000416407
-0.00163496
0.000427409
-0.00163497
0.000432896
-0.00162544
0.000431139
-0.00160989
0.000426559
-0.00159424
0.000423746
-0.00158021
0.000444198
-0.00157972
0.000501688
-0.0015916
0.000610964
-0.00161157
0.000761412
-0.00162322
-0.000241628
-0.00160438
-0.000205147
-0.0015983
-0.000161974
-0.00159206
-0.000185318
-0.00157016
-0.000179009
-0.00155087
-0.000223296
-0.00152314
-0.000237112
-0.00149392
-0.000219424
-0.00145812
-0.000192874
-0.00143699
-0.000239714
-0.00142514
-0.000280494
-0.00141208
-0.000173418
-0.00139759
-6.20762e-05
-0.00138699
-0.00018624
-0.00137564
0.000143198
-0.00138284
0.000136741
-0.00140473
0.000128575
-0.00141731
0.000155436
-0.00144823
0.000151219
-0.00147239
0.000150909
-0.00149975
0.000136306
-0.0015167
0.000134634
-0.00152853
0.000124636
-0.00153403
0.000119973
-0.00153496
0.000112113
-0.00153189
0.000111711
-0.00152769
0.000144821
-0.00153173
0.000268906
-0.00155852
0.00050513
-0.00159905
0.000463296
-0.0016
-0.000291284
-0.00157209
-0.000171864
-0.00159133
-4.88576e-05
-0.00160423
6.67489e-05
-0.00162877
0.000139381
-0.00164397
0.000147989
-0.00164912
0.000121735
-0.00165108
7.96283e-05
-0.00165392
4.60634e-05
-0.00165496
2.30234e-05
-0.00165632
9.8479e-06
-0.00165614
3.08804e-06
-0.00165677
-7.83661e-07
-0.00165629
-3.47482e-06
-0.00165571
-8.07114e-06
-0.00165257
-1.66118e-05
-0.00164741
-3.00507e-05
-0.00164022
-4.69684e-05
-0.0016327
-6.27755e-05
-0.00162583
7.5954e-05
8.64886e-05
-0.00168818
9.43301e-05
-0.00167945
0.000102051
-0.00167123
0.000109033
-0.00166349
0.000115829
-0.00165646
0.000121954
-0.00165001
0.000127948
-0.00164423
0.000133357
-0.00163897
0.000138637
-0.00163432
0.00014341
-0.00163023
0.000148047
-0.00162679
0.000152246
-0.00162401
0.000156314
-0.00162196
0.00016002
-0.00162067
0.000163616
-0.00162022
0.000166923
-0.00162072
0.000170118
-0.00162242
0.000173023
-0.00162565
0.0001758
-0.00163074
0.000178339
-0.00163815
0.000180829
-0.0016483
0.000183276
-0.00166166
0.000185847
-0.00167855
0.000188709
-0.00169918
0.000191841
-0.00172359
0.000195371
-0.00175201
0.00025095
-0.00178443
0.000255651
-0.00179245
0.0002621
-0.00180323
0.000268828
-0.00181807
0.000277516
-0.00183488
0.000287253
-0.00185323
0.000302329
-0.00186993
0.000318408
-0.00188428
0.000336002
-0.00189435
0.000353577
-0.00189852
0.000370021
-0.00189549
0.000383824
-0.00188744
0.000401273
-0.00187459
0.000410765
-0.00185065
0.000416412
-0.0018203
0.000417888
-0.00178581
0.000417345
-0.00175006
0.000415484
-0.00171519
0.000412535
-0.00168133
0.000423256
-0.00165826
0.000456072
-0.00164521
0.000521658
-0.00164044
0.000622614
-0.00163654
0.000742574
-0.00162085
-0.000247708
-0.00158218
-0.000211384
-0.0015856
-0.00018388
-0.00158214
-0.000204608
-0.00156732
-0.000206732
-0.00155329
-0.000252518
-0.00153006
-0.000272912
-0.00150665
-0.000240558
-0.00147508
-0.000204719
-0.00146003
-0.00025278
-0.00145262
-0.000294977
-0.00144656
-0.000184018
-0.00143972
-7.34323e-05
-0.0014339
-0.000179041
-0.00142805
0.000165097
-0.00143894
0.00014932
-0.00144807
0.00015949
-0.00146041
0.000179598
-0.00148351
0.000178578
-0.00150361
0.000167857
-0.00152689
0.00014814
-0.00154001
0.000140129
-0.0015494
0.000125572
-0.00155187
0.000116905
-0.00155103
0.00010791
-0.00154648
0.000115754
-0.0015439
0.000171604
-0.00155111
0.000309437
-0.00157336
0.000506078
-0.0015937
0.000435388
-0.00157893
-0.000272043
-0.00155361
-0.000158963
-0.00157989
-2.43183e-05
-0.00160061
8.19498e-05
-0.00162121
0.000144531
-0.00162765
0.00014995
-0.00162796
0.000124576
-0.00162555
8.06679e-05
-0.00162376
4.7424e-05
-0.00162267
2.28461e-05
-0.00162293
1.04719e-05
-0.00162271
2.60508e-06
-0.00162302
-1.35701e-06
-0.00162178
-6.62114e-06
-0.00161994
-1.3223e-05
-0.00161682
-2.38101e-05
-0.00161241
-3.75686e-05
-0.00160667
-5.38357e-05
-0.00160099
-6.87423e-05
-0.00159621
6.72231e-05
7.77606e-05
-0.00175928
8.61112e-05
-0.00175342
9.4304e-05
-0.00174807
0.000102007
-0.00174372
0.000109383
-0.00174053
0.000116171
-0.00173886
0.000122686
-0.00173887
0.000128708
-0.00174064
0.000134545
-0.00174419
0.000139977
-0.00174958
0.000145262
-0.00175703
0.0001502
-0.00176678
0.00015502
-0.00177916
0.000159576
-0.00179449
0.000164117
-0.00181312
0.000168617
-0.00183529
0.000173351
-0.00186115
0.000178113
-0.00189067
0.000183205
-0.00192385
0.000188496
-0.00196061
0.00019419
-0.00200079
0.000200161
-0.00204418
0.000206478
-0.00209049
0.000213115
-0.00213944
0.000220262
-0.00219067
0.00022779
-0.00224361
0.000258978
-0.00229744
0.000266431
-0.00230365
0.000276937
-0.00230592
0.000285635
-0.00230358
0.000295869
-0.00229517
0.00030395
-0.00228058
0.000316679
-0.00225938
0.000328477
-0.00223427
0.000340175
-0.00220443
0.00035055
-0.00217013
0.000361971
-0.00213127
0.000370975
-0.00208824
0.000377334
-0.00204128
0.000380407
-0.0019914
0.000381925
-0.00194065
0.000382138
-0.00189052
0.000382476
-0.00184068
0.000381625
-0.00179337
0.00038947
-0.00175389
0.000410202
-0.00172153
0.000451302
-0.00169608
0.000517754
-0.00167438
0.000606933
-0.00164971
0.000703905
-0.00161341
-0.000244288
-0.00156064
-0.000214852
-0.00156957
-0.000198693
-0.00156915
-0.000218645
-0.00156038
-0.000229954
-0.00154968
-0.000275932
-0.00153143
-0.000304479
-0.00151152
-0.000255611
-0.0014843
-0.000212126
-0.00147265
-0.00025884
-0.00146886
-0.000301821
-0.00146708
-0.000189836
-0.00146607
-7.92846e-05
-0.00146397
-0.000168152
-0.00146226
0.000174228
-0.00147395
0.000161661
-0.00147646
0.00018259
-0.00148752
0.000199696
-0.00150427
0.00020186
-0.00152202
0.000180975
-0.00154133
0.000157532
-0.00155177
0.0001426
-0.00155834
0.000124729
-0.00155816
0.000112363
-0.00155524
0.000105324
-0.00154955
0.00012297
-0.0015483
0.000193848
-0.00155727
0.000329783
-0.00157411
0.000491309
-0.00157946
0.000410067
-0.00155724
-0.000245771
-0.00153494
-0.000138235
-0.00156382
-3.72308e-06
-0.00158735
8.83894e-05
-0.00160332
0.000144841
-0.00160599
0.000147538
-0.00160288
0.000122786
-0.00159696
7.95845e-05
-0.00159284
4.76851e-05
-0.00159013
2.26256e-05
-0.0015892
1.07829e-05
-0.00158862
1.36184e-06
-0.00158819
-3.19891e-06
-0.00158732
-9.74052e-06
-0.00158559
-1.76362e-05
-0.00158229
-2.95505e-05
-0.00157834
-4.32414e-05
-0.00157391
-5.86147e-05
-0.00156996
-7.25528e-05
-0.00156694
6.1132e-05
7.19015e-05
-0.00192986
8.0762e-05
-0.00193274
8.99563e-05
-0.00193748
9.88178e-05
-0.00194441
0.000107709
-0.00195388
0.000116185
-0.00196601
0.000124455
-0.00198095
0.000132254
-0.00199874
0.000139936
-0.00201954
0.00014743
-0.00204326
0.000155008
-0.0020699
0.000162584
-0.00209935
0.000170349
-0.00213153
0.000178206
-0.00216624
0.000186285
-0.00220329
0.000194479
-0.00224233
0.000202867
-0.00228303
0.000211301
-0.002325
0.000219958
-0.00236812
0.000228682
-0.0024119
0.000237575
-0.00245609
0.00024647
-0.00250025
0.000255437
-0.00254411
0.000264342
-0.00258733
0.000273203
-0.00262972
0.000281615
-0.00267107
0.000265194
-0.00271133
0.000268703
-0.00268344
0.000274593
-0.00265186
0.000277228
-0.00261619
0.000281278
-0.00257723
0.000282749
-0.00253319
0.000291571
-0.00248548
0.000298635
-0.00243408
0.000305877
-0.00238064
0.000311684
-0.00232454
0.000318941
-0.00226733
0.00032402
-0.00220702
0.000327452
-0.00214592
0.000329653
-0.00208472
0.000331795
-0.00202453
0.000332302
-0.00196502
0.000335169
-0.00190929
0.000342139
-0.00185753
0.000357111
-0.00181092
0.000384755
-0.00176946
0.0004296
-0.00173208
0.000493086
-0.0016953
0.000570635
-0.00165368
0.000651134
-0.0016021
-0.000235359
-0.00153889
-0.000215278
-0.00155049
-0.000207458
-0.0015531
-0.000229353
-0.0015495
-0.000248203
-0.0015421
-0.00029584
-0.00152825
-0.000331698
-0.00151165
-0.000267256
-0.00148815
-0.000215921
-0.00147944
-0.000260622
-0.00147855
-0.000302832
-0.00148021
-0.000191932
-0.0014833
-8.09985e-05
-0.00148395
-0.000156454
-0.0014838
0.000176736
-0.0014948
0.000172716
-0.00149428
0.000199341
-0.00150313
0.000217443
-0.00151516
0.000221174
-0.00153072
0.000191409
-0.00154624
0.000164109
-0.00155441
0.000142421
-0.00155839
0.000121807
-0.00155654
0.000106676
-0.00155284
0.000104065
-0.00154804
0.000131941
-0.00154893
0.00021069
-0.00155746
0.000335134
-0.00156618
0.000469087
-0.00156146
0.00038777
-0.00153733
-0.000216896
-0.00151787
-0.000114697
-0.0015475
1.22445e-05
-0.0015704
9.10608e-05
-0.00158094
0.000141728
-0.00158108
0.000141618
-0.00157525
0.000118668
-0.00156736
7.68685e-05
-0.00156141
4.67535e-05
-0.00155759
2.20481e-05
-0.00155572
1.03589e-05
-0.00155469
4.8659e-07
-0.00155399
-4.93073e-06
-0.00155278
-1.30412e-05
-0.001551
-2.15777e-05
-0.00154827
-3.3985e-05
-0.00154509
-4.71872e-05
-0.00154191
-6.16376e-05
-0.00153943
-7.46026e-05
-0.0015379
6.26165e-05
7.47749e-05
-0.00220501
8.55023e-05
-0.00222018
9.68932e-05
-0.00223671
0.000108281
-0.00225485
0.000119842
-0.00227474
0.000131122
-0.00229649
0.000142253
-0.00232012
0.000153046
-0.00234558
0.00016366
-0.00237273
0.000174072
-0.00240137
0.000184457
-0.00243118
0.000194767
-0.00246189
0.00020506
-0.00249322
0.000215249
-0.00252496
0.000225323
-0.00255694
0.000235182
-0.00258904
0.000244843
-0.00262118
0.000254415
-0.00265327
0.000263739
-0.00268508
0.000272876
-0.0027165
0.000281728
-0.00274736
0.000290336
-0.00277757
0.000298657
-0.00280704
0.000306731
-0.0028357
0.00031455
-0.0028635
0.000321879
-0.00289041
0.000237302
-0.00291644
0.000237117
-0.00286756
0.000238927
-0.00281647
0.000238265
-0.00276287
0.000237242
-0.00270722
0.000235036
-0.002649
0.000240178
-0.00258891
0.000245195
-0.00252769
0.00024977
-0.00246578
0.000254483
-0.00240277
0.000258622
-0.00233915
0.000262928
-0.00227475
0.000266247
-0.00220994
0.000269462
-0.00214512
0.000272284
-0.00208123
0.000276572
-0.00201909
0.000283411
-0.00195958
0.000295526
-0.00190321
0.000315654
-0.00185052
0.000347381
-0.00180108
0.000392818
-0.0017534
0.000451463
-0.00170419
0.000519052
-0.0016499
0.000587924
-0.00158736
-0.000223758
-0.00151651
-0.000212662
-0.00153001
-0.000211062
-0.00153575
-0.000236755
-0.00153636
-0.000262048
-0.0015323
-0.000312444
-0.00152246
-0.000355197
-0.00150887
-0.000275967
-0.00148882
-0.000216805
-0.00148251
-0.000258962
-0.00148434
-0.000299746
-0.00148883
-0.000191281
-0.00149535
-8.11504e-05
-0.00149801
-0.000145457
-0.00149855
0.000176219
-0.00150862
0.000181568
-0.00150603
0.000211368
-0.00151196
0.000233003
-0.00152043
0.000236698
-0.00153359
0.000199576
-0.0015458
0.000168092
-0.00155191
0.000140572
-0.0015536
0.000118102
-0.00155059
0.000101877
-0.00154641
0.000104958
-0.00154256
0.000140473
-0.00154448
0.000219412
-0.00155091
0.00033041
-0.00155319
0.000444953
-0.00154241
0.000368312
-0.00151797
-0.000187261
-0.00149977
-9.17967e-05
-0.00152833
2.27869e-05
-0.00154898
9.11944e-05
-0.0015566
0.000135896
-0.00155488
0.00013373
-0.00154676
0.00011272
-0.00153741
7.30501e-05
-0.00153
4.48808e-05
-0.00152532
2.10182e-05
-0.00152267
9.66488e-06
-0.00152125
-7.28705e-07
-0.00152015
-6.70562e-06
-0.0015189
-1.57751e-05
-0.00151708
-2.47625e-05
-0.00151485
-3.71622e-05
-0.00151249
-4.96684e-05
-0.0015105
-6.31632e-05
-0.00150928
-7.51672e-05
-0.00150904
7.63382e-05
8.9943e-05
-0.00246107
0.000102035
-0.00248162
0.000115027
-0.00250165
0.000128178
-0.00252141
0.000141592
-0.00254102
0.000154744
-0.00256069
0.000167714
-0.00258049
0.000180196
-0.00260054
0.000192299
-0.0026208
0.000203889
-0.00264131
0.000215159
-0.00266196
0.000226098
-0.00268264
0.000236801
-0.00270323
0.000247231
-0.0027237
0.000257419
-0.00274397
0.000267322
-0.00276406
0.000276939
-0.00278392
0.000286224
-0.00280358
0.000295158
-0.00282302
0.000303736
-0.00284228
0.000311941
-0.00286135
0.000319801
-0.0028803
0.000327315
-0.00289915
0.000334532
-0.00291793
0.000341467
-0.0029367
0.000347902
-0.00295547
0.000188429
-0.0029743
0.000186025
-0.00291957
0.000185323
-0.00286328
0.000182619
-0.00280593
0.000179018
-0.00274667
0.00017495
-0.00268634
0.000178961
-0.0026239
0.000183277
-0.00256133
0.000186765
-0.00249781
0.000190863
-0.00243422
0.000194223
-0.00236981
0.000198119
-0.00230537
0.000201423
-0.00224044
0.000205578
-0.00217588
0.000210144
-0.00211167
0.000217061
-0.00204875
0.000227041
-0.00198737
0.000242831
-0.00192815
0.00026622
-0.00187109
0.000299698
-0.00181556
0.000343612
-0.00175984
0.000397172
-0.00170175
0.000456506
-0.00163885
0.000517075
-0.0015692
-0.000210258
-0.0014933
-0.000206919
-0.00150835
-0.00021045
-0.00151721
-0.000240823
-0.00152149
-0.000271882
-0.00152087
-0.000326038
-0.00151474
-0.000375242
-0.00150416
-0.000282279
-0.0014873
-0.000214976
-0.00148328
-0.000254473
-0.00148763
-0.000293223
-0.00149467
-0.000188622
-0.00150403
-8.06126e-05
-0.00150823
-0.000135385
-0.00150904
0.000173625
-0.00151813
0.000187496
-0.00151336
0.000219845
-0.00151611
0.00024616
-0.00152176
0.000248911
-0.00153229
0.000205686
-0.00154162
0.00016978
-0.00154573
0.00013756
-0.00154553
0.000113924
-0.00154184
9.80232e-05
-0.00153777
0.00010688
-0.00153503
0.0001469
-0.00153702
0.000221691
-0.00153999
0.000319634
-0.00153711
0.00042051
-0.00152304
0.000350109
-0.00149861
-0.000158698
-0.00148075
-7.11439e-05
-0.00150726
3.04e-05
-0.00152518
8.94783e-05
-0.00153029
0.000127775
-0.001527
0.000124379
-0.00151731
0.000105312
-0.00150697
6.83727e-05
-0.0014985
4.2227e-05
-0.00149317
1.95949e-05
-0.00148985
8.57173e-06
-0.00148808
-1.98169e-06
-0.00148668
-8.52244e-06
-0.00148537
-1.80102e-05
-0.00148373
-2.71185e-05
-0.00148207
-3.91583e-05
-0.00148052
-5.08857e-05
-0.00147959
-6.33975e-05
-0.00147946
-7.44628e-05
-0.00148034
9.68914e-05
0.000110493
-0.00261611
0.000122068
-0.00263522
0.000134788
-0.00265232
0.000147786
-0.00266758
0.000161267
-0.00268127
0.000174541
-0.00269371
0.000187763
-0.00270518
0.000200459
-0.00271602
0.000212809
-0.00272643
0.000224536
-0.00273664
0.000235846
-0.00274673
0.000246689
-0.0027568
0.000257266
-0.00276677
0.000267504
-0.0027767
0.000277503
-0.00278671
0.000287188
-0.00279701
0.000296594
-0.00280751
0.00030567
-0.00281842
0.000314413
-0.00282968
0.000322811
-0.00284139
0.000330883
-0.00285346
0.000338651
-0.00286617
0.000346104
-0.00287943
0.0003533
-0.00289337
0.000360238
-0.00290793
0.000366725
-0.00292316
0.000133705
-0.00293904
0.000129739
-0.0028861
0.000127964
-0.00283184
0.000123365
-0.00277695
0.000118686
-0.00272049
0.00011251
-0.00266311
0.00011639
-0.0026039
0.000119761
-0.00254446
0.00012317
-0.00248413
0.000126453
-0.00242352
0.000129784
-0.00236213
0.000133193
-0.00230052
0.000136862
-0.00223833
0.00014137
-0.00217616
0.000147225
-0.0021139
0.000155675
-0.0020522
0.000167825
-0.00199113
0.000185767
-0.00193119
0.000210691
-0.00187176
0.000243981
-0.00181237
0.000285522
-0.00175166
0.000334267
-0.00168835
0.000386856
-0.00162068
0.000441182
-0.00154753
-0.000195208
-0.00146932
-0.000198064
-0.0014858
-0.000206165
-0.00149767
-0.000241449
-0.00150531
-0.000278013
-0.00150823
-0.000336617
-0.00150561
-0.000392104
-0.00149808
-0.000286296
-0.00148424
-0.000210624
-0.00148248
-0.000247429
-0.00148926
-0.000283867
-0.00149871
-0.000184422
-0.00151059
-7.98068e-05
-0.0015161
-0.000126286
-0.00151708
0.00016885
-0.00152512
0.000190246
-0.0015181
0.000225496
-0.00151746
0.000256691
-0.00152058
0.000258236
-0.00152832
0.000209801
-0.00153508
0.000169579
-0.00153723
0.000133867
-0.00153544
0.000109857
-0.00153124
9.52878e-05
-0.0015273
0.00010886
-0.00152516
0.000149874
-0.00152633
0.000218808
-0.00152583
0.00030557
-0.00151903
0.000396078
-0.00150303
0.000332247
-0.00147833
-0.000132187
-0.00145998
-5.32205e-05
-0.00148407
3.55082e-05
-0.00149952
8.61935e-05
-0.00150289
0.000118081
-0.00149831
0.000114042
-0.00148747
9.68383e-05
-0.00147634
6.30375e-05
-0.00146707
3.89133e-05
-0.00146119
1.78188e-05
-0.00145735
7.17609e-06
-0.00145526
-3.28851e-06
-0.00145364
-1.01625e-05
-0.00145234
-1.9677e-05
-0.00145095
-2.86656e-05
-0.00144987
-4.00898e-05
-0.00144908
-5.10118e-05
-0.00144909
-6.25178e-05
-0.00144992
-7.26699e-05
-0.00145176
0.000117464
0.000129608
-0.00265776
0.000139161
-0.00267368
0.000150056
-0.00268684
0.000161471
-0.00269731
0.000173706
-0.00270536
0.000186016
-0.00271132
0.000198603
-0.00271567
0.00021087
-0.00271884
0.000223015
-0.00272131
0.000234628
-0.00272344
0.000245913
-0.00272555
0.000256656
-0.00272788
0.0002672
-0.0027305
0.000277511
-0.00273345
0.000287811
-0.00273685
0.000297687
-0.00274055
0.0003075
-0.00274476
0.000316935
-0.00274957
0.000326123
-0.0027551
0.000334875
-0.00276146
0.000343599
-0.0027687
0.000351906
-0.00277694
0.000360051
-0.00278623
0.000367851
-0.00279659
0.000375477
-0.00280798
0.000382604
-0.00282039
8.07621e-05
-0.0028338
7.54813e-05
-0.0027857
7.30699e-05
-0.00273662
6.69065e-05
-0.00268723
6.13101e-05
-0.00263671
5.32959e-05
-0.00258539
5.69477e-05
-0.00253279
5.94359e-05
-0.00247958
6.25595e-05
-0.00242552
6.50662e-05
-0.00237084
6.81669e-05
-0.00231536
7.10076e-05
-0.00225931
7.46865e-05
-0.00220254
7.91099e-05
-0.00214532
8.5528e-05
-0.0020875
9.46072e-05
-0.00202936
0.000107879
-0.00197078
0.000126337
-0.00191194
0.000151303
-0.00185239
0.000183277
-0.00179188
0.00022221
-0.00172948
0.000266594
-0.00166438
0.000313702
-0.00159555
0.000362974
-0.00152232
-0.000178728
-0.00144451
-0.000186193
-0.00146229
-0.000198522
-0.00147706
-0.000238535
-0.00148791
-0.000280632
-0.00149446
-0.000344141
-0.00149531
-0.000405949
-0.00149091
-0.000288052
-0.00147999
-0.000203841
-0.00148052
-0.000237983
-0.00148965
-0.00027199
-0.00150138
-0.000178906
-0.00151557
-7.88284e-05
-0.00152235
-0.000118244
-0.0015235
0.000161827
-0.00153026
0.000189602
-0.00152059
0.000228617
-0.0015167
0.000264434
-0.00151739
0.000264996
-0.00152228
0.000211948
-0.00152663
0.00016779
-0.00152683
0.000129668
-0.00152369
0.000105913
-0.00151912
9.31498e-05
-0.00151529
0.000110033
-0.00151327
0.000149371
-0.00151304
0.000212007
-0.00150915
0.000289575
-0.00149953
0.000371379
-0.00148218
0.000313895
-0.00145689
-0.000108099
-0.00143766
-3.77639e-05
-0.00145919
3.88759e-05
-0.00147238
8.16062e-05
-0.00147436
0.000107245
-0.00146876
0.000102911
-0.00145716
8.75719e-05
-0.00144546
5.71611e-05
-0.00143566
3.50687e-05
-0.00142935
1.57311e-05
-0.00142511
5.55247e-06
-0.00142277
-4.58854e-06
-0.00142101
-1.15504e-05
-0.00141982
-2.07599e-05
-0.00141874
-2.94495e-05
-0.00141822
-4.00845e-05
-0.00141815
-5.01832e-05
-0.00141897
-6.06723e-05
-0.00142063
-6.99379e-05
-0.0014233
0.000135556
0.000145527
-0.00261708
0.000152323
-0.00263023
0.000160523
-0.00264061
0.000169519
-0.00264812
0.000179672
-0.00265285
0.000190362
-0.00265501
0.000201778
-0.00265497
0.000213336
-0.00265319
0.000225148
-0.00265023
0.000236737
-0.00264658
0.000248236
-0.00264275
0.000259285
-0.0026391
0.000270146
-0.00263595
0.000280911
-0.00263331
0.000291512
-0.00263104
0.000301894
-0.00262901
0.000312311
-0.00262754
0.000322471
-0.0026266
0.000332481
-0.00262652
0.00034212
-0.00262745
0.000351831
-0.00262976
0.000361203
-0.00263332
0.000370404
-0.00263833
0.000379242
-0.00264469
0.000387893
-0.0026525
0.000396006
-0.00266163
3.26668e-05
-0.00267209
2.64001e-05
-0.00263079
2.3676e-05
-0.00258847
1.6395e-05
-0.0025465
9.98261e-06
-0.00250349
6.95468e-07
-0.00245994
3.73892e-06
-0.00241481
5.38188e-06
-0.00236971
7.88062e-06
-0.00232402
9.57928e-06
-0.00227773
1.21198e-05
-0.00223058
1.42346e-05
-0.00218268
1.74693e-05
-0.00213375
2.12903e-05
-0.00208383
2.73904e-05
-0.00203261
3.60236e-05
-0.00198011
4.90373e-05
-0.00192616
6.67944e-05
-0.0018711
9.07856e-05
-0.00181439
0.000120882
-0.0017555
0.000157107
-0.00169432
0.000197763
-0.00163061
0.000240468
-0.00156378
0.000285165
-0.0014936
-0.000160948
-0.00141889
-0.000171416
-0.00143778
-0.000187677
-0.00145528
-0.000231981
-0.00146926
-0.000279788
-0.00147955
-0.000348532
-0.00148393
-0.00041687
-0.00148277
-0.000287527
-0.00147476
-0.000194714
-0.00147757
-0.000226244
-0.00148894
-0.000257803
-0.00150285
-0.000172127
-0.00151922
-7.7678e-05
-0.00152731
-0.000111485
-0.00152881
0.000152158
-0.00153429
0.000185715
-0.00152169
0.000229298
-0.00151445
0.000269326
-0.00151259
0.000269352
-0.0015146
0.00021214
-0.00151661
0.000164657
-0.0015149
0.000125096
-0.00151058
0.000102086
-0.00150563
9.11314e-05
-0.00150171
0.000109797