/*--------------------------------*- C++ -*----------------------------------*\
  =========                 |
  \\      /  F ield         | OpenFOAM: The Open Source CFD Toolbox
   \\    /   O peration     | Website:  https://openfoam.org
    \\  /    A nd           | Version:  7
     \\/     M anipulation  |
\*---------------------------------------------------------------------------*/
FoamFile
{
    version     2.0;
    format      ascii;
    class       volVectorField;
    location    "0.1225";
    object      U;
}
// * * * * * * * * * * * * * * * * * * * * * * * * * * * * * * * * * * * * * //

dimensions      [0 1 -1 0 0 0 0];

internalField   nonuniform List<vector> 
48560
(
(221.945 -5.36768 -4.90923e-11)
(221.753 -6.19687 -5.89241e-11)
(221.583 -7.02826 -7.82022e-11)
(221.436 -7.84028 -1.00136e-10)
(221.304 -8.63318 -1.31237e-10)
(221.184 -9.40114 -1.65892e-10)
(221.072 -10.1469 -2.09103e-10)
(220.967 -10.8664 -2.55697e-10)
(220.865 -11.5638 -3.09317e-10)
(220.764 -12.2365 -3.65457e-10)
(220.665 -12.8902 -4.25942e-10)
(220.564 -13.5231 -4.8714e-10)
(220.461 -14.1406 -5.49435e-10)
(220.354 -14.741 -6.09767e-10)
(220.242 -15.3282 -6.66218e-10)
(220.122 -15.9004 -7.17003e-10)
(219.995 -16.4602 -7.58776e-10)
(219.855 -17.006 -7.89792e-10)
(219.703 -17.5398 -8.06734e-10)
(219.533 -18.0608 -8.07737e-10)
(219.345 -18.5704 -7.89877e-10)
(219.133 -19.0683 -7.51074e-10)
(218.893 -19.5549 -6.89651e-10)
(218.62 -20.0295 -6.02812e-10)
(218.311 -20.4914 -4.92892e-10)
(217.958 -20.9395 -3.56799e-10)
(217.557 -21.3723 -1.98096e-10)
(217.039 -21.8647 1.69265e-11)
(216.285 -22.4137 3.11406e-10)
(215.392 -22.9119 5.95903e-10)
(214.306 -23.3846 8.8203e-10)
(212.962 -23.8068 1.15975e-09)
(211.281 -24.1917 1.37803e-09)
(209.08 -24.5152 1.53854e-09)
(206.057 -24.7616 1.44274e-09)
(202.491 -24.8964 1.19439e-09)
(198.253 -24.8758 5.65356e-10)
(193.602 -24.7462 -1.39999e-10)
(188.788 -24.4533 -1.3777e-09)
(184.854 -24.0506 -2.54038e-09)
(180.81 -23.2557 -4.16513e-09)
(176.733 -22.62 -4.54996e-09)
(172.877 -21.4534 -5.913e-09)
(169.147 -20.0222 -6.40442e-09)
(165.803 -18.7133 -7.02692e-09)
(165.081 -16.0974 -9.50418e-09)
(171.768 -12.248 -1.25222e-08)
(191.386 -6.88492 -1.71167e-08)
(221.307 -4.08078 -2.21806e-08)
(250.054 -7.78898 -2.61593e-08)
(271.685 -31.4681 -2.92589e-08)
(263.863 -74.1585 -3.08607e-08)
(229.269 -57.65 -2.97251e-08)
(214.68 -60.7852 -2.98114e-08)
(195.662 -51.6234 -2.92058e-08)
(183.877 -51.0944 -2.92452e-08)
(165.481 -43.5363 -2.86426e-08)
(153.75 -41.3576 -2.86571e-08)
(133.696 -34.3429 -2.79997e-08)
(121.443 -31.2415 -2.80378e-08)
(99.323 -24.1237 -2.73089e-08)
(85.683 -20.4169 -2.73045e-08)
(66.0758 -11.0083 -2.64219e-08)
(66.3463 -8.54306 -2.67562e-08)
(55.7816 -5.57971 -2.62846e-08)
(52.6455 1.12771 -2.60708e-08)
(56.5749 2.2247 -2.63148e-08)
(58.823 4.44238 -2.65324e-08)
(60.5568 6.50872 -2.6738e-08)
(63.5758 8.64365 -2.70222e-08)
(67.9238 11.4707 -2.74319e-08)
(73.4448 14.9745 -2.78807e-08)
(80.3088 19.2409 -2.83842e-08)
(88.7299 24.4694 -2.8925e-08)
(98.929 30.8337 -2.95079e-08)
(111.36 38.4928 -3.0118e-08)
(127.427 48.2365 -3.07936e-08)
(149.438 61.6847 -3.1505e-08)
(182.284 78.9862 -3.22183e-08)
(220.441 84.7195 -3.28669e-08)
(259.689 66.4918 -3.37705e-08)
(254.786 60.4472 -3.40181e-08)
(246.368 53.3835 -3.43837e-08)
(251.803 56.0633 -3.43928e-08)
(256.211 56.6905 -3.46373e-08)
(267.566 53.7093 -3.53829e-08)
(271.759 43.0844 -3.55529e-08)
(275.782 36.6796 -3.59209e-08)
(275.79 26.9354 -3.60886e-08)
(275.43 19.8337 -3.63737e-08)
(273.263 14.3847 -3.64743e-08)
(270.017 8.44321 -3.66517e-08)
(266.521 3.74695 -3.68007e-08)
(263.136 -0.00116189 -3.69408e-08)
(260.008 -3.04811 -3.70474e-08)
(257.305 -5.5127 -3.71526e-08)
(255.074 -7.47894 -3.72326e-08)
(253.41 -8.90355 -3.7296e-08)
(252.353 -9.71776 -3.73417e-08)
(252.112 -9.95823 -3.73654e-08)
(221.19 -5.08786 -5.89693e-10)
(221.007 -5.94568 -6.17913e-10)
(220.839 -6.80023 -6.46807e-10)
(220.704 -7.64503 -6.73384e-10)
(220.576 -8.4625 -6.99041e-10)
(220.465 -9.26011 -7.18579e-10)
(220.354 -10.0282 -7.35719e-10)
(220.249 -10.7748 -7.43023e-10)
(220.139 -11.4972 -7.45588e-10)
(220.025 -12.2042 -7.34485e-10)
(219.906 -12.8956 -7.1843e-10)
(219.781 -13.5729 -6.87697e-10)
(219.645 -14.2349 -6.47492e-10)
(219.497 -14.8797 -5.90176e-10)
(219.333 -15.5069 -5.19794e-10)
(219.152 -16.114 -4.31311e-10)
(218.951 -16.702 -3.28218e-10)
(218.727 -17.2692 -2.08772e-10)
(218.476 -17.819 -7.69171e-11)
(218.196 -18.3515 6.599e-11)
(217.881 -18.8697 2.22136e-10)
(217.527 -19.3711 3.85833e-10)
(217.125 -19.8552 5.59798e-10)
(216.67 -20.3192 7.35321e-10)
(216.145 -20.7627 9.17266e-10)
(215.536 -21.184 1.09039e-09)
(214.825 -21.5814 1.25729e-09)
(213.847 -22.0214 1.41463e-09)
(212.233 -22.4904 1.51278e-09)
(210.278 -22.9014 1.40469e-09)
(208.018 -23.2593 1.20311e-09)
(205.367 -23.5389 6.8497e-10)
(202.47 -23.7666 1.11545e-10)
(199.345 -23.9087 -9.01199e-10)
(196.471 -23.9689 -1.93609e-09)
(193.655 -23.8486 -3.34116e-09)
(191.145 -23.7679 -3.79483e-09)
(188.656 -23.5227 -5.07298e-09)
(186.651 -23.2637 -5.89756e-09)
(184.844 -22.7269 -6.76957e-09)
(183.405 -22.2538 -7.20628e-09)
(183.04 -21.7388 -8.15402e-09)
(184.915 -20.8175 -1.09402e-08)
(190.624 -20.8878 -1.25631e-08)
(204.545 -21.4823 -1.69149e-08)
(229.832 -22.8105 -2.20587e-08)
(255.634 -23.8671 -2.63459e-08)
(277.805 -24.7598 -2.96224e-08)
(288.943 -26.5145 -3.09967e-08)
(295.84 -34.6628 -3.23893e-08)
(287.449 -53.5422 -3.27504e-08)
(275.13 -72.0737 -3.32419e-08)
(246.996 -67.1274 -3.26808e-08)
(235.293 -67.332 -3.25975e-08)
(216.33 -61.472 -3.22323e-08)
(206.916 -58.3938 -3.20956e-08)
(189.502 -52.6491 -3.17836e-08)
(179.974 -48.5889 -3.15786e-08)
(162.665 -42.4782 -3.12931e-08)
(152.775 -37.7518 -3.10325e-08)
(136.166 -31.2762 -3.07748e-08)
(125.728 -26.056 -3.03902e-08)
(113.384 -16.8047 -3.0067e-08)
(111.847 -12.2643 -2.98473e-08)
(107.957 -6.68259 -2.98525e-08)
(105.468 1.30449 -2.93683e-08)
(111.121 3.49159 -2.98172e-08)
(113.938 8.65579 -2.98982e-08)
(116.835 11.7532 -3.01458e-08)
(121.023 15.5199 -3.03212e-08)
(124.798 18.9556 -3.0625e-08)
(130.436 23.1842 -3.08719e-08)
(135.908 27.5026 -3.12258e-08)
(143.594 32.9526 -3.15374e-08)
(151.845 39.109 -3.19433e-08)
(163.024 46.951 -3.23233e-08)
(176.868 56.9037 -3.28025e-08)
(197.309 71.4788 -3.32727e-08)
(221.3 90.2731 -3.38496e-08)
(241.907 94.658 -3.44541e-08)
(258.387 73.9817 -3.50251e-08)
(263.721 63.9365 -3.55027e-08)
(266.057 61.5185 -3.57011e-08)
(270.263 62.6655 -3.61572e-08)
(272.857 63.4659 -3.59389e-08)
(275.839 59.6064 -3.69368e-08)
(277.533 51.0351 -3.65087e-08)
(279.534 43.4011 -3.72349e-08)
(278.851 33.3396 -3.68488e-08)
(278.004 24.7954 -3.75681e-08)
(274.971 16.7012 -3.71481e-08)
(272.278 10.845 -3.76912e-08)
(268.296 5.71673 -3.7363e-08)
(265.214 1.9854 -3.77561e-08)
(261.551 -1.19582 -3.74863e-08)
(258.96 -3.59793 -3.77595e-08)
(256.277 -5.67089 -3.75457e-08)
(254.712 -7.14224 -3.7706e-08)
(253.724 -7.74747 -3.75972e-08)
(253.359 -7.93815 -3.76195e-08)
(219.986 -4.7995 -1.82333e-10)
(219.791 -5.71118 -1.57226e-10)
(219.575 -6.62091 -1.04078e-10)
(219.423 -7.52524 -6.29051e-11)
(219.245 -8.39288 3.71946e-12)
(219.106 -9.24197 6.15595e-11)
(218.937 -10.0543 1.41619e-10)
(218.787 -10.854 2.16351e-10)
(218.603 -11.6303 3.09156e-10)
(218.422 -12.3959 3.98832e-10)
(218.206 -13.1354 5.04502e-10)
(217.98 -13.8553 6.10466e-10)
(217.716 -14.5413 7.26399e-10)
(217.428 -15.1989 8.40918e-10)
(217.092 -15.819 9.56584e-10)
(216.712 -16.4094 1.06456e-09)
(216.262 -16.9671 1.15988e-09)
(215.731 -17.5019 1.23281e-09)
(215.086 -18.0148 1.26598e-09)
(214.396 -18.5117 1.28265e-09)
(213.61 -18.9918 1.25228e-09)
(212.769 -19.4574 1.18899e-09)
(211.833 -19.9046 1.06264e-09)
(210.828 -20.3305 9.2034e-10)
(209.729 -20.7365 6.76498e-10)
(208.559 -21.1165 4.1406e-10)
(207.316 -21.4731 2.75354e-11)
(205.832 -21.8558 -4.54828e-10)
(203.893 -22.2597 -1.32103e-09)
(202.308 -22.6013 -2.1561e-09)
(200.519 -22.8638 -3.27175e-09)
(199.023 -23.0901 -3.59794e-09)
(197.413 -23.2614 -4.62295e-09)
(196.136 -23.3988 -5.19734e-09)
(194.944 -23.4175 -5.95104e-09)
(193.887 -23.3379 -6.42641e-09)
(193.272 -23.171 -7.12779e-09)
(193.115 -22.9856 -8.07529e-09)
(194.529 -22.8287 -1.00604e-08)
(197.552 -23.0409 -1.12211e-08)
(204.153 -23.6032 -1.37595e-08)
(215.881 -24.703 -1.69572e-08)
(233.742 -26.1255 -2.12554e-08)
(253.354 -27.6657 -2.46759e-08)
(273.41 -28.0497 -2.86271e-08)
(287.784 -27.1184 -3.03332e-08)
(299.471 -26.4194 -3.2177e-08)
(305.306 -27.0863 -3.26719e-08)
(307.593 -31.1721 -3.32125e-08)
(303.598 -41.4129 -3.32783e-08)
(292.417 -57.7443 -3.32427e-08)
(276.517 -68.0655 -3.3082e-08)
(256.592 -61.9597 -3.29048e-08)
(244.507 -65.3499 -3.26507e-08)
(227.863 -57.5581 -3.24926e-08)
(217.675 -57.0995 -3.22042e-08)
(202.677 -49.8136 -3.20833e-08)
(192.626 -47.5255 -3.1772e-08)
(178.162 -40.712 -3.16891e-08)
(168.183 -37.2399 -3.13562e-08)
(155.111 -30.7832 -3.13069e-08)
(145.973 -26.3742 -3.09552e-08)
(137.71 -18.2056 -3.09146e-08)
(136.059 -13.8374 -3.06433e-08)
(135.386 -5.90472 -3.07378e-08)
(132.908 0.995019 -3.04428e-08)
(138.64 4.57929 -3.07936e-08)
(139.529 10.9696 -3.07356e-08)
(143.233 14.6249 -3.10227e-08)
(145.455 19.6312 -3.10663e-08)
(149.132 23.9291 -3.13772e-08)
(152.45 28.994 -3.15057e-08)
(156.904 34.149 -3.18481e-08)
(162.028 40.1001 -3.206e-08)
(168.646 46.7089 -3.24508e-08)
(177.393 54.5428 -3.2757e-08)
(189.892 64.2625 -3.32272e-08)
(208.61 76.267 -3.36575e-08)
(232.075 84.8542 -3.42116e-08)
(250.996 79.6589 -3.46648e-08)
(260.317 67.7102 -3.50149e-08)
(265.185 63.5584 -3.52839e-08)
(267.593 61.0894 -3.55802e-08)
(272.03 59.6338 -3.61001e-08)
(274.945 55.1726 -3.59234e-08)
(277.792 48.5679 -3.67486e-08)
(278.733 41.1951 -3.62527e-08)
(280.056 33.9935 -3.69638e-08)
(278.899 26.4906 -3.65737e-08)
(277.592 20.1403 -3.70971e-08)
(274.456 14.266 -3.68268e-08)
(271.703 9.30766 -3.71922e-08)
(267.975 5.10045 -3.69773e-08)
(264.962 1.73823 -3.72343e-08)
(261.556 -1.00203 -3.7055e-08)
(258.988 -3.07319 -3.72286e-08)
(256.461 -4.57347 -3.70789e-08)
(254.881 -5.47511 -3.71819e-08)
(253.926 -5.7758 -3.71069e-08)
(253.57 -5.88515 -3.71191e-08)
(216.942 -4.51601 6.05636e-10)
(216.666 -5.45249 6.62252e-10)
(216.269 -6.37369 6.72467e-10)
(216.01 -7.29288 7.05574e-10)
(215.63 -8.1673 7.03644e-10)
(215.342 -9.02749 7.07266e-10)
(214.927 -9.84951 6.85111e-10)
(214.567 -10.6652 6.52438e-10)
(214.091 -11.4557 5.99482e-10)
(213.656 -12.2356 5.21208e-10)
(213.123 -12.9853 4.23644e-10)
(212.617 -13.7172 2.87791e-10)
(212.027 -14.4178 1.30089e-10)
(211.452 -15.0984 -7.59458e-11)
(210.81 -15.7499 -3.07748e-10)
(210.178 -16.3814 -5.93463e-10)
(209.503 -16.9858 -9.05235e-10)
(208.857 -17.5685 -1.26634e-09)
(208.221 -18.1217 -1.63965e-09)
(207.583 -18.6475 -2.07139e-09)
(206.95 -19.1412 -2.52559e-09)
(206.337 -19.6068 -3.03115e-09)
(205.712 -20.0195 -3.16344e-09)
(205.102 -20.4333 -3.64086e-09)
(204.491 -20.8072 -3.87632e-09)
(203.908 -21.1732 -4.33707e-09)
(203.341 -21.5008 -4.63852e-09)
(202.736 -21.8597 -5.14591e-09)
(202.042 -22.2178 -5.65302e-09)
(201.512 -22.5039 -6.11689e-09)
(200.99 -22.6712 -6.40206e-09)
(200.717 -22.7676 -6.94194e-09)
(200.619 -22.8607 -7.69947e-09)
(201.333 -23.0651 -9.16417e-09)
(202.716 -23.2559 -9.88979e-09)
(205.359 -23.7414 -1.14574e-08)
(209.953 -24.5069 -1.31895e-08)
(217.058 -25.7164 -1.5582e-08)
(229.126 -27.4874 -1.87393e-08)
(242.031 -29.3751 -2.15359e-08)
(258.043 -31.3144 -2.50911e-08)
(272.299 -32.6022 -2.75529e-08)
(285.718 -33.2322 -2.99922e-08)
(296.95 -33.4721 -3.14341e-08)
(305.753 -33.1014 -3.28248e-08)
(311.079 -32.9133 -3.30291e-08)
(314.259 -33.5226 -3.3617e-08)
(315.308 -35.9814 -3.34142e-08)
(312.888 -41.2707 -3.3594e-08)
(306.175 -50.7482 -3.32281e-08)
(294.205 -61.8915 -3.31106e-08)
(279.335 -67.2207 -3.25938e-08)
(262.274 -65.1721 -3.28071e-08)
(249.867 -65.1664 -3.22603e-08)
(235.469 -59.8277 -3.24063e-08)
(224.749 -57.4533 -3.19094e-08)
(211.732 -51.4211 -3.20287e-08)
(201.411 -47.8926 -3.15893e-08)
(189.023 -41.7755 -3.17039e-08)
(179.179 -37.4836 -3.12956e-08)
(168.459 -31.2252 -3.13993e-08)
(160.276 -25.9414 -3.10468e-08)
(154.009 -18.3002 -3.11562e-08)
(152.301 -12.9599 -3.08656e-08)
(152.213 -5.03762 -3.10168e-08)
(150.306 0.596225 -3.08213e-08)
(154.922 5.91015 -3.10574e-08)
(154.343 11.8018 -3.09773e-08)
(158.262 16.0943 -3.12345e-08)
(158.94 21.0267 -3.12431e-08)
(162.825 25.4655 -3.15261e-08)
(164.794 30.3337 -3.16184e-08)
(169.395 35.4427 -3.19334e-08)
(173.53 41.0822 -3.21128e-08)
(180.515 47.6157 -3.24764e-08)
(189.029 55.3923 -3.27544e-08)
(202.267 65.3122 -3.31908e-08)
(219.259 76.2531 -3.35747e-08)
(237.754 81.7573 -3.4074e-08)
(252.198 74.5074 -3.44161e-08)
(260.429 66.6995 -3.46183e-08)
(265.766 64.3271 -3.48193e-08)
(269.16 61.9004 -3.53296e-08)
(272.983 59.8102 -3.54072e-08)
(274.784 54.6561 -3.56384e-08)
(276.836 47.8172 -3.59764e-08)
(277.627 41.2825 -3.5893e-08)
(278.355 34.4167 -3.62081e-08)
(277.297 27.5109 -3.61226e-08)
(275.953 21.1935 -3.63718e-08)
(273.187 15.3352 -3.62428e-08)
(270.511 10.5055 -3.64949e-08)
(267.077 6.3556 -3.63542e-08)
(264.133 3.06835 -3.65285e-08)
(260.949 0.376967 -3.64036e-08)
(258.488 -1.65743 -3.65213e-08)
(256.192 -3.03842 -3.64124e-08)
(254.762 -3.7422 -3.64776e-08)
(253.938 -3.90569 -3.64178e-08)
(253.624 -3.94778 -3.64326e-08)
(212.157 -3.9196 -2.46574e-09)
(211.785 -4.85675 -2.47432e-09)
(211.383 -5.76179 -2.76121e-09)
(211.091 -6.7335 -2.68521e-09)
(210.75 -7.63222 -2.94888e-09)
(210.486 -8.5692 -2.94885e-09)
(210.157 -9.44507 -3.20355e-09)
(209.886 -10.3466 -3.26833e-09)
(209.558 -11.1985 -3.52357e-09)
(209.291 -12.0653 -3.64354e-09)
(208.982 -12.8885 -3.90525e-09)
(208.731 -13.7157 -4.07083e-09)
(208.448 -14.5008 -4.3395e-09)
(208.219 -15.2776 -4.53915e-09)
(207.966 -16.0084 -4.80996e-09)
(207.764 -16.7153 -5.02829e-09)
(207.544 -17.3659 -5.28983e-09)
(207.368 -17.9734 -5.50668e-09)
(207.175 -18.5128 -5.7422e-09)
(207.007 -18.9998 -5.93428e-09)
(206.82 -19.423 -6.11798e-09)
(206.638 -19.8027 -6.24859e-09)
(206.513 -20.1634 -6.736e-09)
(206.484 -20.488 -7.0467e-09)
(206.551 -20.7975 -7.51152e-09)
(206.754 -21.0909 -7.94279e-09)
(207.099 -21.3865 -8.43363e-09)
(207.714 -21.7475 -9.04442e-09)
(208.712 -22.1502 -9.81082e-09)
(210.381 -22.6403 -1.07304e-08)
(212.689 -23.2254 -1.18365e-08)
(216.161 -24.0193 -1.32845e-08)
(220.883 -25.041 -1.49521e-08)
(227.912 -26.4073 -1.70874e-08)
(236.378 -28.0217 -1.92028e-08)
(246.397 -29.9169 -2.18098e-08)
(257.467 -31.851 -2.41542e-08)
(268.777 -33.6123 -2.66004e-08)
(278.801 -34.7607 -2.83508e-08)
(289.194 -35.819 -3.02282e-08)
(298.054 -36.4028 -3.15747e-08)
(305.61 -36.7809 -3.25795e-08)
(311.614 -36.786 -3.33105e-08)
(315.956 -36.6582 -3.35962e-08)
(318.797 -36.5519 -3.38497e-08)
(320.296 -37.0863 -3.36852e-08)
(320.67 -38.5038 -3.37683e-08)
(319.101 -41.5327 -3.33937e-08)
(314.898 -47.3942 -3.33861e-08)
(307.006 -55.6094 -3.2878e-08)
(295.352 -63.4394 -3.26886e-08)
(281.701 -66.2217 -3.2018e-08)
(266.446 -64.8273 -3.23838e-08)
(254.173 -64.14 -3.1742e-08)
(241.132 -59.1636 -3.20077e-08)
(230.155 -56.7096 -3.14562e-08)
(218.416 -50.6663 -3.16661e-08)
(207.93 -47.1977 -3.12171e-08)
(196.804 -40.9442 -3.14031e-08)
(187.068 -36.6866 -3.10068e-08)
(177.685 -30.2191 -3.11547e-08)
(170.217 -24.9366 -3.08557e-08)
(165.121 -17.4567 -3.10144e-08)
(163.387 -11.6318 -3.07566e-08)
(163.211 -4.12556 -3.0909e-08)
(162.016 1.01011 -3.0796e-08)
(165.116 7.60495 -3.09033e-08)
(164.316 12.9173 -3.08719e-08)
(167.5 18.063 -3.10348e-08)
(167.695 23.0784 -3.10659e-08)
(171.112 27.9678 -3.12752e-08)
(172.538 33.0225 -3.138e-08)
(176.9 38.3655 -3.16455e-08)
(180.617 44.1487 -3.18342e-08)
(187.629 50.8064 -3.21636e-08)
(196.041 58.4527 -3.24453e-08)
(209.381 67.3724 -3.28554e-08)
(225.223 75.011 -3.32297e-08)
(241.657 76.2749 -3.36458e-08)
(252.951 70.3995 -3.38927e-08)
(260.63 65.5229 -3.40139e-08)
(266.073 62.6767 -3.4087e-08)
(269.843 59.9257 -3.49597e-08)
(273.194 55.7458 -3.47293e-08)
(274.783 49.937 -3.51929e-08)
(276.233 43.6947 -3.53625e-08)
(276.769 37.6641 -3.53571e-08)
(276.969 31.1404 -3.54322e-08)
(275.795 25.2207 -3.548e-08)
(274.215 19.5076 -3.55952e-08)
(271.655 14.5163 -3.55178e-08)
(269.066 10.0867 -3.56955e-08)
(265.979 6.44387 -3.56114e-08)
(263.178 3.43753 -3.57308e-08)
(260.286 1.14875 -3.56422e-08)
(257.947 -0.526147 -3.57119e-08)
(255.908 -1.57927 -3.56323e-08)
(254.633 -2.11048 -3.56723e-08)
(253.925 -2.22351 -3.56286e-08)
(253.652 -2.25172 -3.5645e-08)
(212.221 -3.32311 -5.77384e-09)
(211.793 -4.30984 -5.80921e-09)
(211.472 -5.33799 -5.79964e-09)
(211.195 -6.35645 -5.97001e-09)
(210.984 -7.37015 -6.05218e-09)
(210.801 -8.36661 -6.21268e-09)
(210.646 -9.33738 -6.36226e-09)
(210.518 -10.2986 -6.53341e-09)
(210.412 -11.2226 -6.73617e-09)
(210.359 -12.129 -6.93143e-09)
(210.338 -12.9859 -7.17933e-09)
(210.392 -13.8154 -7.40822e-09)
(210.492 -14.5884 -7.69834e-09)
(210.685 -15.3297 -7.96921e-09)
(210.94 -16.0176 -8.3036e-09)
(211.309 -16.6797 -8.62561e-09)
(211.762 -17.3018 -9.01207e-09)
(212.349 -17.9083 -9.39883e-09)
(213.044 -18.4855 -9.85515e-09)
(213.919 -19.0596 -1.03391e-08)
(214.968 -19.6271 -1.09133e-08)
(216.291 -20.2147 -1.15605e-08)
(217.893 -20.8257 -1.23166e-08)
(219.856 -21.4755 -1.30803e-08)
(222.268 -22.1796 -1.40071e-08)
(225.252 -22.9599 -1.4989e-08)
(228.955 -23.8492 -1.61762e-08)
(234.325 -25.0546 -1.771e-08)
(239.474 -26.28 -1.91858e-08)
(246.603 -27.8679 -2.10415e-08)
(253.439 -29.4135 -2.27516e-08)
(261.422 -31.1291 -2.46152e-08)
(269.003 -32.7206 -2.62583e-08)
(276.479 -34.1687 -2.77787e-08)
(283.811 -35.4975 -2.91585e-08)
(291.069 -36.6868 -3.04823e-08)
(297.835 -37.6766 -3.15314e-08)
(303.978 -38.4626 -3.24818e-08)
(309.351 -39.0639 -3.30986e-08)
(314.005 -39.496 -3.36835e-08)
(317.652 -39.7207 -3.39012e-08)
(320.569 -39.7987 -3.41125e-08)
(322.602 -39.8209 -3.40631e-08)
(323.958 -39.9843 -3.40068e-08)
(324.644 -40.4556 -3.38379e-08)
(324.612 -41.5097 -3.36284e-08)
(323.563 -43.4858 -3.34382e-08)
(320.758 -47.188 -3.31086e-08)
(315.552 -52.7774 -3.28973e-08)
(307.171 -59.4737 -3.24053e-08)
(296.054 -64.9363 -3.20981e-08)
(283.196 -66.6852 -3.14124e-08)
(269.205 -65.3299 -3.17956e-08)
(257.357 -63.9534 -3.11653e-08)
(245.12 -59.4788 -3.14436e-08)
(234.335 -56.3246 -3.09171e-08)
(223.217 -50.6289 -3.114e-08)
(212.947 -46.5935 -3.07366e-08)
(202.441 -40.4926 -3.09347e-08)
(193.062 -35.7298 -3.05784e-08)
(184.39 -29.1379 -3.07284e-08)
(177.554 -23.4467 -3.04866e-08)
(173.002 -16.144 -3.06609e-08)
(171.225 -10.0297 -3.04456e-08)
(170.781 -3.05354 -3.05895e-08)
(170.086 1.94695 -3.05304e-08)
(171.929 8.8614 -3.05474e-08)
(171.411 13.8274 -3.05658e-08)
(173.663 19.3879 -3.06451e-08)
(174.019 24.2364 -3.07093e-08)
(176.894 29.286 -3.08526e-08)
(178.493 34.2403 -3.09846e-08)
(182.679 39.573 -3.1205e-08)
(186.689 45.274 -3.14115e-08)
(193.906 51.8486 -3.17087e-08)
(202.677 59.286 -3.20012e-08)
(215.656 67.332 -3.23762e-08)
(229.617 72.9247 -3.27365e-08)
(243.462 72.4296 -3.30921e-08)
(253.075 67.8683 -3.3287e-08)
(260.509 64.432 -3.338e-08)
(265.841 61.2142 -3.33764e-08)
(269.456 58.3606 -3.4147e-08)
(271.889 53.3211 -3.4171e-08)
(273.242 47.8194 -3.44035e-08)
(274.316 41.8415 -3.4652e-08)
(274.81 36.1822 -3.44936e-08)
(274.786 30.1199 -3.46318e-08)
(273.787 24.6457 -3.46546e-08)
(272.263 19.2628 -3.47721e-08)
(270.006 14.7102 -3.47275e-08)
(267.549 10.5605 -3.48367e-08)
(264.763 7.1985 -3.47968e-08)
(262.126 4.35519 -3.4873e-08)
(259.548 2.23241 -3.48136e-08)
(257.42 0.699571 -3.48515e-08)
(255.656 -0.170952 -3.4794e-08)
(254.53 -0.600812 -3.48158e-08)
(253.913 -0.688077 -3.47855e-08)
(253.672 -0.711085 -3.47932e-08)
(218.379 -2.39074 -1.01353e-08)
(217.829 -3.40161 -1.01171e-08)
(217.744 -4.42391 -1.03046e-08)
(217.562 -5.50714 -1.0402e-08)
(217.726 -6.56642 -1.06307e-08)
(217.838 -7.64767 -1.08233e-08)
(218.198 -8.69256 -1.11091e-08)
(218.56 -9.73707 -1.13854e-08)
(219.15 -10.7426 -1.17386e-08)
(219.823 -11.7526 -1.20988e-08)
(220.728 -12.7415 -1.25341e-08)
(221.79 -13.7443 -1.29914e-08)
(223.116 -14.7411 -1.35322e-08)
(224.684 -15.7623 -1.41148e-08)
(226.585 -16.7939 -1.47981e-08)
(228.854 -17.8654 -1.55528e-08)
(231.6 -18.9731 -1.64384e-08)
(234.841 -20.1428 -1.7417e-08)
(238.333 -21.3341 -1.84524e-08)
(242.279 -22.5855 -1.95609e-08)
(246.498 -23.8592 -2.07205e-08)
(251.103 -25.1712 -2.19232e-08)
(255.926 -26.483 -2.31461e-08)
(261.015 -27.7994 -2.43716e-08)
(266.2 -29.0902 -2.55896e-08)
(271.433 -30.3493 -2.675e-08)
(276.499 -31.5359 -2.78448e-08)
(281.875 -32.7974 -2.89273e-08)
(286.001 -33.853 -2.97306e-08)
(291.785 -35.1753 -3.08032e-08)
(295.877 -36.175 -3.14867e-08)
(301.104 -37.3516 -3.23481e-08)
(304.794 -38.2308 -3.28486e-08)
(309.21 -39.2078 -3.34638e-08)
(312.468 -39.9356 -3.38007e-08)
(316.087 -40.6618 -3.41922e-08)
(318.648 -41.1461 -3.43326e-08)
(321.345 -41.6146 -3.45111e-08)
(323.155 -41.9229 -3.44749e-08)
(324.987 -42.2216 -3.44857e-08)
(326.06 -42.3779 -3.43042e-08)
(327.087 -42.5995 -3.42058e-08)
(327.596 -42.8713 -3.39319e-08)
(327.885 -43.3561 -3.37665e-08)
(327.664 -44.166 -3.34602e-08)
(326.853 -45.5839 -3.32409e-08)
(324.906 -48.0605 -3.29218e-08)
(321.356 -51.898 -3.26233e-08)
(315.523 -56.9776 -3.2272e-08)
(307.161 -62.2505 -3.18313e-08)
(296.621 -66.1266 -3.1403e-08)
(284.467 -67.1612 -3.07777e-08)
(271.435 -65.654 -3.11066e-08)
(260.081 -63.7117 -3.05406e-08)
(248.427 -59.3752 -3.07806e-08)
(237.904 -55.8015 -3.03163e-08)
(227.219 -50.1569 -3.05165e-08)
(217.162 -45.7939 -3.01767e-08)
(207.084 -39.635 -3.0367e-08)
(197.995 -34.5527 -3.00579e-08)
(189.819 -27.767 -3.01964e-08)
(183.4 -21.8492 -3.00068e-08)
(179.157 -14.5953 -3.01809e-08)
(177.254 -8.41462 -3.00062e-08)
(176.595 -1.71458 -3.0137e-08)
(176.13 3.37493 -3.01127e-08)
(177.208 10.2514 -3.00758e-08)
(176.89 15.1669 -3.012e-08)
(178.457 20.9976 -3.01433e-08)
(179.007 25.8185 -3.02239e-08)
(181.385 31.0636 -3.03176e-08)
(183.2 36.0228 -3.04657e-08)
(187.104 41.428 -3.06494e-08)
(191.374 47.1252 -3.087e-08)
(198.513 53.5573 -3.114e-08)
(207.437 60.4398 -3.1443e-08)
(219.773 66.9485 -3.17885e-08)
(232.429 70.3369 -3.21285e-08)
(244.363 69.0949 -3.24148e-08)
(252.934 65.7133 -3.25679e-08)
(260.126 62.6198 -3.26307e-08)
(265.226 58.8997 -3.27813e-08)
(268.566 55.6923 -3.32961e-08)
(270.583 50.1871 -3.35536e-08)
(271.735 45.2235 -3.36094e-08)
(272.61 39.4471 -3.38261e-08)
(273.04 34.272 -3.369e-08)
(272.883 28.5952 -3.38511e-08)
(271.969 23.6549 -3.37915e-08)
(270.49 18.6671 -3.39408e-08)
(268.447 14.5368 -3.38796e-08)
(266.143 10.6729 -3.39786e-08)
(263.632 7.64464 -3.39485e-08)
(261.204 5.06235 -3.40038e-08)
(258.896 3.23522 -3.39599e-08)
(256.976 1.89501 -3.39805e-08)
(255.442 1.17732 -3.39387e-08)
(254.444 0.809597 -3.39459e-08)
(253.9 0.740274 -3.39259e-08)
(253.686 0.720371 -3.39282e-08)
(237.349 -1.0199 -1.73479e-08)
(237.222 -2.14012 -1.74697e-08)
(237.795 -3.32663 -1.77957e-08)
(238.319 -4.63348 -1.80566e-08)
(239.455 -5.9714 -1.84972e-08)
(240.619 -7.38466 -1.89046e-08)
(242.317 -8.8015 -1.94678e-08)
(244.101 -10.2525 -2.00214e-08)
(246.351 -11.701 -2.07066e-08)
(248.731 -13.1876 -2.13941e-08)
(251.53 -14.6958 -2.21878e-08)
(254.49 -16.2531 -2.29863e-08)
(257.81 -17.8369 -2.38638e-08)
(261.274 -19.4562 -2.47368e-08)
(264.998 -21.081 -2.56542e-08)
(268.783 -22.7056 -2.65418e-08)
(272.65 -24.2947 -2.74255e-08)
(276.449 -25.8436 -2.82504e-08)
(280.436 -27.3628 -2.91036e-08)
(284.345 -28.8283 -2.98953e-08)
(288.319 -30.2404 -3.06832e-08)
(292.177 -31.5863 -3.14028e-08)
(295.997 -32.864 -3.20936e-08)
(299.656 -34.07 -3.27101e-08)
(303.192 -35.2031 -3.32817e-08)
(306.53 -36.2652 -3.37751e-08)
(309.692 -37.2548 -3.4217e-08)
(313.012 -38.3084 -3.46302e-08)
(314.431 -38.9682 -3.471e-08)
(317.503 -39.9327 -3.50367e-08)
(319 -40.6043 -3.50493e-08)
(321.397 -41.3658 -3.52347e-08)
(322.617 -41.9438 -3.51495e-08)
(324.492 -42.5526 -3.52235e-08)
(325.484 -43.042 -3.50614e-08)
(326.906 -43.512 -3.50445e-08)
(327.643 -43.9001 -3.48137e-08)
(328.642 -44.2416 -3.47251e-08)
(329.139 -44.5508 -3.44387e-08)
(329.776 -44.8106 -3.43019e-08)
(330.043 -45.1156 -3.39718e-08)
(330.354 -45.4447 -3.38009e-08)
(330.277 -45.9164 -3.34553e-08)
(330.101 -46.6004 -3.32559e-08)
(329.316 -47.7134 -3.29013e-08)
(327.963 -49.5089 -3.26693e-08)
(325.394 -52.2424 -3.22944e-08)
(321.345 -56.0128 -3.19984e-08)
(315.231 -60.4104 -3.15742e-08)
(307.108 -64.5993 -3.11644e-08)
(297.089 -67.4305 -3.06617e-08)
(285.514 -68.0528 -3.01103e-08)
(273.314 -66.1855 -3.03663e-08)
(262.447 -63.8997 -2.98724e-08)
(251.303 -59.4768 -3.00608e-08)
(241.082 -55.5222 -2.96647e-08)
(230.744 -49.8382 -2.98333e-08)
(220.923 -45.0868 -2.95594e-08)
(211.178 -38.8391 -2.97369e-08)
(202.373 -33.333 -2.94712e-08)
(194.561 -26.3599 -2.95959e-08)
(188.421 -20.1497 -2.94493e-08)
(184.308 -12.9555 -2.96215e-08)
(182.245 -6.74022 -2.94781e-08)
(181.403 -0.23538 -2.95985e-08)
(181.002 4.92907 -2.95971e-08)
(181.619 11.6001 -2.95294e-08)
(181.381 16.5628 -2.9584e-08)
(182.5 22.4551 -2.95733e-08)
(183.138 27.2373 -2.96569e-08)
(185.175 32.5479 -2.97179e-08)
(187.154 37.4159 -2.9873e-08)
(190.904 42.7937 -3.00327e-08)
(195.461 48.3362 -3.02632e-08)
(202.598 54.5003 -3.0515e-08)
(211.553 60.7101 -3.08219e-08)
(222.992 65.9067 -3.11393e-08)
(234.305 67.8767 -3.14527e-08)
(244.774 66.5144 -3.16911e-08)
(252.777 63.8006 -3.1834e-08)
(259.642 60.7031 -3.18928e-08)
(264.421 56.7395 -3.20613e-08)
(267.37 53.3143 -3.2617e-08)
(269.121 47.8473 -3.25866e-08)
(270.098 43.252 -3.30077e-08)
(270.898 37.7109 -3.27467e-08)
(271.243 32.9231 -3.30345e-08)
(271.061 27.5763 -3.29441e-08)
(270.208 23.0284 -3.30113e-08)
(268.832 18.3666 -3.30839e-08)
(266.97 14.5701 -3.30518e-08)
(264.86 10.9693 -3.31242e-08)
(262.582 8.21681 -3.31049e-08)
(260.377 5.83523 -3.31445e-08)
(258.314 4.22167 -3.3112e-08)
(256.6 3.04658 -3.31128e-08)
(255.255 2.44728 -3.30896e-08)
(254.369 2.12521 -3.30827e-08)
(253.886 2.06955 -3.30728e-08)
(253.693 2.05184 -3.30692e-08)
(268.094 -0.223166 -2.62527e-08)
(268.886 -1.59337 -2.65894e-08)
(270.055 -3.10179 -2.69968e-08)
(271.412 -4.76344 -2.74115e-08)
(273.119 -6.49614 -2.78929e-08)
(274.975 -8.31333 -2.83747e-08)
(277.132 -10.1492 -2.89157e-08)
(279.38 -12.0132 -2.94468e-08)
(281.86 -13.8601 -3.00229e-08)
(284.369 -15.7025 -3.0577e-08)
(287.044 -17.5208 -3.11589e-08)
(289.71 -19.338 -3.17069e-08)
(292.492 -21.1362 -3.22666e-08)
(295.23 -22.927 -3.27818e-08)
(298.032 -24.6918 -3.32943e-08)
(300.757 -26.435 -3.37543e-08)
(303.497 -28.1381 -3.42001e-08)
(306.139 -29.7991 -3.45911e-08)
(308.76 -31.3964 -3.49618e-08)
(311.243 -32.9249 -3.52713e-08)
(313.669 -34.3716 -3.55551e-08)
(315.929 -35.7327 -3.57757e-08)
(318.102 -37.0019 -3.59685e-08)
(320.094 -38.1782 -3.60989e-08)
(321.978 -39.2605 -3.62009e-08)
(323.68 -40.2504 -3.62461e-08)
(325.258 -41.15 -3.62638e-08)
(326.796 -42.0695 -3.62241e-08)
(327.011 -42.5527 -3.60542e-08)
(328.315 -43.284 -3.59863e-08)
(328.766 -43.8569 -3.57414e-08)
(329.646 -44.3268 -3.56467e-08)
(329.968 -44.8192 -3.53566e-08)
(330.645 -45.1951 -3.52341e-08)
(330.881 -45.6449 -3.49157e-08)
(331.432 -45.9862 -3.47685e-08)
(331.588 -46.3982 -3.44308e-08)
(332.008 -46.6976 -3.4265e-08)
(332.078 -47.0673 -3.39111e-08)
(332.342 -47.3546 -3.37269e-08)
(332.259 -47.7477 -3.33697e-08)
(332.277 -48.1707 -3.31677e-08)
(331.874 -48.8188 -3.2809e-08)
(331.354 -49.7336 -3.25883e-08)
(330.16 -51.1372 -3.22238e-08)
(328.385 -53.1814 -3.19713e-08)
(325.363 -56.0311 -3.15806e-08)
(321.018 -59.541 -3.1273e-08)
(314.863 -63.3277 -3.08288e-08)
(307.046 -66.7144 -3.04291e-08)
(297.526 -68.854 -2.99043e-08)
(286.489 -69.1641 -2.94085e-08)
(275.047 -66.8608 -2.96029e-08)
(264.64 -64.2934 -2.91662e-08)
(253.98 -59.6652 -2.93095e-08)
(244.061 -55.3763 -2.89696e-08)
(234.041 -49.5432 -2.91109e-08)
(224.451 -44.4373 -2.8894e-08)
(214.999 -38.0171 -2.9062e-08)
(206.454 -32.1189 -2.88329e-08)
(198.935 -24.9273 -2.89459e-08)
(192.979 -18.444 -2.88327e-08)
(188.897 -11.2325 -2.90014e-08)
(186.642 -4.95885 -2.88856e-08)
(185.606 1.45407 -2.89972e-08)
(185.163 6.63189 -2.9013e-08)
(185.494 13.1276 -2.89265e-08)
(185.25 18.1802 -2.89852e-08)
(186.056 24.0661 -2.8953e-08)
(186.696 28.8656 -2.9034e-08)
(188.504 34.2122 -2.90742e-08)
(190.567 39.0195 -2.92328e-08)
(194.232 44.3622 -2.9378e-08)
(198.96 49.7068 -2.96151e-08)
(206.019 55.4744 -2.98557e-08)
(214.783 60.7952 -3.01638e-08)
(225.356 64.6673 -3.04558e-08)
(235.624 65.6197 -3.07498e-08)
(245.023 64.3445 -3.09631e-08)
(252.601 61.8379 -3.11022e-08)
(259.063 58.5645 -3.11601e-08)
(263.509 54.3918 -3.13219e-08)
(266.148 50.8362 -3.1838e-08)
(267.724 45.5751 -3.16796e-08)
(268.565 41.2758 -3.23869e-08)
(269.303 36.0339 -3.17804e-08)
(269.563 31.5861 -3.23299e-08)
(269.388 26.5825 -3.19638e-08)
(268.574 22.392 -3.23291e-08)
(267.319 18.0625 -3.21441e-08)
(265.606 14.5821 -3.23144e-08)
(263.692 11.263 -3.22447e-08)
(261.622 8.76869 -3.23124e-08)
(259.639 6.61221 -3.22759e-08)
(257.794 5.19044 -3.22983e-08)
(256.274 4.15092 -3.22579e-08)
(255.088 3.64014 -3.22612e-08)
(254.301 3.35389 -3.22457e-08)
(253.869 3.30822 -3.2239e-08)
(253.696 3.29226 -3.22359e-08)
(296.216 0.0229191 -3.31214e-08)
(297.109 -1.45629 -3.34397e-08)
(297.95 -3.11016 -3.37199e-08)
(299.161 -4.9385 -3.40441e-08)
(300.368 -6.86504 -3.43383e-08)
(301.847 -8.88999 -3.46578e-08)
(303.332 -10.9468 -3.4953e-08)
(304.984 -13.0324 -3.52559e-08)
(306.621 -15.0989 -3.55359e-08)
(308.327 -17.1502 -3.58084e-08)
(309.991 -19.159 -3.60572e-08)
(311.661 -21.1452 -3.62863e-08)
(313.296 -23.0984 -3.64908e-08)
(314.909 -25.0272 -3.66677e-08)
(316.493 -26.9162 -3.68189e-08)
(318.034 -28.766 -3.69366e-08)
(319.544 -30.5596 -3.70302e-08)
(320.991 -32.2949 -3.70864e-08)
(322.402 -33.9557 -3.71184e-08)
(323.733 -35.5407 -3.71133e-08)
(325.02 -37.0366 -3.70854e-08)
(326.215 -38.4438 -3.70217e-08)
(327.359 -39.7524 -3.69368e-08)
(328.404 -40.9661 -3.68187e-08)
(329.395 -42.0784 -3.66835e-08)
(330.285 -43.0964 -3.65158e-08)
(331.113 -44.0164 -3.63354e-08)
(331.869 -44.9472 -3.61009e-08)
(331.881 -45.3687 -3.5899e-08)
(332.531 -46.0988 -3.56645e-08)
(332.641 -46.5741 -3.53724e-08)
(333.071 -47.0424 -3.51618e-08)
(333.112 -47.4283 -3.48456e-08)
(333.433 -47.7894 -3.46302e-08)
(333.435 -48.1325 -3.43071e-08)