/*--------------------------------*- C++ -*----------------------------------*\
  =========                 |
  \\      /  F ield         | OpenFOAM: The Open Source CFD Toolbox
   \\    /   O peration     | Website:  https://openfoam.org
    \\  /    A nd           | Version:  7
     \\/     M anipulation  |
\*---------------------------------------------------------------------------*/
FoamFile
{
    version     2.0;
    format      ascii;
    class       volScalarField;
    location    "0.145";
    object      alphat;
}
// * * * * * * * * * * * * * * * * * * * * * * * * * * * * * * * * * * * * * //

dimensions      [1 -1 -1 0 0 0 0];

internalField   nonuniform List<scalar> 
48560
(
0.00510928
0.00505719
0.00500389
0.00495158
0.00490086
0.00485221
0.00480611
0.00476295
0.00472311
0.0046869
0.00465462
0.00462654
0.00460292
0.004584
0.00457
0.00456116
0.00455769
0.00455982
0.00456779
0.00458184
0.00460225
0.00462928
0.00466324
0.00470448
0.00475337
0.00481032
0.0048757
0.00494961
0.00505947
0.00518413
0.00532263
0.00547352
0.00563411
0.00580093
0.00596925
0.00614108
0.00631563
0.00649722
0.0066896
0.00690631
0.00715033
0.00742021
0.00771497
0.00801514
0.00828188
0.00837756
0.00797304
0.00694014
0.00546865
0.00391591
0.00126477
0.000499801
0.000550337
0.000574579
0.000615284
0.00063596
0.000681499
0.000708556
0.000775468
0.00083487
0.000960503
0.00103639
0.00108339
0.000986558
0.00108372
0.000849224
0.000856304
0.000890368
0.000947918
0.00101945
0.00110953
0.00120322
0.00130715
0.0014007
0.00148573
0.00153804
0.00154223
0.00146079
0.00128431
0.0010751
0.000947192
0.000984851
0.00104474
0.00104342
0.00101931
0.000973671
0.000931095
0.000894684
0.000871944
0.000857051
0.000854228
0.000853003
0.00085229
0.000848706
0.000843065
0.000831382
0.00081398
0.000787492
0.000751127
0.000702828
0.00484581
0.00483084
0.00481643
0.0048036
0.00479288
0.00478467
0.0047794
0.00477739
0.00477898
0.00478442
0.00479399
0.00480791
0.00482641
0.00484971
0.00487803
0.00491157
0.00495054
0.00499512
0.00504545
0.00510159
0.0051637
0.00523184
0.00530611
0.00538652
0.00547306
0.00556557
0.00566379
0.00576672
0.00591603
0.00607263
0.00623809
0.00641061
0.00659285
0.00678577
0.00699799
0.00723599
0.00750595
0.00781048
0.00815228
0.00852669
0.00893069
0.00933439
0.00965621
0.00973675
0.00945497
0.00871779
0.00757376
0.00623728
0.0051114
0.00460689
0.00507325
0.00904725
0.00945954
0.00991217
0.0103092
0.01061
0.0102355
0.0104
0.00971412
0.00989574
0.00897482
0.00868236
0.00777493
0.00820603
0.0071681
0.00711937
0.00693646
0.00696785
0.00676143
0.00672299
0.0066926
0.00676879
0.00685387
0.00699396
0.00712504
0.00718039
0.0070045
0.00648412
0.00673288
0.00642508
0.00704641
0.00995712
0.00904561
0.00847815
0.00819159
0.00817034
0.00856038
0.00958176
0.0107124
0.012142
0.0136121
0.0151027
0.0167037
0.0185533
0.0205782
0.0229583
0.0258311
0.0300275
0.0369559
0.0528135
0.00520549
0.00522039
0.00523791
0.00525812
0.00528143
0.00530813
0.00533849
0.00537264
0.00541076
0.00545289
0.00549913
0.00554949
0.00560411
0.00566298
0.00572622
0.00579375
0.00586559
0.0059416
0.00602168
0.00610631
0.0061953
0.00628893
0.00638726
0.00649061
0.00659913
0.00671328
0.00683347
0.00695956
0.00715451
0.0073707
0.00760861
0.00787337
0.00816561
0.0084899
0.008848
0.00924122
0.00966999
0.0101216
0.0105698
0.0109344
0.0111541
0.0110998
0.0107368
0.0100236
0.00903413
0.00787463
0.00689135
0.00625208
0.0062119
0.00693541
0.00896758
0.0142039
0.0146892
0.0152066
0.0148706
0.0159231
0.0148242
0.0161095
0.0141407
0.0149852
0.0131526
0.0126932
0.0114297
0.0115837
0.0104462
0.0107149
0.0108316
0.0114201
0.0112229
0.0118133
0.0117094
0.0116265
0.0116034
0.0116001
0.0116406
0.0116794
0.0117036
0.0115213
0.0113873
0.0102251
0.0145452
0.0230199
0.0211959
0.0201489
0.0198091
0.0165165
0.0190669
0.0195391
0.0258854
0.0318222
0.0386258
0.0429633
0.0475671
0.0529654
0.0592814
0.0672684
0.0697767
0.0636186
0.0592188
0.0580421
0.00629851
0.00632819
0.00636164
0.00639972
0.00644169
0.00648879
0.00654023
0.00659687
0.00665785
0.00672389
0.0067945
0.0068704
0.00695134
0.00703797
0.00713021
0.0072287
0.00733359
0.00744559
0.00756521
0.00769277
0.00782868
0.00797344
0.00812731
0.00829094
0.00846499
0.00865029
0.00884744
0.00905744
0.00937531
0.00972056
0.0100925
0.010492
0.0109127
0.0113468
0.0117699
0.0121501
0.0124373
0.0125722
0.0125142
0.0122129
0.0116744
0.0108998
0.0100028
0.00909907
0.00828865
0.00771656
0.00754567
0.00789057
0.00883866
0.0105875
0.0138508
0.018151
0.0194492
0.0206601
0.0196315
0.021033
0.0191191
0.0200131
0.0179698
0.0183775
0.0164768
0.0156706
0.0145915
0.0145782
0.0144101
0.0144291
0.0154211
0.0164502
0.0168048
0.0170125
0.0173072
0.0176551
0.0180519
0.0184746
0.0185945
0.0167342
0.0139864
0.0134946
0.0149953
0.0173609
0.0297882
0.0434107
0.0412315
0.0402565
0.032496
0.030083
0.0328656
0.0306775
0.0331759
0.0336819
0.0377838
0.0409483
0.0464347
0.0509811
0.0565192
0.06103
0.0641497
0.0647123
0.064172
0.0638482
0.00814568
0.00818876
0.00823994
0.00829962
0.00836709
0.00844358
0.00852838
0.00862248
0.0087251
0.00883713
0.00895803
0.00908868
0.00922871
0.00937893
0.00953906
0.00970982
0.00989089
0.0100828
0.0102853
0.0104987
0.0107226
0.0109571
0.0112028
0.0114597
0.0117274
0.0120047
0.0122893
0.0125788
0.0129564
0.0133245
0.0136489
0.0139169
0.0140881
0.0141473
0.0140705
0.0138424
0.0134495
0.0128964
0.0121948
0.0114625
0.0107006
0.00999361
0.00939346
0.00898898
0.00886942
0.0091334
0.00984326
0.0110331
0.0128052
0.0145262
0.0185541
0.0205016
0.0221459
0.0229202
0.0228976
0.0237653
0.0227114
0.0232875
0.0218372
0.0220476
0.0205883
0.0197335
0.0188535
0.0189803
0.0198201
0.0194332
0.0216723
0.0224365
0.0245049
0.025303
0.0265941
0.0270815
0.0270482
0.0258978
0.0234247
0.020202
0.0174895
0.0170814
0.0170713
0.0221088
0.0336045
0.0407552
0.0428445
0.0286379
0.0266608
0.0273296
0.0286563
0.0288286
0.0324391
0.0341971
0.0393582
0.0430436
0.049512
0.0550695
0.062213
0.0667027
0.0685923
0.0697146
0.0709071
0.0717008
0.0113629
0.0114117
0.0114788
0.0115605
0.0116582
0.0117704
0.0118979
0.0120396
0.0121957
0.0123653
0.0125485
0.0127446
0.0129535
0.0131747
0.0134076
0.0136511
0.0139034
0.0141617
0.0144217
0.0146804
0.0149318
0.0151708
0.0153894
0.0155809
0.0157388
0.0158595
0.0159405
0.0159951
0.0159351
0.0158171
0.0155727
0.0152477
0.0148004
0.0142701
0.0136796
0.0130636
0.0124302
0.0118161
0.0112476
0.0107658
0.0104016
0.0102154
0.0102583
0.0105947
0.0112724
0.0123165
0.0137278
0.0155526
0.0156259
0.0173171
0.0204854
0.0222781
0.0242925
0.0255332
0.0261313
0.0263965
0.0263608
0.0262242
0.0256099
0.0252508
0.0244495
0.0236182
0.0234068
0.0240628
0.0258449
0.0253861
0.028487
0.0290088
0.0322176
0.0324187
0.0346492
0.0336116
0.033311
0.0301687
0.0266211
0.0224319
0.0201856
0.0202035
0.0210771
0.0262431
0.0335043
0.0377304
0.0377155
0.0299632
0.0307795
0.0303184
0.0316323
0.03213
0.0350261
0.0371429
0.0416607
0.0451478
0.0508312
0.0561782
0.0631548
0.0693887
0.0730201
0.0753357
0.0770305
0.0780991
0.0164157
0.0164096
0.0164371
0.0164842
0.0165593
0.0166511
0.0167642
0.0168879
0.0170232
0.0171611
0.0173014
0.0174361
0.0175633
0.0176758
0.017771
0.0178431
0.0178904
0.017909
0.0178932
0.0178416
0.0177507
0.0176203
0.017449
0.0172385
0.0169893
0.0167053
0.0163897
0.0160604
0.0155679
0.015089
0.014563
0.0140625
0.0135457
0.0130757
0.0126253
0.0122446
0.011926
0.0117174
0.0116261
0.0117013
0.0119654
0.0124658
0.013223
0.014258
0.0155671
0.0171392
0.0189972
0.018929
0.0184363
0.0203951
0.0224518
0.0239228
0.026008
0.0273754
0.0279914
0.0282542
0.0283619
0.0282468
0.0278261
0.0275132
0.0271079
0.0268351
0.0272491
0.0286766
0.0308334
0.0307703
0.0338548
0.0345521
0.0376534
0.0380386
0.0401289
0.0387582
0.0379089
0.0338294
0.0297642
0.0255254
0.0236305
0.0231696
0.0244189
0.0290098
0.0327358
0.035072
0.0335572
0.0306311
0.0321503
0.0322161
0.0338246
0.034921
0.037883
0.0404927
0.0450396
0.0495478
0.0560858
0.0627204
0.0693351
0.0747065
0.0781277
0.0809555
0.0828151
0.0840065
0.0219641
0.0217618
0.0215761
0.0213993
0.021238
0.0210783
0.020924
0.020762
0.0205951
0.0204124
0.020217
0.020001
0.0197676
0.0195111
0.0192347
0.0189351
0.0186161
0.0182783
0.0179326
0.0175746
0.017212
0.0168432
0.0164744
0.0161059
0.0157426
0.0153861
0.0150403
0.0147151
0.0143517
0.0140547
0.0137738
0.01356
0.0133906
0.0133061
0.0132946
0.0133933
0.0136026
0.0139568
0.0144656
0.0151578
0.0160372
0.0171157
0.0183827
0.0198316
0.0214506
0.0232687
0.023096
0.0210808
0.0211813
0.0227995
0.0239298
0.0251865
0.0274887
0.0289666
0.0294504
0.0297574
0.0298467
0.0296924
0.0293346
0.0289294
0.0288515
0.0290079
0.030117
0.032126
0.0345878
0.0352148
0.0379907
0.0388991
0.0417746
0.042655
0.0442914
0.0429772
0.0411163
0.0364429
0.0318881
0.0280285
0.0265497
0.0262177
0.0276737
0.0309502
0.0329552
0.0352373
0.0340835
0.0336401
0.0347207
0.0353357
0.0366744
0.0382457
0.0409585
0.0440935
0.0486074
0.0537844
0.0603502
0.0674873
0.0747172
0.0803068
0.0839377
0.0869142
0.0889196
0.0902093
0.0235071
0.023086
0.0226568
0.0222417
0.0218326
0.0214333
0.0210392
0.0206511
0.020268
0.0198899
0.0195178
0.019151
0.0187921
0.0184399
0.0180976
0.0177645
0.0174437
0.017135
0.0168415
0.0165641
0.0163073
0.0160726
0.0158653
0.0156881
0.0155475
0.0154476
0.015397
0.0154065
0.0154301
0.0155362
0.0156961
0.0159355
0.0162425
0.0166365
0.0171202
0.0177171
0.0184204
0.0192519
0.0202008
0.0212818
0.0224741
0.0237844
0.0251923
0.0267163
0.0283685
0.0279273
0.0248554
0.023556
0.0236535
0.0247992
0.0251942
0.0263195
0.0286483
0.0300432
0.0303633
0.030661
0.0306033
0.0304848
0.0300302
0.0296609
0.0297553
0.0303055
0.0318339
0.0342304
0.0369784
0.0383386
0.0405618
0.0416108
0.0442235
0.0453912
0.0465791
0.0454417
0.0429669
0.0384839
0.0341574
0.0309379
0.0294895
0.0291054
0.0303195
0.0321993
0.0332387
0.0353656
0.0350004
0.03581
0.0368511
0.0378794
0.0392818
0.0413297
0.044242
0.047971
0.0528796
0.0587243
0.0658692
0.073256
0.0804822
0.0860835
0.0900453
0.0930328
0.0952298
0.0965954
0.021452
0.0211007
0.0207431
0.0204088
0.0200812
0.0197724
0.019472
0.0191891
0.0189182
0.0186662
0.0184312
0.0182174
0.0180239
0.0178535
0.0177073
0.0175878
0.0174978
0.0174407
0.0174211
0.017444
0.0175161
0.0176442
0.0178377
0.0181058
0.0184614
0.0189172
0.0194912
0.0202011
0.0206407
0.0211489
0.0216999
0.0223111
0.0229561
0.0236505
0.0244034
0.025235
0.0261225
0.027086
0.0281035
0.0291927
0.0303325
0.0315431
0.0328161
0.034188
0.0328498
0.0292717
0.0269305
0.0257481
0.0257142
0.0263739
0.0262425
0.027232
0.0294309
0.030696
0.0308614
0.0311
0.0308867
0.030761
0.0301767
0.0298165
0.0300084
0.0308069
0.0325647
0.0351694
0.0381927
0.0401382
0.0418665
0.0430254
0.0454251
0.0468
0.0478785
0.0470121
0.0444236
0.0403479
0.0364409
0.0337637
0.0323303
0.0318352
0.032382
0.0332618
0.0339652
0.0363993
0.0367992
0.0382461
0.0393426
0.0405856
0.0421546
0.0445095
0.0477931
0.0519338
0.0574648
0.0638429
0.0717083
0.0793205
0.0868533
0.0921457
0.096393
0.0992327
0.101679
0.103093
0.0199062
0.0197747
0.0196419
0.0195322
0.0194281
0.0193448
0.0192706
0.0192196
0.0191849
0.0191792
0.0191991
0.0192553
0.0193447
0.0194754
0.019647
0.0198675
0.0201397
0.0204724
0.0208714
0.0213468
0.0219075
0.022565
0.0233306
0.0242179
0.0252399
0.0264112
0.0277469
0.0292535
0.0298526
0.0304731
0.0311004
0.0317456
0.0323834
0.0330243
0.0336949
0.0344073
0.0351416
0.0359109
0.0367016
0.0375286
0.0383868
0.039299
0.0402716
0.036872
0.0337248
0.0307524
0.0287742
0.0275184
0.0273414
0.0275571
0.0270998
0.0279318
0.0298712
0.0309597
0.0309557
0.0310872
0.0307423
0.0305779
0.0298746
0.0295262
0.0297543
0.030675
0.0324702
0.0351415
0.0383348
0.0406882
0.0421468
0.0434529
0.0456327
0.0472762
0.0485012
0.0481281
0.045933
0.0425691
0.0392032
0.0367891
0.0350441
0.0341724
0.0340055
0.0341647
0.0347618
0.0374438
0.0385248
0.0404534
0.0418033
0.0432605
0.0451162
0.0478117
0.0516316
0.0562423
0.0625863
0.0694451
0.0781146
0.0856683
0.0935207
0.0984467
0.102958
0.105599
0.108287
0.109741
0.0206821
0.0207838
0.0208932
0.0210268
0.0211694
0.0213365
0.021518
0.0217299
0.0219668
0.0222445
0.022561
0.0229314
0.0233535
0.0238376
0.0243815
0.0249955
0.025681
0.0264482
0.0273
0.0282468
0.0292925
0.0304448
0.0317098
0.0330912
0.0345908
0.0362057
0.0379304
0.0397439
0.0401635
0.0405702
0.0409652
0.0413581
0.0417336
0.0420945
0.042474
0.0428745
0.0432824
0.0437033
0.0441346
0.0434446
0.042447
0.0409378
0.0392479
0.0368874
0.0345211
0.0319667
0.030113
0.0288856
0.0284811
0.0283574
0.0276905
0.028432
0.0299883
0.0308785
0.0306951
0.0307023
0.0302659
0.0300459
0.0292645
0.0289227
0.0291613
0.0301035
0.0318175
0.0344298
0.0376755
0.0403243
0.0418815
0.0433567
0.0453704
0.0474439
0.0490416
0.0494327
0.047923
0.0453253
0.0423469
0.0398969
0.0376295
0.0362325
0.0353721
0.0350717
0.0357028
0.0386886
0.0403552
0.0427349
0.0444146
0.0460869
0.0482457
0.0513434
0.0557585
0.0609447
0.0681471
0.0755108
0.0849218
0.0923906
0.100388
0.104978
0.109644
0.112161
0.115006
0.116514
0.0238708
0.0242045
0.0245579
0.0249381
0.0253319
0.0257527
0.0261915
0.026663
0.0271628
0.0277071
0.0282955
0.0289441
0.0296541
0.0304355
0.0312822
0.0321994
0.0331813
0.0342317
0.035345
0.036523
0.0377607
0.039058
0.0404008
0.0417803
0.043177
0.0445719
0.0459412
0.0472657
0.0473752
0.0471206
0.0461398
0.0443637
0.0434716
0.0423914
0.0416351
0.0408692
0.040227
0.0394735
0.0388745
0.0382195
0.0377266
0.0371142
0.036523
0.0355478
0.0342081
0.032581
0.031147
0.029853
0.0292325
0.0288345
0.0280501
0.0288187
0.0298656
0.0305097
0.0301182
0.0299921
0.0295004
0.0292278
0.0284112
0.0280813
0.0283277
0.0292363
0.0307969
0.0332498
0.0364357
0.0393586
0.0413177
0.0429586
0.0448724
0.0475116
0.0496518
0.0511117
0.0505473
0.0487641
0.0459092
0.0430277
0.0401105
0.0380844
0.0365703
0.0359376
0.0365945
0.0398317
0.0420611
0.0449361
0.0470838
0.04905
0.0515428
0.0551647
0.0602397
0.0661648
0.0742287
0.0821438
0.0920931
0.0995062
0.107436
0.111729
0.116376
0.118838
0.121751
0.123327
0.0286388
0.0291858
0.0297618
0.0303641
0.0309796
0.0316174
0.0322669
0.032937
0.0336211
0.0343302
0.0350625
0.0358313
0.0366378
0.0374936
0.0383896
0.0393203
0.0402693
0.0412274
0.0421782
0.0431101
0.0440053
0.0448451
0.0456049
0.0462632
0.0467941
0.0471763
0.0460292
0.0441991
0.0438348
0.0411315
0.0406496
0.0390278
0.0384366
0.0373577
0.0367181
0.0360272
0.0354519
0.0349223
0.0343451
0.0338502
0.0333558
0.0329375
0.03258
0.0323013
0.0321201
0.0318039
0.031165
0.0303055
0.0297246
0.0291326
0.0283756
0.0290919
0.029554
0.0298655
0.0292437
0.0289933
0.0284859
0.0282009
0.0274178
0.0271256
0.0273765
0.0282176
0.0295755
0.0317916
0.0348199
0.0379725
0.0405091
0.0423687
0.0442641
0.0475952
0.0504611
0.0532979
0.0538775
0.0528067
0.0496825
0.0460171
0.0423967
0.0396902
0.0376653
0.0367379
0.0374123
0.0408375
0.0435782
0.0470392
0.0498157
0.0521624
0.0550354
0.0593108
0.0651266
0.0719509
0.080875
0.0894147
0.0996943
0.10702
0.114662
0.11866
0.123099
0.125537
0.128436
0.13008
0.0335047
0.0341766
0.0348774
0.0355977
0.0363236
0.0370595
0.0377919
0.0385222
0.0392377
0.0399394
0.0406184
0.041279
0.0419188
0.0425461
0.0431615
0.0437578
0.044312
0.0448034
0.0452067
0.0455008
0.0450474
0.0440938
0.0432654
0.0423667
0.0413856
0.0402407
0.0392724
0.0381795
0.038042
0.03585
0.0358
0.0343863
0.0341879
0.0332979
0.0329698
0.0325025
0.0320648
0.0317892
0.0313299
0.0309555
0.0305533
0.0302427
0.0299468
0.0297873
0.0297258
0.0297544
0.0298581
0.0300499
0.0298857
0.0296168
0.0288641
0.0294107
0.0292743
0.029091
0.0281345
0.027714
0.0271987
0.0269284
0.026207
0.0259616
0.0262378
0.027031
0.0282019
0.0301752
0.0329853
0.0362542
0.0392773
0.0414878
0.0436903
0.0475832
0.0514779
0.0558737
0.0578395
0.0572716
0.0534512
0.0487835
0.0443779
0.0410319
0.0386338
0.0374332
0.0380819
0.041595
0.0448199
0.0490014
0.0524956
0.0554799
0.0588741
0.0638803
0.0705874
0.0784319
0.0882376
0.0973453
0.107738
0.114878
0.122067
0.125722
0.129756
0.132136
0.134947
0.13665
0.0368335
0.0374721
0.0381267
0.0387872
0.03944
0.0400875
0.0407154
0.041321
0.0418878
0.0424089
0.0428676
0.0432566
0.0435645
0.0437911
0.0439359
0.0440069
0.0433586
0.0419382
0.0402474
0.03862
0.037135
0.0359125
0.0349334
0.0341632
0.0334895
0.0328326
0.0323324
0.0319292
0.0320036
0.0304079
0.0307622
0.0295343
0.0297404
0.0290718
0.0290797
0.0288139
0.0285779
0.0284505
0.0281823
0.0280747
0.0279673
0.0279735
0.0279874
0.0280462
0.0280965
0.0282095
0.0285103
0.0289482
0.0294188
0.0298422
0.029422
0.0296608
0.0288493
0.0279765
0.0266585
0.0260973
0.0256343
0.0254787
0.0249536
0.024824
0.0251386
0.0258788
0.0268375
0.0285201
0.0309699
0.0341472
0.0373834
0.0402091
0.0432875
0.0472599
0.0526659
0.05854
0.0621423
0.0617386
0.0568431
0.0511783
0.0461126
0.0422642
0.0395553
0.0381215
0.0386768
0.0422119
0.0459639
0.0509236
0.0552495
0.059351
0.0634876
0.0692269
0.0770668
0.0859668
0.0966827
0.106076
0.116201
0.122868
0.129453
0.132755
0.136226
0.138425
0.141068
0.142811
0.0375255
0.0379737
0.0384175
0.0388521
0.0392655
0.0396607
0.0400274
0.0403619
0.0406482
0.0408802
0.0410404
0.0411156
0.0410866
0.0409415
0.0406698
0.0377848
0.0359841
0.0349055
0.0335762
0.0318947
0.0301807
0.0286608
0.0274097
0.0264907
0.0258639
0.0254599
0.0253122
0.0254185
0.025836
0.025215
0.0261038
0.0250466
0.0256181
0.0250761
0.0253649
0.0251343
0.025151
0.0249712
0.0249365
0.0249707
0.02506
0.0252041
0.0255017
0.0258343
0.0263296
0.0267936
0.0273324
0.0278347
0.0285964
0.0294838
0.030061
0.0302256
0.0291265
0.0273338
0.0252419
0.0242286
0.0237209
0.0236663
0.0233441
0.0232916
0.0236551
0.0244142
0.0252224
0.0267289
0.0288036
0.0318314
0.035096
0.0385716
0.0426295
0.0465954
0.0536477
0.0608991
0.0661511
0.0655957
0.0596074
0.0530391
0.0475032
0.0433687
0.0404265
0.0388132
0.0392061
0.0427108
0.0470497
0.05287
0.058456
0.0643205
0.0695718
0.0762617
0.0855938
0.0955312
0.106999
0.116039
0.125096
0.130594
0.136281
0.139395
0.142346
0.144187
0.14644
0.148167
0.0353967
0.0355751
0.0357316
0.0358687
0.0359774
0.0360619
0.0361168
0.0361387
0.0361154
0.0360447
0.0359171
0.0357226
0.0354453
0.03507
0.0345792
0.0339615
0.0324295
0.0296366
0.0280221
0.0264754
0.0245925
0.0226426
0.0210188
0.0197766
0.0190165
0.0186521
0.0185861
0.0174827
0.0179493
0.0184118
0.0188575
0.0193697
0.0199295
0.0205994
0.0212884
0.0217864
0.0221387
0.022059
0.0223015
0.0223802
0.0226126
0.0227463
0.0231026
0.0234069
0.0239804
0.0246225
0.0254929
0.0263771
0.0274001
0.0286024
0.0296233
0.0301388
0.0282859
0.0255438
0.0230036
0.0217296
0.0212631
0.0214849
0.0216965
0.0219911
0.0223906
0.0233202
0.0238753
0.0252171
0.026664
0.0293116
0.0323952
0.0361459
0.0406817
0.0461361
0.0535621
0.0627022
0.0689703
0.0679798
0.0611849
0.0542124
0.0485456
0.044384
0.041364
0.0396376
0.0398142
0.0431759
0.0478998
0.0546338
0.061922
0.0701908
0.0774875
0.0860823
0.0973698
0.108541
0.119938
0.127576
0.134373
0.138111
0.142391
0.145523
0.148248
0.149648
0.150973
0.152392
0.0310508
0.0309792
0.0308787
0.0307575
0.0306105
0.0304404
0.0302424
0.0300157
0.0297552
0.0294617
0.0291299
0.0287579
0.0283372
0.0278602
0.0273127
0.0266807
0.025947
0.0251021
0.0241462
0.0218625
0.0199678
0.0179864
0.0160834
0.0145495
0.0134767
0.0128491
0.0126078
0.0113171
0.0117067
0.0120792
0.0124331
0.0128592
0.0133125
0.0138741
0.014451
0.0150948
0.0157716
0.0165097
0.017294
0.0181525
0.0190878
0.0201283
0.0206325
0.0209352
0.0214849
0.0221558
0.0231715
0.0243617
0.0259006
0.0277401
0.0296822
0.0324038
0.0320688
0.0279276
0.0229435
0.020102
0.0189294
0.0189785
0.0192447
0.0200104
0.0202415
0.0214603
0.0217339
0.0231824
0.0241979
0.0268611
0.0298307
0.0335963
0.0378692
0.0452922
0.0528457
0.0637082
0.0705868
0.0688226
0.0616019
0.0545901
0.0490234
0.0449188
0.0419393
0.0400669
0.0397874
0.0423755
0.0475244
0.0549686
0.0639348
0.0748164
0.0856429
0.0966626
0.109304
0.12161
0.129054
0.133022
0.137075
0.141118
0.145053
0.148741
0.15202
0.153949
0.154688
0.155553
0.0254655
0.0252309
0.0249696
0.0246923
0.0243966
0.0240831
0.0237491
0.0233949
0.0230188
0.0226219
0.0222022
0.0217597
0.0212914
0.0207957
0.0202666
0.0196975
0.0190764
0.0183897
0.0176216
0.0167625
0.0158199
0.0148044
0.0134782
0.0111372
0.00943116
0.00846303
0.00826002
0.00730567
0.007526
0.00774857
0.00795015
0.00822019
0.00850519
0.0088814
0.0092704
0.00972508
0.0102082
0.0107531
0.0113338
0.0119859
0.0127046
0.0135245
0.0144464
0.0155012
0.0166936
0.0180407
0.0195314
0.0209274
0.022559
0.0244737
0.0262334
0.0277691
0.028783
0.0254609
0.0197707
0.0176459
0.0171573
0.0173053
0.0177631
0.0192289
0.0192854
0.0207563
0.0209029
0.0223476
0.0228709
0.024931
0.0268261
0.0301927
0.0341522
0.0405085
0.0501122
0.0582594
0.064608
0.0631944
0.0580018
0.0523311
0.0478859
0.0444578
0.0417643
0.0398839
0.0393499
0.0417036
0.0464093
0.0532178
0.062735
0.0741058
0.0874874
0.095292
0.0989342
0.102936
0.107319
0.112105
0.117307
0.122913
0.128865
0.135074
0.141341
0.147345
0.152581
0.156372
0.019624
0.0193295
0.0190159
0.0186919
0.0183585
0.0180138
0.0176582
0.0172907
0.0169115
0.0165203
0.016117
0.0157014
0.0152731
0.0148322
0.0143778
0.0139094
0.0134244
0.012919
0.0123844
0.011808
0.0111734
0.0104686
0.00969954
0.00887362
0.00735122
0.00587794
0.00546185
0.00512522
0.00517009
0.00523526
0.00529694
0.00541055
0.00553595
0.00572233
0.00591701
0.0061612
0.00642382
0.00673461
0.0070679
0.00745619
0.00788907
0.00839352
0.00898472
0.00968221
0.0104958
0.0114406
0.0125161
0.0137154
0.0150062
0.016342
0.0176414
0.0188365
0.0194469
0.0198792
0.0203855
0.0211831
0.0188641
0.0172731
0.0170913
0.0190856
0.0185988
0.0204971
0.0204267
0.0212728
0.0217455
0.0227809
0.0257278
0.0297908
0.0348479
0.0402151
0.0534663
0.0568019
0.0565167
0.0564344
0.0552671
0.0490669
0.0445174
0.0414807
0.0392293
0.0376136
0.0363602
0.036419
0.0390693
0.0450336
0.0544757
0.0605341
0.0627888
0.0656886
0.0687374
0.0722293
0.0762276
0.0808178
0.086064
0.0921108
0.0990871
0.107189
0.116556
0.127251
0.138942
0.150368
0.0143735
0.0141078
0.0138311
0.0135487
0.0132638
0.0129731
0.0126787
0.0123784
0.0120738
0.0117635
0.0114485
0.011128
0.0108025
0.0104718
0.0101361
0.00979555
0.00945019
0.00909961
0.00874224
0.00837564
0.0079909
0.00757458
0.00711174
0.00660377
0.00605129
0.00493538
0.00384235
0.00403839
0.00405199
0.0040222
0.00399663
0.00400932
0.00403106
0.00408809
0.00415059
0.00424151
0.00434071
0.00446697
0.00460178
0.00476536
0.00494928
0.00516993
0.00543377
0.0057608
0.00615683
0.00663612
0.00720078
0.00785602
0.00858481
0.00936567
0.0101539
0.010913
0.0112649
0.0114578
0.0115949
0.0118087
0.00946824
0.00959911
0.0147003
0.0206129
0.0225664
0.0255816
0.0264285
0.0280419
0.0290674
0.0290951
0.0308664
0.0292779
0.0287868
0.0289259
0.0316519
0.0334642
0.0330735
0.0328267
0.0326492
0.0324683
0.0322727
0.0320551
0.0315151
0.0301561
0.0290851
0.0296072
0.0308563
0.0313192
0.0317293
0.0322984
0.0333938
0.0350793
0.0368733
0.03899
0.0414666
0.044394
0.0478316
0.051997
0.0571062
0.063607
0.0721155
0.0837674
0.100424
0.125293
0.0103884
0.0102089
0.0100246
0.00983694
0.00965025
0.00946024
0.00927016
0.00907687
0.00888264
0.00868528
0.0084862
0.00828388
0.0080789
0.00787015
0.00765772
0.00744131
0.00722146
0.00699908
0.00677512
0.00655005
0.00632302
0.00609105
0.00583864
0.00553621
0.00515626
0.00451184
0.00270564
0.00298445
0.00347687
0.00345333
0.00339584
0.00338087
0.00335782
0.00336387
0.00336455
0.00338396
0.00340093
0.00342994
0.00345564
0.0034918
0.00353194
0.00358756
0.00365871
0.00375319
0.00387451
0.0040318
0.00422855
0.00446613
0.00474141
0.00504134
0.00534681
0.00563549
0.00576285
0.00579735
0.00576179
0.00573178
0.00578229
0.00628956
0.00861138
0.0109469
0.011477
0.0119757
0.0127212
0.013532
0.0141801
0.015059
0.0157902
0.016334
0.0168691
0.0167817
0.0153313
0.0156792
0.0154197
0.0147451
0.0143862
0.0140749
0.0137924
0.0135798
0.01327
0.0130256
0.0127614
0.0127777
0.0129699
0.0130033
0.0128
0.0126727
0.0129072
0.0133885
0.0138619
0.0144561
0.0151923
0.0160889
0.0171315
0.0184127
0.0199876
0.0220596
0.0249074
0.0292281
0.0366542
0.0539217
0.00750324
0.00740213
0.00729573
0.00718508
0.00707323
0.00695677
0.0068385
0.00671519
0.00658935
0.00645797
0.00632317
0.00618221
0.00603662
0.00588395
0.00572535
0.00555891
0.00538515
0.00520178
0.00500838
0.00480314
0.00458755
0.00436147
0.00412223
0.00385866
0.00354928
0.00318454
0.00275576
0.000638843
0.000618574
0.000613306
0.000606677
0.000607351
0.000609423
0.000614656
0.000620251
0.000626336
0.000632399
0.000637484
0.000641072
0.000642441
0.000642442
0.00064114
0.000639415
0.000638092
0.000638133
0.000640097
0.000644169
0.000651008
0.000660481
0.000672938
0.000687138
0.000699374
0.000704795
0.000705105
0.000701667
0.000695765
0.00068367
0.000649543
0.000672562
0.000733418
0.000780284
0.000824324
0.000858453
0.000891224
0.000918737
0.000946407
0.000971182
0.00100787
0.00104763
0.00109388
0.00114319
0.00118107
0.0012133
0.00123602
0.00124348
0.00124204
0.00123294
0.00121667
0.00119516
0.00117002
0.00114483
0.00113423
0.001123
0.00110728
0.0010873
0.00106338
0.0010385
0.00101774
0.000999779
0.00098418
0.00096996
0.000956385
0.000941697
0.000924997
0.000904901
0.000880373
0.000850294
0.000813764
0.00076987
0.000717688
0.000376869
0.0196668
0.0223962
0.0224854
0.0224883
0.0224879
0.0224875
0.0224868
0.0224863
0.0224857
0.0224854
0.0224853
0.0224856
0.0224861
0.0224867
0.0224872
0.0224877
0.022488
0.0224884
0.0224886
0.000403017
0.0176242
0.0222159
0.0224616
0.0224721
0.0224721
0.0224717
0.0224711
0.0224706
0.0224701
0.02247
0.0224703
0.0224713
0.0224729
0.0224744
0.0224759
0.0224772
0.0224781
0.022479
0.0224795
0.000427814
0.0161198
0.0219891
0.0224322
0.0224558
0.0224567
0.0224563
0.0224559
0.0224556
0.0224552
0.0224553
0.022456
0.0224578
0.0224603
0.0224629
0.0224653
0.0224674
0.022469
0.0224703
0.0224711
0.000451208
0.0149563
0.0217302
0.0223967
0.0224394
0.0224417
0.0224415
0.0224412
0.0224409
0.0224407
0.022441
0.0224422
0.0224447
0.0224482
0.0224518
0.0224551
0.0224579
0.0224602
0.022462
0.0224632
0.000473205
0.0140184
0.0214488
0.0223546
0.0224226
0.0224269
0.022427
0.0224268
0.0224266
0.0224265
0.022427
0.0224287
0.022432
0.0224364
0.0224411
0.0224454
0.022449
0.0224519
0.0224541
0.0224556
0.00049388
0.0132073
0.021148
0.0223057
0.0224051
0.0224121
0.0224126
0.0224125
0.0224125
0.0224126
0.0224134
0.0224156
0.0224196
0.0224251
0.0224308
0.022436
0.0224404
0.0224439
0.0224466
0.0224484
0.00051324
0.0124531
0.0208272
0.0222496
0.0223866
0.0223974
0.0223983
0.0223985
0.0223987
0.022399
0.0224
0.0224028
0.0224076
0.022414
0.0224208
0.022427
0.0224322
0.0224364
0.0224396
0.0224416
0.00053139
0.0117425
0.0204879
0.0221863
0.0223669
0.0223827
0.0223842
0.0223846
0.022385
0.0223856
0.022387
0.0223902
0.0223959
0.0224034
0.0224112
0.0224183
0.0224243
0.0224292
0.0224329
0.0224352
0.000548351
0.0110854
0.0201344
0.0221157
0.0223461
0.022368
0.0223703
0.022371
0.0223717
0.0223725
0.0223743
0.022378
0.0223846
0.0223931
0.022402
0.0224101
0.0224169
0.0224224
0.0224266
0.0224292
0.000564238
0.0104897
0.0197712
0.0220382
0.0223241
0.0223532
0.0223565
0.0223576
0.0223585
0.0223597
0.0223618
0.0223662
0.0223737
0.0223832
0.0223932
0.0224022
0.0224099
0.0224161
0.0224207
0.0224236
0.000579057
0.00995635
0.0194033
0.0219538
0.0223006
0.0223385
0.022343
0.0223445
0.0223457
0.0223472
0.0223498
0.0223548
0.0223631
0.0223737
0.0223847
0.0223948
0.0224033
0.0224102
0.0224153
0.0224184
0.000592919
0.00948181
0.0190352
0.0218632
0.0222758
0.0223237
0.0223297
0.0223316
0.0223332
0.0223352
0.0223382
0.0223439
0.022353
0.0223646
0.0223767
0.0223878
0.0223972
0.0224047
0.0224103
0.0224138
0.000605812
0.00906094
0.0186707
0.0217668
0.0222496
0.022309
0.0223167
0.0223191
0.0223211
0.0223235
0.022327
0.0223334
0.0223434
0.0223561
0.0223692
0.0223813
0.0223916
0.0223998
0.0224059
0.0224096
0.000617839
0.00868767
0.0183128
0.0216653
0.022222
0.0222942
0.022304
0.022307
0.0223094
0.0223122
0.0223163
0.0223234
0.0223343
0.0223481
0.0223623
0.0223754
0.0223865
0.0223954
0.0224021
0.0224061
0.000628962
0.00835539
0.017964
0.0215594
0.0221931
0.0222796
0.0222917
0.0222953
0.0222982
0.0223015
0.0223062
0.022314
0.0223258
0.0223407
0.022356
0.0223701
0.0223821
0.0223917
0.0223989
0.0224032
0.000639214
0.00805459
0.0176262
0.02145
0.0221631
0.0222652
0.0222799
0.0222841
0.0222876
0.0222915
0.0222967
0.0223052
0.0223181
0.022334
0.0223504
0.0223656
0.0223785
0.0223888
0.0223965
0.022401
0.000648544
0.00778227
0.0173007
0.021338
0.0221321
0.0222511
0.0222687
0.0222736
0.0222777
0.0222821
0.022288
0.0222973
0.0223111
0.0223281
0.0223457
0.0223619
0.0223757
0.0223867
0.0223949
0.0223997
0.000656997
0.00753561
0.016989
0.0212244
0.0221004
0.0222374
0.0222582
0.022264
0.0222687
0.0222737
0.0222803
0.0222903
0.0223051
0.0223232
0.022342
0.0223592
0.0223739
0.0223855
0.0223943
0.0223994
0.000664441
0.00731241
0.0166921
0.0211103
0.0220683
0.0222245
0.0222486
0.0222553
0.0222607
0.0222664
0.0222736
0.0222845
0.0223002
0.0223195
0.0223394
0.0223577
0.0223733
0.0223856
0.0223949
0.0224003
0.000671115
0.00711073
0.0164114
0.020997
0.0220363
0.0222124
0.02224
0.0222479
0.022254
0.0222604
0.0222683
0.02228
0.0222967
0.0223171
0.0223381
0.0223575
0.0223739
0.022387
0.0223969
0.0224025
0.000676543
0.00692913
0.0161482
0.020886
0.0220048
0.0222016
0.0222329
0.0222421
0.0222489
0.0222559
0.0222645
0.022277
0.0222947
0.0223162
0.0223384
0.0223588
0.0223762
0.02239
0.0224004
0.0224063
0.000681123
0.00676655
0.015904
0.020779
0.0219745
0.0221925
0.0222276
0.0222383
0.0222458
0.0222533
0.0222626
0.0222759
0.0222946
0.0223172
0.0223405
0.022362
0.0223803
0.0223948
0.0224057
0.022412
0.000684657
0.0066221
0.0156802
0.0206781
0.0219459
0.0221855
0.0222248
0.022237
0.022245
0.0222531
0.0222629
0.022277
0.0222967
0.0223204
0.0223448
0.0223674
0.0223865
0.0224017
0.0224132
0.0224198
0.000686665
0.00648861
0.015471
0.0205834
0.0219194
0.0221815
0.0222252
0.0222388
0.0222472
0.0222558
0.022266
0.0222807
0.0223013
0.0223261
0.0223516
0.0223752
0.0223952
0.0224111
0.022423
0.02243
0.000689619
0.00634954
0.0152565
0.0204903
0.0218947
0.0221812
0.0222298
0.0222445
0.0222529
0.0222617
0.0222723
0.0222875
0.0223088
0.0223346
0.0223612
0.0223858
0.0224067
0.0224232
0.0224357
0.022443
0.000696009
0.00620447
0.0150323
0.0201347
0.0218728