/*--------------------------------*- C++ -*----------------------------------*\
  =========                 |
  \\      /  F ield         | OpenFOAM: The Open Source CFD Toolbox
   \\    /   O peration     | Website:  https://openfoam.org
    \\  /    A nd           | Version:  7
     \\/     M anipulation  |
\*---------------------------------------------------------------------------*/
FoamFile
{
    version     2.0;
    format      ascii;
    class       surfaceScalarField;
    location    "0.145";
    object      phi;
}
// * * * * * * * * * * * * * * * * * * * * * * * * * * * * * * * * * * * * * //

dimensions      [1 0 -1 0 0 0 0];

internalField   nonuniform List<scalar> 
96484
(
-0.00143596
-0.00141421
-0.00139337
-0.00137346
-0.00135435
-0.00133602
-0.00131836
-0.00130133
-0.00128485
-0.0012689
-0.00125343
-0.00123841
-0.0012238
-0.00120955
-0.00119562
-0.00118196
-0.00116852
-0.00115525
-0.00114211
-0.00112905
-0.00111606
-0.00110309
-0.00109013
-0.00107712
-0.00106404
-0.00105087
-0.0010376
-0.00103258
-0.00102655
-0.00101923
-0.00101024
-0.000999038
-0.000984996
-0.000967866
-0.000947686
-0.000924488
-0.000899234
-0.00087273
-0.000847589
-0.000824178
-0.000800842
-0.000777627
-0.000753542
-0.000731168
-0.000714207
-0.000721303
-0.000771248
-0.000863315
-0.000997991
-0.00121567
-0.00164752
-0.00154508
-0.00142836
-0.00138104
-0.00130641
-0.00124785
-0.00116709
-0.00108331
-0.00099434
-0.000901581
-0.000788815
-0.000657823
-0.000572657
-0.000548861
-0.000463548
-0.000478936
-0.000516765
-0.0005381
-0.000569267
-0.000607684
-0.0006548
-0.000707472
-0.000767332
-0.000831989
-0.000901417
-0.000976397
-0.00105579
-0.00113009
-0.00120497
-0.00145101
-0.0019222
-0.00163042
-0.00151396
-0.00146335
-0.00145717
-0.00150283
-0.00159733
-0.00165963
-0.00170834
-0.00173316
-0.00174216
-0.0017459
-0.00174919
-0.00175103
-0.00175367
-0.00175621
-0.00175928
-0.00175965
-0.0017492
0.000140346
0.00015068
-0.0014886
0.00015643
-0.00146859
0.00016179
-0.0014494
0.00016671
-0.00143108
0.000171252
-0.00141346
0.00017542
-0.00139653
0.000179275
-0.00138017
0.000182858
-0.00136442
0.000186228
-0.0013492
0.000189434
-0.00133455
0.000192494
-0.00132041
0.000195453
-0.00130679
0.000198315
-0.00129362
0.000201119
-0.00128085
0.000203862
-0.00126835
0.000206578
-0.00125607
0.000209266
-0.00124389
0.000211961
-0.00123174
0.000214669
-0.00121955
0.00021742
-0.00120727
0.00022021
-0.00119485
0.000223051
-0.00118231
0.000225943
-0.00116958
0.000228893
-0.00115661
0.000231901
-0.00114331
0.000234799
-0.00112957
0.000337723
-0.00111526
0.000342617
-0.00110076
0.000346517
-0.00108392
0.000349684
-0.0010649
0.000351727
-0.00104354
0.00035274
-0.00102009
0.000352878
-0.000994951
0.000352052
-0.000969986
0.000349796
-0.000945761
0.00034668
-0.00092341
0.000342259
-0.000902026
0.000338291
-0.000881261
0.000334457
-0.000861587
0.000326477
-0.000842547
0.000317966
-0.000828205
0.000304426
-0.000822131
0.000290768
-0.000831904
0.000280286
-0.00086758
0.000276235
-0.000936321
0.000270308
-0.00102518
0.000258449
-0.00112305
0.00026397
-0.00122516
0.000309767
-0.00134289
0.000530786
-0.00150773
-0.000102434
-0.00167139
-0.000116721
-0.00159265
-4.73256e-05
-0.00154074
-7.46262e-05
-0.00149445
-5.85573e-05
-0.00144657
-8.07676e-05
-0.00139876
-8.378e-05
-0.00134043
-8.89655e-05
-0.00127853
-9.2759e-05
-0.00122007
-0.000112766
-0.00116984
-0.000130992
-0.0011061
-8.51657e-05
-0.00102951
-2.37958e-05
-0.000983226
-8.53136e-05
-0.000972768
1.5388e-05
-0.000907368
3.78291e-05
-0.000949911
2.13352e-05
-0.000999899
3.11667e-05
-0.00103321
3.8417e-05
-0.00108244
4.7116e-05
-0.00112606
5.26718e-05
-0.00117203
5.98608e-05
-0.00121406
6.46566e-05
-0.00125563
6.94285e-05
-0.00129445
7.49792e-05
-0.00133137
7.93928e-05
-0.00136378
7.43001e-05
-0.00138897
7.48832e-05
-0.00141529
0.000246034
-0.00148139
0.000471195
-0.00161439
-0.000291781
-0.00164572
-0.000116461
-0.00164446
-5.06117e-05
-0.00160676
-6.17399e-06
-0.00159326
4.56523e-05
-0.0016148
9.45021e-05
-0.00165907
6.23003e-05
-0.00168681
4.87117e-05
-0.00171719
2.48203e-05
-0.00173319
8.99516e-06
-0.0017413
3.74356e-06
-0.00175092
3.28754e-06
-0.00175377
1.84057e-06
-0.00175477
2.64516e-06
-0.00175347
2.54125e-06
-0.00175159
3.06956e-06
-0.00174789
3.62114e-07
-0.0017417
-1.04449e-05
-0.00173171
-2.55788e-05
-0.00171751
0.00012001
0.000130663
-0.00157445
0.000137247
-0.00155743
0.000143467
-0.00154103
0.000149087
-0.0015253
0.000154325
-0.00151008
0.000159062
-0.00149539
0.00016352
-0.00148109
0.00016764
-0.00146724
0.000171576
-0.0014538
0.000175295
-0.00144085
0.00017888
-0.00142828
0.00018228
-0.00141608
0.00018554
-0.00140411
0.000188627
-0.00139234
0.00019158
-0.00138065
0.000194398
-0.00136899
0.000197119
-0.00135727
0.000199765
-0.00134544
0.000202387
-0.00133343
0.000205009
-0.00132119
0.000207663
-0.0013086
0.000210325
-0.00129562
0.000212972
-0.00128206
0.000215596
-0.00126801
0.000218158
-0.00125343
0.000220491
-0.00123847
0.000323217
-0.00122321
0.000325775
-0.00119781
0.000327502
-0.00117213
0.000328323
-0.00114646
0.000328279
-0.00112095
0.000327599
-0.00109532
0.000327913
-0.001069
0.000327826
-0.00104399
0.000327445
-0.00102009
0.000325297
-0.000997624
0.000321494
-0.000978932
0.000318617
-0.000965805
0.000315417
-0.000961465
0.000312136
-0.000970939
0.000311892
-0.000999881
0.000314199
-0.00105199
0.000326445
-0.00112537
0.000349027
-0.00120693
0.000365093
-0.00127614
0.000368181
-0.00132722
0.000360562
-0.00137316
0.000381697
-0.00142558
0.000474601
-0.00149888
0.000694452
-0.00158818
-0.000181173
-0.00164612
-0.000168639
-0.00160774
-9.361e-05
-0.00158171
-0.000122502
-0.00154542
-0.000106372
-0.00150618
-0.000139098
-0.0014682
-0.000145676
-0.00141915
-0.000147431
-0.00137025
-0.000142985
-0.0013268
-0.000176505
-0.00129606
-0.000207583
-0.00125536
-0.000131452
-0.00120966
-3.42538e-05
-0.00118415
-0.000150714
-0.00117354
5.7931e-05
-0.00114267
8.78173e-05
-0.00118982
5.46495e-05
-0.00122212
8.03888e-05
-0.00125929
8.2043e-05
-0.00130273
9.30806e-05
-0.00133985
9.47019e-05
-0.0013735
0.00010143
-0.00139805
0.000103478
-0.00141917
0.000106351
-0.00143392
0.000107389
-0.00144475
0.000104588
-0.00145043
0.000100612
-0.00145459
0.000140985
-0.00147534
0.000379033
-0.00154906
0.000502525
-0.00164234
-0.00029304
-0.00162536
-0.00015416
-0.00161758
-6.41047e-05
-0.00159582
1.53616e-05
-0.00159296
8.99171e-05
-0.00162485
0.000122245
-0.00165976
9.26803e-05
-0.00167737
6.4718e-05
-0.00169807
3.29291e-05
-0.00170884
1.86075e-05
-0.00171677
6.59391e-06
-0.00171886
4.29463e-06
-0.00172103
5.35768e-07
-0.0017207
7.72167e-07
-0.0017213
-1.16588e-06
-0.00172048
-3.11759e-06
-0.0017179
-9.6239e-06
-0.00171103
-2.46453e-05
-0.00169949
-4.19951e-05
-0.00168658
0.000102781
0.000113645
-0.00163002
0.00012085
-0.00161503
0.000127735
-0.00160015
0.000133872
-0.0015857
0.00013963
-0.00157145
0.000144768
-0.00155767
0.000149663
-0.00154421
0.000154204
-0.00153128
0.000158621
-0.00151869
0.000162732
-0.0015065
0.000166675
-0.00149455
0.000170315
-0.00148291
0.000173766
-0.0014715
0.000176936
-0.00146042
0.000179923
-0.00144964
0.000182676
-0.00143924
0.000185288
-0.0014292
0.000187759
-0.00141952
0.000190141
-0.00141009
0.000192419
-0.00140082
0.000194691
-0.00139156
0.000196757
-0.00138225
0.000198923
-0.00137288
0.00020102
-0.00136333
0.000203199
-0.00135361
0.000205224
-0.00134374
0.000297825
-0.00133379
0.00030009
-0.00130689
0.000301833
-0.00127965
0.000302817
-0.00125258
0.000302644
-0.00122621
0.000301278
-0.00120201
0.00030291
-0.00118072
0.000303925
-0.00116328
0.000304977
-0.00115215
0.000306605
-0.00115091
0.000308367
-0.00116195
0.000314276
-0.0011888
0.000324892
-0.00123022
0.000341078
-0.00128159
0.000363999
-0.00134088
0.000387584
-0.00139328
0.000408003
-0.00143309
0.000418238
-0.00145798
0.000416173
-0.00147087
0.000414122
-0.00148124
0.00041298
-0.00149086
0.000455001
-0.00152206
0.000563895
-0.00156874
0.000752394
-0.0016158
-0.000219557
-0.00162482
-0.000194669
-0.00160274
-0.000129893
-0.00159227
-0.000161745
-0.00156018
-0.000144356
-0.00153661
-0.000188145
-0.00150196
-0.00019458
-0.00146681
-0.000190879
-0.00142427
-0.000173721
-0.00139573
-0.000217208
-0.00137657
-0.000253278
-0.00135407
-0.00015697
-0.00132685
-4.4864e-05
-0.0013104
-0.000181577
-0.00129319
0.000105074
-0.00128853
0.000120119
-0.00132665
9.18175e-05
-0.00134327
0.000123833
-0.00138003
0.000119163
-0.00141163
0.000126733
-0.00144369
0.000119247
-0.00146787
0.000122558
-0.00148493
0.000118218
-0.001497
0.000117189
-0.00150342
0.000113063
-0.00150621
0.000108749
-0.00150526
0.000121368
-0.00150822
0.000214696
-0.00153167
0.000472321
-0.00158588
0.000485538
-0.00161869
-0.000300821
-0.00159645
-0.000175913
-0.00160599
-6.69652e-05
-0.00161003
4.72494e-05
-0.00162814
0.000124829
-0.00164764
0.000139854
-0.00166219
0.000113383
-0.00167033
7.54787e-05
-0.00167868
4.0867e-05
-0.00168283
2.06907e-05
-0.00168803
8.76752e-06
-0.00169036
3.96913e-06
-0.00169144
1.13315e-06
-0.00169056
-4.98124e-08
-0.00168864
-3.74131e-06
-0.00168522
-9.99242e-06
-0.00168089
-2.11588e-05
-0.00167427
-3.75622e-05
-0.00166538
-5.40664e-05
-0.00165597
8.79406e-05
9.86575e-05
-0.00164897
0.000105967
-0.0016368
0.00011329
-0.00162517
0.000119622
-0.00161393
0.000125846
-0.00160334
0.00013131
-0.00159332
0.00013673
-0.00158397
0.000141615
-0.00157518
0.000146427
-0.00156693
0.000150782
-0.00155914
0.000155036
-0.00155176
0.000158913
-0.00154477
0.000162685
-0.00153811
0.000166155
-0.00153174
0.000169522
-0.0015256
0.000172631
-0.00151969
0.00017561
-0.00151398
0.000178327
-0.00150849
0.00018087
-0.00150319
0.00018316
-0.00149812
0.000185387
-0.00149329
0.000187388
-0.00148873
0.00018937
-0.00148462
0.000191303
-0.00148109
0.000193323
-0.0014785
0.000195279
-0.00147702
0.000270919
-0.00147711
0.000272854
-0.00145714
0.000274761
-0.00143993
0.000276452
-0.00142727
0.00027844
-0.00141965
0.000279987
-0.00141872
0.000285476
-0.00142599
0.000292793
-0.00144284
0.000303737
-0.00146846
0.000317646
-0.00150072
0.000335216
-0.00153665
0.000355694
-0.00157144
0.000376262
-0.00159957
0.000400365
-0.00162457
0.0004164
-0.00163496
0.000427401
-0.00163497
0.000432886
-0.00162544
0.000431128
-0.00160989
0.000426547
-0.00159424
0.000423735
-0.00158021
0.000444188
-0.00157972
0.00050168
-0.0015916
0.000610958
-0.00161157
0.000761407
-0.00162322
-0.00024163
-0.00160438
-0.000205147
-0.0015983
-0.000161975
-0.00159206
-0.000185319
-0.00157016
-0.000179009
-0.00155087
-0.000223296
-0.00152314
-0.000237113
-0.00149392
-0.000219424
-0.00145812
-0.000192875
-0.00143699
-0.000239715
-0.00142514
-0.000280494
-0.00141208
-0.000173419
-0.00139759
-6.20764e-05
-0.00138699
-0.00018624
-0.00137564
0.000143198
-0.00138284
0.000136741
-0.00140474
0.000128575
-0.00141731
0.000155437
-0.00144823
0.00015122
-0.00147239
0.00015091
-0.00149975
0.000136306
-0.0015167
0.000134635
-0.00152853
0.000124636
-0.00153403
0.000119974
-0.00153496
0.000112113
-0.0015319
0.000111711
-0.00152769
0.000144821
-0.00153173
0.000268906
-0.00155852
0.00050513
-0.00159905
0.000463296
-0.0016
-0.000291285
-0.00157209
-0.000171865
-0.00159133
-4.88575e-05
-0.00160423
6.67491e-05
-0.00162877
0.000139382
-0.00164397
0.000147989
-0.00164912
0.000121735
-0.00165108
7.96284e-05
-0.00165392
4.60636e-05
-0.00165496
2.30235e-05
-0.00165632
9.84804e-06
-0.00165615
3.08816e-06
-0.00165677
-7.83561e-07
-0.00165629
-3.47474e-06
-0.00165571
-8.07105e-06
-0.00165257
-1.66117e-05
-0.00164741
-3.00506e-05
-0.00164022
-4.69683e-05
-0.0016327
-6.27754e-05
-0.00162583
7.59546e-05
8.64891e-05
-0.00168818
9.43307e-05
-0.00167946
0.000102052
-0.00167124
0.000109034
-0.00166349
0.00011583
-0.00165646
0.000121954
-0.00165002
0.000127948
-0.00164424
0.000133357
-0.00163897
0.000138637
-0.00163432
0.00014341
-0.00163023
0.000148047
-0.0016268
0.000152246
-0.00162401
0.000156314
-0.00162197
0.00016002
-0.00162068
0.000163616
-0.00162023
0.000166922
-0.00162073
0.000170117
-0.00162243
0.000173022
-0.00162566
0.000175799
-0.00163075
0.000178338
-0.00163816
0.000180827
-0.00164832
0.000183274
-0.00166168
0.000185845
-0.00167857
0.000188708
-0.0016992
0.00019184
-0.00172361
0.00019537
-0.00175203
0.000250949
-0.00178445
0.00025565
-0.00179248
0.000262099
-0.00180326
0.000268828
-0.0018181
0.000277516
-0.0018349
0.000287253
-0.00185325
0.000302328
-0.00186995
0.000318406
-0.00188429
0.000336
-0.00189436
0.000353573
-0.00189853
0.000370016
-0.0018955
0.000383819
-0.00188745
0.000401266
-0.00187459
0.000410757
-0.00185065
0.000416402
-0.00182029
0.000417877
-0.00178581
0.000417334
-0.00175005
0.000415472
-0.00171518
0.000412523
-0.00168133
0.000423246
-0.00165826
0.000456063
-0.00164521
0.000521651
-0.00164044
0.000622609
-0.00163654
0.000742571
-0.00162086
-0.00024771
-0.00158219
-0.000211385
-0.00158561
-0.000183881
-0.00158214
-0.000204608
-0.00156732
-0.000206733
-0.00155329
-0.000252518
-0.00153007
-0.000272913
-0.00150665
-0.000240558
-0.00147508
-0.00020472
-0.00146003
-0.000252781
-0.00145262
-0.000294978
-0.00144656
-0.000184018
-0.00143972
-7.34326e-05
-0.0014339
-0.000179041
-0.00142805
0.000165097
-0.00143894
0.00014932
-0.00144807
0.000159491
-0.00146041
0.000179599
-0.00148351
0.000178578
-0.00150361
0.000167858
-0.00152689
0.00014814
-0.00154001
0.000140129
-0.0015494
0.000125573
-0.00155187
0.000116906
-0.00155103
0.00010791
-0.00154648
0.000115753
-0.0015439
0.000171604
-0.00155111
0.000309437
-0.00157336
0.000506078
-0.0015937
0.000435387
-0.00157893
-0.000272043
-0.00155361
-0.000158963
-0.00157989
-2.4318e-05
-0.00160062
8.195e-05
-0.00162121
0.000144531
-0.00162765
0.00014995
-0.00162796
0.000124576
-0.00162555
8.0668e-05
-0.00162376
4.74242e-05
-0.00162267
2.28462e-05
-0.00162294
1.0472e-05
-0.00162271
2.60519e-06
-0.00162303
-1.35687e-06
-0.00162178
-6.62103e-06
-0.00161994
-1.32229e-05
-0.00161682
-2.38099e-05
-0.00161241
-3.75684e-05
-0.00160667
-5.38356e-05
-0.00160099
-6.87422e-05
-0.00159622
6.72236e-05
7.77611e-05
-0.00175929
8.6112e-05
-0.00175343
9.43047e-05
-0.00174808
0.000102008
-0.00174373
0.000109383
-0.00174054
0.000116171
-0.00173887
0.000122687
-0.00173888
0.000128708
-0.00174065
0.000134545
-0.0017442
0.000139977
-0.00174959
0.000145262
-0.00175705
0.0001502
-0.00176679
0.00015502
-0.00177918
0.000159576
-0.00179451
0.000164117
-0.00181314
0.000168617
-0.00183531
0.000173351
-0.00186118
0.000178114
-0.00189069
0.000183205
-0.00192388
0.000188496
-0.00196063
0.00019419
-0.00200082
0.000200162
-0.00204421
0.000206478
-0.00209051
0.000213116
-0.00213947
0.000220262
-0.0021907
0.00022779
-0.00224364
0.000258978
-0.00229746
0.00026643
-0.00230367
0.000276936
-0.00230594
0.000285633
-0.00230359
0.000295867
-0.00229518
0.000303946
-0.00228059
0.000316675
-0.00225938
0.000328472
-0.00223427
0.000340169
-0.00220443
0.000350543
-0.00217013
0.000361965
-0.00213126
0.000370966
-0.00208823
0.000377324
-0.00204128
0.000380397
-0.0019914
0.000381915
-0.00194064
0.000382127
-0.00189051
0.000382464
-0.00184068
0.000381614
-0.00179337
0.000389459
-0.00175389
0.000410193
-0.00172153
0.000451294
-0.00169608
0.000517747
-0.00167438
0.000606928
-0.00164971
0.000703901
-0.00161342
-0.00024429
-0.00156064
-0.000214853
-0.00156957
-0.000198694
-0.00156915
-0.000218646
-0.00156038
-0.000229954
-0.00154968
-0.000275932
-0.00153143
-0.00030448
-0.00151152
-0.000255612
-0.0014843
-0.000212127
-0.00147266
-0.00025884
-0.00146886
-0.000301822
-0.00146708
-0.000189836
-0.00146607
-7.92849e-05
-0.00146397
-0.000168153
-0.00146226
0.000174228
-0.00147396
0.000161661
-0.00147646
0.00018259
-0.00148752
0.000199696
-0.00150427
0.00020186
-0.00152202
0.000180975
-0.00154133
0.000157532
-0.00155177
0.0001426
-0.00155834
0.000124729
-0.00155816
0.000112363
-0.00155524
0.000105324
-0.00154955
0.000122969
-0.0015483
0.000193848
-0.00155727
0.000329783
-0.00157411
0.000491308
-0.00157946
0.000410067
-0.00155724
-0.000245771
-0.00153494
-0.000138235
-0.00156382
-3.72287e-06
-0.00158736
8.83895e-05
-0.00160332
0.000144841
-0.00160599
0.000147538
-0.00160288
0.000122786
-0.00159696
7.95847e-05
-0.00159284
4.76852e-05
-0.00159013
2.26257e-05
-0.0015892
1.07831e-05
-0.00158862
1.36198e-06
-0.00158819
-3.19877e-06
-0.00158732
-9.7404e-06
-0.00158559
-1.76361e-05
-0.00158229
-2.95504e-05
-0.00157835
-4.32413e-05
-0.00157391
-5.86146e-05
-0.00156997
-7.25526e-05
-0.00156694
6.11324e-05
7.19023e-05
-0.00192988
8.07629e-05
-0.00193275
8.99574e-05
-0.0019375
9.8819e-05
-0.00194443
0.00010771
-0.0019539
0.000116186
-0.00196603
0.000124456
-0.00198097
0.000132255
-0.00199877
0.000139938
-0.00201956
0.000147431
-0.00204328
0.000155009
-0.00206993
0.000162586
-0.00209937
0.000170351
-0.00213156
0.000178208
-0.00216627
0.000186287
-0.00220331
0.000194481
-0.00224235
0.000202869
-0.00228305
0.000211302
-0.00232502
0.000219959
-0.00236814
0.000228683
-0.00241191
0.000237576
-0.00245611
0.00024647
-0.00250026
0.000255437
-0.00254412
0.000264341
-0.00258734
0.000273202
-0.00262973
0.000281613
-0.00267107
0.00026519
-0.00271134
0.000268699
-0.00268344
0.000274588
-0.00265185
0.000277223
-0.00261619
0.000281272
-0.00257722
0.000282743
-0.00253319
0.000291565
-0.00248547
0.000298628
-0.00243408
0.00030587
-0.00238064
0.000311676
-0.00232453
0.000318933
-0.00226733
0.000324011
-0.00220701
0.000327442
-0.00214592
0.000329643
-0.00208471
0.000331785
-0.00202452
0.000332291
-0.00196501
0.000335158
-0.00190928
0.000342129
-0.00185752
0.000357102
-0.00181091
0.000384747
-0.00176946
0.000429593
-0.00173208
0.00049308
-0.0016953
0.000570631
-0.00165368
0.000651131
-0.0016021
-0.00023536
-0.00153889
-0.000215278
-0.00155049
-0.000207458
-0.0015531
-0.000229354
-0.0015495
-0.000248204
-0.0015421
-0.00029584
-0.00152825
-0.000331699
-0.00151165
-0.000267256
-0.00148815
-0.000215922
-0.00147944
-0.000260622
-0.00147855
-0.000302832
-0.00148021
-0.000191933
-0.0014833
-8.09987e-05
-0.00148395
-0.000156454
-0.0014838
0.000176736
-0.0014948
0.000172716
-0.00149428
0.000199341
-0.00150313
0.000217444
-0.00151516
0.000221175
-0.00153072
0.00019141
-0.00154624
0.000164109
-0.00155441
0.000142421
-0.00155839
0.000121807
-0.00155654
0.000106675
-0.00155284
0.000104065
-0.00154804
0.000131941
-0.00154893
0.00021069
-0.00155746
0.000335134
-0.00156619
0.000469087
-0.00156146
0.00038777
-0.00153733
-0.000216896
-0.00151787
-0.000114697
-0.0015475
1.22446e-05
-0.0015704
9.10608e-05
-0.00158095
0.000141728
-0.00158108
0.000141618
-0.00157525
0.000118668
-0.00156736
7.68687e-05
-0.00156141
4.67537e-05
-0.00155759
2.20482e-05
-0.00155572
1.03591e-05
-0.00155469
4.86728e-07
-0.001554
-4.93057e-06
-0.00155278
-1.3041e-05
-0.00155101
-2.15776e-05
-0.00154827
-3.39848e-05
-0.00154509
-4.71871e-05
-0.00154191
-6.16375e-05
-0.00153943
-7.46024e-05
-0.0015379
6.26174e-05
7.47761e-05
-0.00220503
8.55039e-05
-0.00222019
9.6895e-05
-0.00223673
0.000108283
-0.00225486
0.000119844
-0.00227476
0.000131124
-0.00229651
0.000142255
-0.00232013
0.000153048
-0.00234559
0.000163662
-0.00237274
0.000174074
-0.00240138
0.000184458
-0.00243119
0.000194768
-0.00246189
0.000205061
-0.00249322
0.00021525
-0.00252496
0.000225324
-0.00255695
0.000235182
-0.00258904
0.000244843
-0.00262118
0.000254415
-0.00265327
0.000263739
-0.00268508
0.000272875
-0.0027165
0.000281726
-0.00274736
0.000290335
-0.00277757
0.000298655
-0.00280703
0.000306728
-0.00283569
0.000314547
-0.00286349
0.000321875
-0.0028904
0.000237297
-0.00291643
0.000237112
-0.00286755
0.000238922
-0.00281646
0.000238259
-0.00276286
0.000237235
-0.00270721
0.000235029
-0.00264899
0.00024017
-0.0025889
0.000245187
-0.00252768
0.000249762
-0.00246577
0.000254475
-0.00240276
0.000258614
-0.00233914
0.000262919
-0.00227474
0.000266238
-0.00220993
0.000269452
-0.00214511
0.000272274
-0.00208123
0.000276562
-0.00201909
0.000283401
-0.00195958
0.000295517
-0.00190321
0.000315645
-0.00185052
0.000347374
-0.00180108
0.000392812
-0.0017534
0.000451458
-0.00170419
0.000519048
-0.0016499
0.000587921
-0.00158736
-0.000223759
-0.00151651
-0.000212663
-0.00153001
-0.000211062
-0.00153575
-0.000236756
-0.00153637
-0.000262049
-0.0015323
-0.000312445
-0.00152246
-0.000355197
-0.00150887
-0.000275967
-0.00148883
-0.000216805
-0.00148251
-0.000258962
-0.00148434
-0.000299747
-0.00148883
-0.000191281
-0.00149535
-8.11505e-05
-0.00149801
-0.000145457
-0.00149855
0.00017622
-0.00150862
0.000181568
-0.00150603
0.000211368
-0.00151196
0.000233004
-0.00152044
0.000236699
-0.00153359
0.000199576
-0.00154581
0.000168093
-0.00155192
0.000140572
-0.0015536
0.000118102
-0.00155059
0.000101876
-0.00154641
0.000104957
-0.00154256
0.000140473
-0.00154448
0.000219412
-0.00155091
0.00033041
-0.00155319
0.000444953
-0.00154241
0.000368312
-0.00151797
-0.000187261
-0.00149977
-9.17967e-05
-0.00152833
2.27869e-05
-0.00154898
9.11944e-05
-0.0015566
0.000135896
-0.00155488
0.000133731
-0.00154676
0.00011272
-0.00153741
7.30502e-05
-0.00153
4.4881e-05
-0.00152532
2.10184e-05
-0.00152267
9.66505e-06
-0.00152125
-7.28556e-07
-0.00152015
-6.70545e-06
-0.0015189
-1.5775e-05
-0.00151708
-2.47623e-05
-0.00151485
-3.7162e-05
-0.00151249
-4.96682e-05
-0.0015105
-6.31631e-05
-0.00150928
-7.51671e-05
-0.00150905
7.6339e-05
8.99441e-05
-0.00246107
0.000102037
-0.00248162
0.000115029
-0.00250165
0.00012818
-0.00252141
0.000141594
-0.00254102
0.000154746
-0.00256069
0.000167715
-0.00258049
0.000180197
-0.00260054
0.0001923
-0.0026208
0.000203889
-0.00264131
0.00021516
-0.00266195
0.000226099
-0.00268264
0.000236801
-0.00270323
0.000247231
-0.00272369
0.000257418
-0.00274396
0.000267321
-0.00276405
0.000276938
-0.00278391
0.000286223
-0.00280357
0.000295156
-0.00282301
0.000303733
-0.00284226
0.000311938
-0.00286134
0.000319798
-0.00288028
0.000327312
-0.00289913
0.000334528
-0.00291792
0.000341463
-0.00293669
0.000347897
-0.00295546
0.000188424
-0.00297428
0.00018602
-0.00291956
0.000185318
-0.00286327
0.000182613
-0.00280591
0.000179011
-0.00274666
0.000174943
-0.00268633
0.000178954
-0.00262389
0.00018327
-0.00256132
0.000186757
-0.0024978
0.000190855
-0.00243421
0.000194215
-0.0023698
0.000198111
-0.00230536
0.000201415
-0.00224044
0.000205569
-0.00217588
0.000210135
-0.00211167
0.000217052
-0.00204875
0.000227032
-0.00198736
0.000242823
-0.00192815
0.000266213
-0.00187108
0.000299691
-0.00181556
0.000343606
-0.00175984
0.000397168
-0.00170175
0.000456503
-0.00163885
0.000517072
-0.0015692
-0.000210259
-0.0014933
-0.00020692
-0.00150835
-0.00021045
-0.00151721
-0.000240824
-0.00152149
-0.000271882
-0.00152087
-0.000326038
-0.00151474
-0.000375242
-0.00150416
-0.000282279
-0.0014873
-0.000214976
-0.00148328
-0.000254473
-0.00148763
-0.000293223
-0.00149468
-0.000188623
-0.00150403
-8.06127e-05
-0.00150823
-0.000135385
-0.00150904
0.000173626
-0.00151814
0.000187497
-0.00151336
0.000219846
-0.00151611
0.00024616
-0.00152176
0.000248912
-0.00153229
0.000205686
-0.00154162
0.00016978
-0.00154573
0.00013756
-0.00154553
0.000113924
-0.00154184
9.8023e-05
-0.00153777
0.000106879
-0.00153504
0.0001469
-0.00153702
0.000221691
-0.00153999
0.000319634
-0.00153711
0.00042051
-0.00152304
0.000350109
-0.00149861
-0.000158698
-0.00148075
-7.11439e-05
-0.00150726
3.04e-05
-0.00152518
8.94783e-05
-0.00153029
0.000127775
-0.00152701
0.000124379
-0.00151731
0.000105312
-0.00150697
6.83729e-05
-0.0014985
4.22272e-05
-0.00149317
1.95951e-05
-0.00148985
8.5719e-06
-0.00148808
-1.98153e-06
-0.00148668
-8.52227e-06
-0.00148537
-1.80101e-05
-0.00148373
-2.71183e-05
-0.00148207
-3.91581e-05
-0.00148052
-5.08855e-05
-0.00147959
-6.33973e-05
-0.00147946
-7.44626e-05
-0.00148034
9.68913e-05
0.000110493
-0.0026161
0.000122069
-0.00263522
0.000134789
-0.00265231
0.000147786
-0.00266758
0.000161268
-0.00268126
0.000174542
-0.0026937
0.000187764
-0.00270517
0.000200459
-0.00271601
0.000212809
-0.00272642
0.000224536
-0.00273663
0.000235845
-0.00274672
0.000246688
-0.00275678
0.000257265
-0.00276675
0.000267503
-0.00277668
0.000277501
-0.00278669
0.000287186
-0.002797
0.000296592
-0.0028075
0.000305668
-0.0028184
0.000314411
-0.00282967
0.000322808
-0.00284138
0.00033088
-0.00285344
0.000338648
-0.00286616
0.0003461
-0.00287941
0.000353296
-0.00289336
0.000360233
-0.00290791
0.00036672
-0.00292315
0.000133701
-0.00293903
0.000129734
-0.00288608
0.000127959
-0.00283183
0.00012336
-0.00277693
0.00011868
-0.00272048
0.000112504
-0.0026631
0.000116384
-0.00260389
0.000119755
-0.00254445
0.000123163
-0.00248412
0.000126446
-0.00242351
0.000129777
-0.00236213
0.000133185
-0.00230051
0.000136854
-0.00223832
0.000141362
-0.00217615
0.000147216
-0.00211389
0.000155666
-0.00205219
0.000167817
-0.00199113
0.00018576
-0.00193118
0.000210684
-0.00187175
0.000243975
-0.00181237
0.000285517
-0.00175166
0.000334263
-0.00168835
0.000386852
-0.00162068
0.000441179
-0.00154753
-0.000195209
-0.00146932
-0.000198065
-0.0014858
-0.000206165
-0.00149767
-0.00024145
-0.00150531
-0.000278013
-0.00150823
-0.000336617
-0.00150561
-0.000392104
-0.00149808
-0.000286296
-0.00148424
-0.000210625
-0.00148248
-0.000247429
-0.00148927
-0.000283868
-0.00149871
-0.000184422
-0.00151059
-7.98069e-05
-0.0015161
-0.000126286
-0.00151708
0.00016885
-0.00152512
0.000190246
-0.0015181
0.000225497
-0.00151746
0.000256691
-0.00152058
0.000258236
-0.00152832
0.000209801
-0.00153508
0.000169579
-0.00153723
0.000133867
-0.00153544
0.000109857
-0.00153124
9.52875e-05
-0.0015273
0.00010886
-0.00152516
0.000149874
-0.00152633
0.000218808
-0.00152583
0.00030557
-0.00151903
0.000396078
-0.00150303
0.000332247
-0.00147833
-0.000132187
-0.00145998
-5.32205e-05
-0.00148407
3.55082e-05
-0.00149953
8.61936e-05
-0.00150289
0.000118081
-0.00149831
0.000114042
-0.00148747
9.68384e-05
-0.00147634
6.30377e-05
-0.00146707
3.89135e-05
-0.0014612
1.7819e-05
-0.00145735
7.17626e-06
-0.00145526
-3.28835e-06
-0.00145364
-1.01624e-05
-0.00145234
-1.96768e-05
-0.00145095
-2.86654e-05
-0.00144987
-4.00896e-05
-0.00144908
-5.10116e-05
-0.00144909
-6.25176e-05
-0.00144992
-7.26698e-05
-0.00145176
0.000117463
0.000129607
-0.00265775
0.00013916
-0.00267367
0.000150056
-0.00268683
0.00016147
-0.0026973
0.000173706
-0.00270534
0.000186016
-0.00271131
0.000198603
-0.00271565
0.000210869
-0.00271883
0.000223015
-0.00272129
0.000234627
-0.00272343
0.000245912
-0.00272554
0.000256655
-0.00272786
0.000267198
-0.00273049
0.000277509
-0.00273343
0.000287809
-0.00273683
0.000297685
-0.00274053
0.000307498
-0.00274474
0.000316933
-0.00274955
0.00032612
-0.00275508
0.000334872
-0.00276144
0.000343596
-0.00276869
0.000351902
-0.00277692
0.000360048
-0.00278622
0.000367847
-0.00279657
0.000375473
-0.00280796
0.0003826
-0.00282038
8.07587e-05
-0.00283378
7.54776e-05
-0.00278568
7.30658e-05
-0.0027366
6.69021e-05
-0.00268721
6.13053e-05
-0.0026367
5.32907e-05
-0.00258537
5.69421e-05
-0.00253277
5.943e-05
-0.00247957
6.25533e-05
-0.00242551
6.50598e-05
-0.00237083
6.81601e-05
-0.00231535
7.10006e-05
-0.0022593
7.46791e-05
-0.00220253
7.91023e-05
-0.00214531
8.55204e-05
-0.00208749
9.45997e-05
-0.00202936
0.000107872
-0.00197077
0.00012633
-0.00191193
0.000151297
-0.00185239
0.000183271
-0.00179188
0.000222206
-0.00172948
0.00026659
-0.00166438
0.000313699
-0.00159555
0.000362971
-0.00152232
-0.000178728
-0.00144451
-0.000186194
-0.00146229
-0.000198522
-0.00147706
-0.000238535
-0.00148791
-0.000280632
-0.00149446
-0.000344141
-0.00149531
-0.000405949
-0.00149092
-0.000288052
-0.00147999
-0.000203841
-0.00148052
-0.000237983
-0.00148965
-0.00027199
-0.00150139
-0.000178906
-0.00151557
-7.88284e-05
-0.00152235
-0.000118244
-0.0015235
0.000161828
-0.00153026
0.000189603
-0.00152059
0.000228617
-0.00151671
0.000264435
-0.00151739
0.000264997
-0.00152228
0.000211948
-0.00152663
0.00016779
-0.00152683
0.000129668
-0.00152369
0.000105913
-0.00151912
9.31495e-05
-0.00151529
0.000110033
-0.00151328
0.00014937
-0.00151304
0.000212007
-0.00150915
0.000289575
-0.00149953
0.000371379
-0.00148218
0.000313895
-0.00145689
-0.000108099
-0.00143766
-3.77639e-05
-0.00145919
3.88759e-05
-0.00147239
8.16062e-05
-0.00147436
0.000107245
-0.00146876
0.000102911
-0.00145716
8.75721e-05
-0.00144546
5.71612e-05
-0.00143566
3.50688e-05
-0.00142935
1.57313e-05
-0.00142511
5.55263e-06
-0.00142277
-4.58837e-06
-0.00142101
-1.15503e-05
-0.00141982
-2.07597e-05
-0.00141874
-2.94493e-05
-0.00141822
-4.00844e-05
-0.00141815
-5.0183e-05
-0.00141897
-6.06722e-05
-0.00142063
-6.99377e-05
-0.0014233
0.000135554
0.000145525
-0.00261707
0.000152321
-0.00263022
0.000160521
-0.0026406
0.000169517
-0.00264811
0.000179671
-0.00265284
0.000190361
-0.00265499
0.000201777
-0.00265495
0.000213334
-0.00265317
0.000225147
-0.00265021
0.000236735
-0.00264656
0.000248234
-0.00264273
0.000259283
-0.00263908
0.000270144
-0.00263593
0.000280909
-0.00263329
0.00029151
-0.00263102
0.000301891
-0.00262899
0.000312308
-0.00262752
0.000322468
-0.00262659
0.000332478
-0.0026265
0.000342117
-0.00262743
0.000351827
-0.00262975
0.0003612
-0.0026333
0.000370401
-0.00263832
0.000379239
-0.00264468
0.000387889
-0.00265248
0.000396002
-0.00266161
3.26642e-05
-0.00267207
2.63971e-05
-0.00263078
2.36726e-05
-0.00258845
1.63913e-05
-0.00254649
9.97848e-06
-0.00250347
6.91305e-07
-0.00245993
3.73417e-06
-0.0024148
5.37686e-06
-0.0023697
7.87527e-06
-0.00232401
9.57369e-06
-0.00227772
1.21138e-05
-0.00223057
1.42284e-05
-0.00218267
1.74628e-05
-0.00213374
2.12836e-05
-0.00208383
2.73836e-05
-0.00203261
3.60169e-05
-0.00198011
4.90309e-05
-0.00192615
6.67885e-05
-0.0018711
9.07804e-05
-0.00181439
0.000120878
-0.0017555
0.000157103
-0.00169431
0.00019776
-0.00163061
0.000240466
-0.00156378
0.000285163
-0.0014936
-0.000160949
-0.00141889
-0.000171416
-0.00143778
-0.000187677
-0.00145528
-0.000231981
-0.00146926
-0.000279789
-0.00147955
-0.000348532
-0.00148393
-0.00041687
-0.00148278
-0.000287527
-0.00147476
-0.000194714
-0.00147757
-0.000226244
-0.00148894
-0.000257803
-0.00150285
-0.000172127
-0.00151922
-7.7678e-05
-0.00152731
-0.000111484
-0.00152881
0.000152159
-0.00153429
0.000185716
-0.00152169
0.000229298
-0.00151445
0.000269326
-0.00151259
0.000269352
-0.0015146
0.00021214
-0.00151661
0.000164657
-0.0015149
0.000125096
-0.00151058
0.000102086
-0.00150563
9.11311e-05
-0.00150171
0.000109797
-0.00149926