/*--------------------------------*- C++ -*----------------------------------*\
  =========                 |
  \\      /  F ield         | OpenFOAM: The Open Source CFD Toolbox
   \\    /   O peration     | Website:  https://openfoam.org
    \\  /    A nd           | Version:  7
     \\/     M anipulation  |
\*---------------------------------------------------------------------------*/
FoamFile
{
    version     2.0;
    format      ascii;
    class       volVectorField;
    location    "0.145";
    object      U;
}
// * * * * * * * * * * * * * * * * * * * * * * * * * * * * * * * * * * * * * //

dimensions      [0 1 -1 0 0 0 0];

internalField   nonuniform List<vector> 
48560
(
(221.948 -5.36777 -4.90695e-11)
(221.757 -6.19697 -5.89015e-11)
(221.587 -7.02837 -7.81698e-11)
(221.44 -7.84038 -1.00132e-10)
(221.307 -8.63329 -1.31225e-10)
(221.188 -9.40124 -1.65928e-10)
(221.076 -10.147 -2.09119e-10)
(220.97 -10.8665 -2.55727e-10)
(220.868 -11.5639 -3.09344e-10)
(220.768 -12.2366 -3.65515e-10)
(220.668 -12.8903 -4.26019e-10)
(220.567 -13.5233 -4.87271e-10)
(220.464 -14.1407 -5.49536e-10)
(220.357 -14.7412 -6.0984e-10)
(220.245 -15.3284 -6.66309e-10)
(220.126 -15.9005 -7.17102e-10)
(219.998 -16.4603 -7.58935e-10)
(219.859 -17.0061 -7.89889e-10)
(219.706 -17.5399 -8.06856e-10)
(219.537 -18.0609 -8.07825e-10)
(219.348 -18.5705 -7.89959e-10)
(219.136 -19.0684 -7.51133e-10)
(218.896 -19.555 -6.89713e-10)
(218.623 -20.0296 -6.02828e-10)
(218.314 -20.4915 -4.9288e-10)
(217.961 -20.9396 -3.56743e-10)
(217.561 -21.3724 -1.98018e-10)
(217.042 -21.8648 1.70561e-11)
(216.289 -22.4138 3.11526e-10)
(215.395 -22.9119 5.96093e-10)
(214.309 -23.3846 8.82255e-10)
(212.965 -23.8067 1.16002e-09)
(211.284 -24.1916 1.37832e-09)
(209.083 -24.5151 1.53883e-09)
(206.06 -24.7615 1.44293e-09)
(202.494 -24.8963 1.19456e-09)
(198.255 -24.8756 5.65323e-10)
(193.605 -24.746 -1.40184e-10)
(188.79 -24.4531 -1.37806e-09)
(184.857 -24.0504 -2.54084e-09)
(180.813 -23.2554 -4.16584e-09)
(176.737 -22.6197 -4.55075e-09)
(172.88 -21.453 -5.91396e-09)
(169.15 -20.0218 -6.40541e-09)
(165.807 -18.713 -7.02794e-09)
(165.084 -16.0969 -9.50565e-09)
(171.772 -12.2476 -1.25241e-08)
(191.391 -6.88452 -1.71192e-08)
(221.311 -4.08035 -2.21835e-08)
(250.056 -7.78869 -2.61627e-08)
(271.686 -31.4682 -2.92625e-08)
(263.864 -74.1571 -3.08643e-08)
(229.269 -57.6506 -2.97287e-08)
(214.681 -60.785 -2.98149e-08)
(195.662 -51.6236 -2.92094e-08)
(183.878 -51.0943 -2.92487e-08)
(165.481 -43.5363 -2.86461e-08)
(153.75 -41.3576 -2.86606e-08)
(133.696 -34.3428 -2.80031e-08)
(121.444 -31.2416 -2.80412e-08)
(99.3226 -24.1236 -2.73122e-08)
(85.6832 -20.417 -2.73078e-08)
(66.0753 -11.0081 -2.64251e-08)
(66.3463 -8.54312 -2.67594e-08)
(55.7813 -5.57966 -2.62878e-08)
(52.6452 1.12768 -2.60739e-08)
(56.5747 2.2247 -2.63179e-08)
(58.8228 4.44236 -2.65356e-08)
(60.5567 6.50868 -2.67412e-08)
(63.5756 8.64361 -2.70254e-08)
(67.9237 11.4707 -2.74351e-08)
(73.4448 14.9745 -2.78839e-08)
(80.3088 19.2409 -2.83874e-08)
(88.73 24.4694 -2.89282e-08)
(98.9291 30.8338 -2.95113e-08)
(111.36 38.4929 -3.01214e-08)
(127.427 48.2366 -3.07971e-08)
(149.439 61.6849 -3.15085e-08)
(182.285 78.9864 -3.22218e-08)
(220.441 84.7197 -3.28704e-08)
(259.689 66.492 -3.37742e-08)
(254.786 60.4473 -3.40218e-08)
(246.368 53.3836 -3.43874e-08)
(251.803 56.0634 -3.43965e-08)
(256.212 56.6906 -3.46411e-08)
(267.566 53.7093 -3.53868e-08)
(271.759 43.0845 -3.55567e-08)
(275.783 36.6796 -3.59248e-08)
(275.79 26.9355 -3.60925e-08)
(275.43 19.8337 -3.63777e-08)
(273.263 14.3847 -3.64782e-08)
(270.017 8.44321 -3.66556e-08)
(266.521 3.74695 -3.68046e-08)
(263.136 -0.00116634 -3.69448e-08)
(260.008 -3.04811 -3.70514e-08)
(257.305 -5.51271 -3.71566e-08)
(255.075 -7.47895 -3.72366e-08)
(253.411 -8.90356 -3.73e-08)
(252.353 -9.71777 -3.73457e-08)
(252.112 -9.95824 -3.73695e-08)
(221.193 -5.08794 -5.89795e-10)
(221.011 -5.94577 -6.17997e-10)
(220.843 -6.80034 -6.46857e-10)
(220.708 -7.64514 -6.73461e-10)
(220.579 -8.46262 -6.99083e-10)
(220.468 -9.26025 -7.18665e-10)
(220.358 -10.0284 -7.35789e-10)
(220.252 -10.7749 -7.431e-10)
(220.142 -11.4973 -7.45647e-10)
(220.029 -12.2044 -7.34555e-10)
(219.91 -12.8958 -7.18494e-10)
(219.784 -13.5731 -6.87732e-10)
(219.648 -14.235 -6.4753e-10)
(219.5 -14.8798 -5.90189e-10)
(219.337 -15.507 -5.19758e-10)
(219.156 -16.1141 -4.31297e-10)
(218.955 -16.7021 -3.28209e-10)
(218.73 -17.2693 -2.08709e-10)
(218.479 -17.8191 -7.6821e-11)
(218.199 -18.3516 6.61407e-11)
(217.884 -18.8698 2.22276e-10)
(217.53 -19.3712 3.86015e-10)
(217.129 -19.8553 5.59985e-10)
(216.673 -20.3192 7.35529e-10)
(216.148 -20.7628 9.1752e-10)
(215.539 -21.1841 1.09066e-09)
(214.828 -21.5814 1.2576e-09)
(213.85 -22.0214 1.41494e-09)
(212.236 -22.4905 1.51303e-09)
(210.28 -22.9014 1.40491e-09)
(208.021 -23.2593 1.20326e-09)
(205.37 -23.5389 6.85038e-10)
(202.473 -23.7666 1.11453e-10)
(199.348 -23.9086 -9.01452e-10)
(196.474 -23.9688 -1.93649e-09)
(193.658 -23.8484 -3.34179e-09)
(191.148 -23.7678 -3.79558e-09)
(188.659 -23.5226 -5.07395e-09)
(186.655 -23.2635 -5.8986e-09)
(184.848 -22.7267 -6.77071e-09)
(183.409 -22.2536 -7.20742e-09)
(183.044 -21.7385 -8.15537e-09)
(184.919 -20.8172 -1.09419e-08)
(190.629 -20.8876 -1.25651e-08)
(204.551 -21.4822 -1.69176e-08)
(229.837 -22.8102 -2.20618e-08)
(255.638 -23.8668 -2.63494e-08)
(277.808 -24.7592 -2.9626e-08)
(288.945 -26.5141 -3.10004e-08)
(295.841 -34.6625 -3.23931e-08)
(287.449 -53.5423 -3.27542e-08)
(275.131 -72.0741 -3.32457e-08)
(246.997 -67.1274 -3.26846e-08)
(235.294 -67.3323 -3.26013e-08)
(216.33 -61.472 -3.22361e-08)
(206.916 -58.394 -3.20994e-08)
(189.502 -52.649 -3.17874e-08)
(179.974 -48.589 -3.15823e-08)
(162.665 -42.4782 -3.12967e-08)
(152.775 -37.7518 -3.10362e-08)
(136.166 -31.2762 -3.07783e-08)
(125.728 -26.056 -3.03937e-08)
(113.384 -16.8047 -3.00705e-08)
(111.847 -12.2643 -2.98508e-08)
(107.958 -6.68252 -2.9856e-08)
(105.468 1.30449 -2.93717e-08)
(111.121 3.49158 -2.98206e-08)
(113.938 8.65579 -2.99016e-08)
(116.835 11.7532 -3.01492e-08)
(121.023 15.5199 -3.03247e-08)
(124.798 18.9556 -3.06285e-08)
(130.436 23.1842 -3.08753e-08)
(135.909 27.5026 -3.12292e-08)
(143.594 32.9526 -3.15409e-08)
(151.846 39.1091 -3.19468e-08)
(163.024 46.951 -3.23268e-08)
(176.868 56.9038 -3.2806e-08)
(197.31 71.479 -3.32763e-08)
(221.301 90.2733 -3.38532e-08)
(241.908 94.6582 -3.44578e-08)
(258.387 73.9818 -3.50288e-08)
(263.721 63.9366 -3.55064e-08)
(266.057 61.5187 -3.57049e-08)
(270.263 62.6657 -3.6161e-08)
(272.857 63.4661 -3.59428e-08)
(275.839 59.6065 -3.69406e-08)
(277.533 51.0351 -3.65126e-08)
(279.534 43.4011 -3.72388e-08)
(278.851 33.3397 -3.68527e-08)
(278.005 24.7954 -3.7572e-08)
(274.971 16.7012 -3.71521e-08)
(272.279 10.845 -3.76951e-08)
(268.296 5.71674 -3.7367e-08)
(265.214 1.9854 -3.776e-08)
(261.552 -1.19583 -3.74903e-08)
(258.961 -3.59794 -3.77635e-08)
(256.277 -5.6709 -3.75498e-08)
(254.712 -7.14225 -3.77099e-08)
(253.724 -7.74749 -3.76011e-08)
(253.359 -7.93817 -3.76234e-08)
(219.99 -4.7996 -1.82286e-10)
(219.795 -5.7113 -1.57142e-10)
(219.579 -6.62105 -1.03969e-10)
(219.426 -7.5254 -6.27738e-11)
(219.248 -8.39305 3.85896e-12)
(219.11 -9.24216 6.17311e-11)
(218.94 -10.0545 1.41786e-10)
(218.79 -10.8542 2.16532e-10)
(218.606 -11.6305 3.09362e-10)
(218.426 -12.3961 3.99051e-10)
(218.21 -13.1356 5.04725e-10)
(217.984 -13.8554 6.10705e-10)
(217.719 -14.5414 7.26643e-10)
(217.432 -15.199 8.41164e-10)
(217.096 -15.8191 9.56866e-10)
(216.715 -16.4094 1.06483e-09)
(216.265 -16.9672 1.16014e-09)
(215.734 -17.502 1.23308e-09)
(215.089 -18.0149 1.26625e-09)
(214.399 -18.5117 1.28294e-09)
(213.613 -18.9919 1.25252e-09)
(212.772 -19.4574 1.18924e-09)
(211.836 -19.9046 1.06278e-09)
(210.831 -20.3305 9.20454e-10)
(209.732 -20.7366 6.76569e-10)
(208.562 -21.1166 4.14082e-10)
(207.318 -21.4732 2.75185e-11)
(205.835 -21.8559 -4.54937e-10)
(203.896 -22.2597 -1.32136e-09)
(202.311 -22.6013 -2.15656e-09)
(200.522 -22.8638 -3.2724e-09)
(199.026 -23.0901 -3.59863e-09)
(197.416 -23.2614 -4.62383e-09)
(196.139 -23.3987 -5.19828e-09)
(194.947 -23.4173 -5.95207e-09)
(193.891 -23.3378 -6.42752e-09)
(193.276 -23.1708 -7.12895e-09)
(193.119 -22.9855 -8.07671e-09)
(194.533 -22.8286 -1.00621e-08)
(197.557 -23.0408 -1.1223e-08)
(204.159 -23.6031 -1.37618e-08)
(215.887 -24.7031 -1.696e-08)
(233.748 -26.1254 -2.12586e-08)
(253.36 -27.6655 -2.46794e-08)
(273.414 -28.0492 -2.86308e-08)
(287.787 -27.1179 -3.0337e-08)
(299.474 -26.4187 -3.21808e-08)
(305.308 -27.0856 -3.26758e-08)
(307.594 -31.1716 -3.32164e-08)
(303.599 -41.4126 -3.32821e-08)
(292.418 -57.7442 -3.32465e-08)
(276.518 -68.0654 -3.30857e-08)
(256.592 -61.96 -3.29086e-08)
(244.507 -65.3499 -3.26544e-08)
(227.863 -57.5582 -3.24963e-08)
(217.675 -57.0995 -3.22078e-08)
(202.677 -49.8137 -3.2087e-08)
(192.626 -47.5255 -3.17756e-08)
(178.162 -40.712 -3.16927e-08)
(168.183 -37.2399 -3.13598e-08)
(155.111 -30.7833 -3.13104e-08)
(145.973 -26.3742 -3.09587e-08)
(137.71 -18.2056 -3.09181e-08)
(136.059 -13.8375 -3.06468e-08)
(135.387 -5.90469 -3.07412e-08)
(132.909 0.995014 -3.04462e-08)
(138.64 4.57927 -3.07971e-08)
(139.529 10.9696 -3.0739e-08)
(143.233 14.6249 -3.10262e-08)
(145.455 19.6312 -3.10698e-08)
(149.132 23.9291 -3.13807e-08)
(152.45 28.994 -3.15092e-08)
(156.904 34.1491 -3.18516e-08)
(162.028 40.1001 -3.20635e-08)
(168.646 46.709 -3.24543e-08)
(177.393 54.5429 -3.27605e-08)
(189.893 64.2627 -3.32307e-08)
(208.61 76.2672 -3.36611e-08)
(232.075 84.8544 -3.42152e-08)
(250.996 79.659 -3.46685e-08)
(260.317 67.7104 -3.50186e-08)
(265.186 63.5585 -3.52875e-08)
(267.593 61.0896 -3.55839e-08)
(272.031 59.6339 -3.61039e-08)
(274.946 55.1727 -3.59272e-08)
(277.793 48.568 -3.67524e-08)
(278.733 41.1951 -3.62566e-08)
(280.056 33.9935 -3.69676e-08)
(278.899 26.4906 -3.65775e-08)
(277.593 20.1403 -3.7101e-08)
(274.456 14.266 -3.68307e-08)
(271.704 9.30767 -3.7196e-08)
(267.975 5.10045 -3.69811e-08)
(264.962 1.73823 -3.72381e-08)
(261.557 -1.00204 -3.70589e-08)
(258.988 -3.0732 -3.72325e-08)
(256.461 -4.57348 -3.70828e-08)
(254.881 -5.47512 -3.71858e-08)
(253.926 -5.77581 -3.71107e-08)
(253.57 -5.88516 -3.7123e-08)
(216.945 -4.5161 6.05776e-10)
(216.669 -5.45261 6.6246e-10)
(216.273 -6.37383 6.72694e-10)
(216.014 -7.29303 7.05807e-10)
(215.634 -8.16745 7.03853e-10)
(215.345 -9.02765 7.07467e-10)
(214.931 -9.84967 6.85286e-10)
(214.57 -10.6653 6.52614e-10)
(214.094 -11.4558 5.99613e-10)
(213.659 -12.2358 5.21338e-10)
(213.126 -12.9854 4.23722e-10)
(212.62 -13.7173 2.87826e-10)
(212.03 -14.4179 1.30121e-10)
(211.456 -15.0985 -7.60035e-11)
(210.813 -15.75 -3.07853e-10)
(210.181 -16.3815 -5.93662e-10)
(209.506 -16.9859 -9.05475e-10)
(208.86 -17.5686 -1.26663e-09)
(208.225 -18.1218 -1.63997e-09)
(207.586 -18.6475 -2.07182e-09)
(206.953 -19.1413 -2.52609e-09)
(206.34 -19.6068 -3.03173e-09)
(205.715 -20.0195 -3.16406e-09)
(205.105 -20.4334 -3.64157e-09)
(204.495 -20.8072 -3.87707e-09)
(203.911 -21.1732 -4.33789e-09)
(203.344 -21.5008 -4.63937e-09)
(202.739 -21.8598 -5.14684e-09)
(202.046 -22.2178 -5.65405e-09)
(201.516 -22.5038 -6.11799e-09)
(200.994 -22.6711 -6.40313e-09)
(200.721 -22.7675 -6.943e-09)
(200.623 -22.8607 -7.70082e-09)
(201.337 -23.065 -9.16575e-09)
(202.72 -23.2559 -9.89148e-09)
(205.364 -23.7415 -1.14595e-08)
(209.959 -24.5071 -1.31918e-08)
(217.064 -25.7167 -1.55848e-08)
(229.133 -27.4876 -1.87423e-08)
(242.038 -29.3752 -2.15393e-08)
(258.049 -31.3144 -2.50948e-08)
(272.304 -32.602 -2.75566e-08)
(285.722 -33.2319 -2.99961e-08)
(296.954 -33.4716 -3.1438e-08)
(305.756 -33.1009 -3.28287e-08)
(311.081 -32.9127 -3.3033e-08)
(314.261 -33.5221 -3.36208e-08)
(315.31 -35.981 -3.3418e-08)
(312.89 -41.2704 -3.35978e-08)
(306.177 -50.7481 -3.32318e-08)
(294.206 -61.8916 -3.31142e-08)
(279.336 -67.2207 -3.25974e-08)
(262.275 -65.1722 -3.28107e-08)
(249.867 -65.1665 -3.22638e-08)
(235.469 -59.8278 -3.24099e-08)
(224.749 -57.4533 -3.19129e-08)
(211.732 -51.4211 -3.20322e-08)
(201.411 -47.8927 -3.15928e-08)
(189.023 -41.7755 -3.17075e-08)
(179.179 -37.4837 -3.12991e-08)
(168.46 -31.2252 -3.14028e-08)
(160.276 -25.9414 -3.10502e-08)
(154.009 -18.3002 -3.11597e-08)
(152.301 -12.9599 -3.0869e-08)
(152.213 -5.0376 -3.10203e-08)
(150.306 0.59622 -3.08247e-08)
(154.922 5.91014 -3.10608e-08)
(154.343 11.8018 -3.09807e-08)
(158.262 16.0943 -3.12379e-08)
(158.94 21.0267 -3.12465e-08)
(162.825 25.4656 -3.15295e-08)
(164.794 30.3338 -3.16218e-08)
(169.395 35.4427 -3.19368e-08)
(173.53 41.0823 -3.21162e-08)
(180.515 47.6158 -3.24798e-08)
(189.03 55.3924 -3.27579e-08)
(202.267 65.3124 -3.31943e-08)
(219.259 76.2533 -3.35782e-08)
(237.755 81.7575 -3.40776e-08)
(252.199 74.5075 -3.44197e-08)
(260.429 66.6996 -3.46219e-08)
(265.766 64.3273 -3.48229e-08)
(269.16 61.9006 -3.53332e-08)
(272.983 59.8103 -3.54108e-08)
(274.784 54.6562 -3.56421e-08)
(276.836 47.8173 -3.59801e-08)
(277.628 41.2826 -3.58968e-08)
(278.355 34.4167 -3.62119e-08)
(277.297 27.511 -3.61264e-08)
(275.953 21.1935 -3.63755e-08)
(273.187 15.3352 -3.62466e-08)
(270.511 10.5055 -3.64986e-08)
(267.077 6.3556 -3.6358e-08)
(264.134 3.06835 -3.65323e-08)
(260.949 0.376961 -3.64073e-08)
(258.489 -1.65744 -3.65251e-08)
(256.193 -3.03843 -3.64161e-08)
(254.762 -3.74221 -3.64813e-08)
(253.939 -3.9057 -3.64215e-08)
(253.624 -3.94779 -3.64363e-08)
(212.16 -3.91966 -2.46631e-09)
(211.789 -4.85688 -2.47468e-09)
(211.387 -5.7619 -2.76178e-09)
(211.094 -6.73365 -2.68558e-09)
(210.754 -7.63236 -2.94943e-09)
(210.49 -8.56937 -2.94931e-09)
(210.161 -9.44522 -3.20413e-09)
(209.889 -10.3468 -3.26887e-09)
(209.562 -11.1987 -3.52423e-09)
(209.295 -12.0655 -3.64414e-09)
(208.985 -12.8887 -3.90598e-09)
(208.734 -13.7159 -4.07156e-09)
(208.451 -14.501 -4.3403e-09)
(208.223 -15.2778 -4.53996e-09)
(207.97 -16.0086 -4.81084e-09)
(207.767 -16.7155 -5.02919e-09)
(207.548 -17.3661 -5.2908e-09)
(207.371 -17.9735 -5.50767e-09)
(207.178 -18.5128 -5.74323e-09)
(207.011 -18.9998 -5.93534e-09)
(206.824 -19.423 -6.11903e-09)
(206.641 -19.8027 -6.24967e-09)
(206.517 -20.1634 -6.73717e-09)
(206.488 -20.488 -7.04794e-09)
(206.555 -20.7975 -7.51285e-09)
(206.758 -21.0909 -7.94419e-09)
(207.103 -21.3865 -8.43507e-09)
(207.719 -21.7475 -9.04597e-09)
(208.716 -22.1503 -9.81254e-09)
(210.386 -22.6404 -1.07323e-08)
(212.694 -23.2256 -1.18385e-08)
(216.167 -24.0196 -1.32868e-08)
(220.889 -25.0413 -1.49548e-08)
(227.919 -26.4078 -1.70904e-08)
(236.385 -28.0221 -1.92059e-08)
(246.404 -29.9173 -2.18134e-08)
(257.473 -31.8513 -2.41578e-08)
(268.783 -33.6124 -2.66042e-08)
(278.807 -34.7607 -2.83546e-08)
(289.198 -35.8188 -3.02321e-08)
(298.058 -36.4025 -3.15786e-08)
(305.613 -36.7806 -3.25834e-08)
(311.617 -36.7855 -3.33144e-08)
(315.959 -36.6576 -3.36001e-08)
(318.8 -36.5513 -3.38535e-08)
(320.299 -37.0857 -3.3689e-08)
(320.672 -38.5032 -3.3772e-08)
(319.102 -41.5323 -3.33974e-08)
(314.9 -47.394 -3.33898e-08)
(307.007 -55.6093 -3.28817e-08)
(295.353 -63.4395 -3.26922e-08)
(281.702 -66.2217 -3.20215e-08)
(266.447 -64.8273 -3.23873e-08)
(254.173 -64.14 -3.17454e-08)
(241.133 -59.1637 -3.20112e-08)
(230.155 -56.7096 -3.14596e-08)
(218.416 -50.6664 -3.16696e-08)
(207.931 -47.1978 -3.12205e-08)
(196.804 -40.9442 -3.14065e-08)
(187.069 -36.6866 -3.10102e-08)
(177.686 -30.2192 -3.11581e-08)
(170.218 -24.9366 -3.08591e-08)
(165.122 -17.4567 -3.10178e-08)
(163.387 -11.6318 -3.076e-08)
(163.211 -4.12556 -3.09125e-08)
(162.016 1.0101 -3.07993e-08)
(165.117 7.60495 -3.09066e-08)
(164.316 12.9174 -3.08753e-08)
(167.501 18.063 -3.10381e-08)
(167.696 23.0784 -3.10692e-08)
(171.112 27.9678 -3.12786e-08)
(172.539 33.0226 -3.13833e-08)
(176.9 38.3655 -3.16489e-08)
(180.617 44.1488 -3.18375e-08)
(187.63 50.8065 -3.21669e-08)
(196.042 58.4528 -3.24487e-08)
(209.381 67.3726 -3.28588e-08)
(225.223 75.0112 -3.32332e-08)
(241.657 76.2751 -3.36492e-08)
(252.951 70.3997 -3.38962e-08)
(260.631 65.523 -3.40174e-08)
(266.074 62.6768 -3.40904e-08)
(269.843 59.9258 -3.49633e-08)
(273.195 55.7459 -3.47329e-08)
(274.783 49.9371 -3.51965e-08)
(276.234 43.6947 -3.53661e-08)
(276.769 37.6642 -3.53608e-08)
(276.97 31.1405 -3.54357e-08)
(275.795 25.2207 -3.54836e-08)
(274.215 19.5076 -3.55988e-08)
(271.656 14.5163 -3.55214e-08)
(269.066 10.0867 -3.56991e-08)
(265.979 6.44387 -3.5615e-08)
(263.178 3.43752 -3.57344e-08)
(260.286 1.14874 -3.56457e-08)
(257.948 -0.526156 -3.57155e-08)
(255.909 -1.57928 -3.56359e-08)
(254.633 -2.11049 -3.56759e-08)
(253.925 -2.22352 -3.56322e-08)
(253.652 -2.25173 -3.56485e-08)
(212.225 -3.32323 -5.77466e-09)
(211.796 -4.30994 -5.81035e-09)
(211.475 -5.33816 -5.80049e-09)
(211.199 -6.3566 -5.97105e-09)
(210.988 -7.37032 -6.0531e-09)
(210.805 -8.36678 -6.21373e-09)
(210.65 -9.33756 -6.36328e-09)
(210.521 -10.2987 -6.53451e-09)
(210.415 -11.2227 -6.73729e-09)
(210.362 -12.1292 -6.93259e-09)
(210.342 -12.986 -7.18055e-09)
(210.396 -13.8156 -7.40949e-09)
(210.496 -14.5885 -7.69968e-09)
(210.689 -15.3298 -7.97059e-09)
(210.944 -16.0178 -8.30505e-09)
(211.314 -16.6798 -8.62711e-09)
(211.766 -17.3019 -9.01366e-09)
(212.353 -17.9085 -9.40048e-09)
(213.049 -18.4856 -9.85688e-09)
(213.923 -19.0597 -1.03409e-08)
(214.973 -19.6272 -1.09153e-08)
(216.296 -20.2149 -1.15626e-08)
(217.898 -20.8259 -1.23188e-08)
(219.861 -21.4757 -1.30826e-08)
(222.273 -22.1799 -1.40096e-08)
(225.258 -22.9602 -1.49916e-08)
(228.961 -23.8495 -1.61791e-08)
(234.332 -25.0551 -1.77131e-08)
(239.48 -26.2805 -1.9189e-08)
(246.61 -27.8684 -2.1045e-08)
(253.446 -29.414 -2.27552e-08)
(261.429 -31.1295 -2.4619e-08)
(269.009 -32.7209 -2.62621e-08)
(276.485 -34.1688 -2.77825e-08)
(283.816 -35.4976 -2.91624e-08)
(291.074 -36.6868 -3.04862e-08)
(297.839 -37.6765 -3.15354e-08)
(303.982 -38.4624 -3.24858e-08)
(309.355 -39.0636 -3.31026e-08)
(314.009 -39.4957 -3.36874e-08)
(317.655 -39.7203 -3.39052e-08)
(320.572 -39.7982 -3.41164e-08)
(322.605 -39.8204 -3.40669e-08)
(323.96 -39.9838 -3.40106e-08)
(324.647 -40.455 -3.38417e-08)
(324.614 -41.5092 -3.36321e-08)
(323.565 -43.4854 -3.34419e-08)
(320.76 -47.1877 -3.31122e-08)
(315.553 -52.7772 -3.29008e-08)
(307.172 -59.4736 -3.24088e-08)
(296.055 -64.9363 -3.21016e-08)
(283.197 -66.6853 -3.14157e-08)
(269.206 -65.33 -3.1799e-08)
(257.357 -63.9534 -3.11686e-08)
(245.121 -59.4789 -3.14469e-08)
(234.335 -56.3247 -3.09204e-08)
(223.218 -50.6289 -3.11433e-08)
(212.948 -46.5936 -3.07399e-08)
(202.441 -40.4926 -3.0938e-08)
(193.063 -35.7298 -3.05816e-08)
(184.39 -29.138 -3.07317e-08)
(177.555 -23.4467 -3.04899e-08)
(173.002 -16.144 -3.06642e-08)
(171.225 -10.0297 -3.04489e-08)
(170.781 -3.05354 -3.05928e-08)
(170.086 1.94695 -3.05337e-08)
(171.929 8.8614 -3.05507e-08)
(171.411 13.8274 -3.05691e-08)
(173.663 19.3879 -3.06483e-08)
(174.019 24.2364 -3.07126e-08)
(176.894 29.286 -3.08559e-08)
(178.494 34.2403 -3.09878e-08)
(182.68 39.573 -3.12082e-08)
(186.689 45.2741 -3.14148e-08)
(193.906 51.8487 -3.1712e-08)
(202.677 59.2861 -3.20045e-08)
(215.656 67.3322 -3.23795e-08)
(229.617 72.9249 -3.27398e-08)
(243.463 72.4298 -3.30954e-08)
(253.075 67.8684 -3.32903e-08)
(260.51 64.4322 -3.33834e-08)
(265.842 61.2144 -3.33798e-08)
(269.457 58.3607 -3.41504e-08)
(271.889 53.3212 -3.41744e-08)
(273.243 47.8195 -3.44069e-08)
(274.317 41.8416 -3.46555e-08)
(274.811 36.1822 -3.44971e-08)
(274.786 30.12 -3.46353e-08)
(273.788 24.6458 -3.46581e-08)
(272.263 19.2628 -3.47755e-08)
(270.006 14.7102 -3.4731e-08)
(267.549 10.5605 -3.48401e-08)
(264.763 7.1985 -3.48003e-08)
(262.126 4.35519 -3.48764e-08)
(259.549 2.23241 -3.4817e-08)
(257.42 0.699563 -3.48549e-08)
(255.657 -0.170961 -3.47974e-08)
(254.53 -0.600823 -3.48192e-08)
(253.913 -0.688088 -3.4789e-08)
(253.673 -0.711097 -3.47966e-08)
(218.384 -2.39078 -1.01371e-08)
(217.833 -3.40169 -1.01188e-08)
(217.748 -4.42401 -1.03063e-08)
(217.566 -5.50726 -1.04037e-08)
(217.731 -6.56657 -1.06325e-08)
(217.843 -7.64783 -1.08251e-08)
(218.202 -8.69274 -1.11109e-08)
(218.565 -9.73726 -1.13873e-08)
(219.155 -10.7428 -1.17405e-08)
(219.828 -11.7529 -1.21009e-08)
(220.733 -12.7417 -1.25362e-08)
(221.796 -13.7445 -1.29937e-08)
(223.121 -14.7414 -1.35345e-08)
(224.689 -15.7626 -1.41173e-08)
(226.591 -16.7943 -1.48007e-08)
(228.86 -17.8658 -1.55556e-08)
(231.606 -18.9735 -1.64415e-08)
(234.848 -20.1433 -1.74201e-08)
(238.34 -21.3346 -1.84557e-08)
(242.285 -22.586 -1.95643e-08)
(246.505 -23.8597 -2.07241e-08)
(251.11 -25.1717 -2.19268e-08)
(255.933 -26.4835 -2.31498e-08)
(261.022 -27.7999 -2.43755e-08)
(266.207 -29.0906 -2.55935e-08)
(271.44 -30.3497 -2.6754e-08)
(276.505 -31.5363 -2.78488e-08)
(281.881 -32.7977 -2.89313e-08)
(286.007 -33.8532 -2.97347e-08)
(291.791 -35.1754 -3.08073e-08)
(295.882 -36.1751 -3.14908e-08)
(301.109 -37.3516 -3.23522e-08)
(304.799 -38.2308 -3.28526e-08)
(309.214 -39.2077 -3.34678e-08)
(312.471 -39.9355 -3.38047e-08)
(316.09 -40.6615 -3.41961e-08)
(318.652 -41.1458 -3.43366e-08)
(321.348 -41.6142 -3.4515e-08)
(323.158 -41.9225 -3.44788e-08)
(324.989 -42.2212 -3.44895e-08)
(326.063 -42.3775 -3.4308e-08)
(327.09 -42.599 -3.42096e-08)
(327.598 -42.8708 -3.39356e-08)
(327.887 -43.3556 -3.37702e-08)
(327.666 -44.1654 -3.34638e-08)
(326.855 -45.5834 -3.32445e-08)
(324.908 -48.0602 -3.29254e-08)
(321.357 -51.8977 -3.26268e-08)
(315.525 -56.9774 -3.22754e-08)
(307.162 -62.2505 -3.18347e-08)
(296.622 -66.1267 -3.14062e-08)
(284.467 -67.1612 -3.07809e-08)
(271.436 -65.6541 -3.11098e-08)
(260.081 -63.7118 -3.05437e-08)
(248.427 -59.3753 -3.07838e-08)
(237.904 -55.8015 -3.03194e-08)
(227.22 -50.1569 -3.05197e-08)
(217.162 -45.7939 -3.01799e-08)
(207.084 -39.6351 -3.03703e-08)
(197.995 -34.5527 -3.0061e-08)
(189.819 -27.767 -3.01996e-08)
(183.4 -21.8492 -3.00099e-08)
(179.157 -14.5954 -3.01841e-08)
(177.254 -8.41463 -3.00094e-08)
(176.595 -1.71459 -3.01402e-08)
(176.131 3.37493 -3.01159e-08)
(177.208 10.2514 -3.00789e-08)
(176.89 15.167 -3.01231e-08)
(178.458 20.9976 -3.01464e-08)
(179.008 25.8186 -3.0227e-08)
(181.385 31.0637 -3.03207e-08)
(183.2 36.0229 -3.04688e-08)
(187.104 41.4281 -3.06525e-08)
(191.374 47.1253 -3.08731e-08)
(198.513 53.5574 -3.11431e-08)
(207.438 60.44 -3.14461e-08)
(219.773 66.9487 -3.17917e-08)
(232.43 70.3371 -3.21317e-08)
(244.364 69.0951 -3.24181e-08)
(252.935 65.7135 -3.25711e-08)
(260.127 62.62 -3.26339e-08)
(265.226 58.8999 -3.27845e-08)
(268.567 55.6924 -3.32994e-08)
(270.584 50.1871 -3.35568e-08)
(271.736 45.2235 -3.36127e-08)
(272.611 39.4472 -3.38294e-08)
(273.041 34.2721 -3.36933e-08)
(272.883 28.5952 -3.38544e-08)
(271.97 23.6549 -3.37948e-08)
(270.491 18.6672 -3.39441e-08)
(268.447 14.5368 -3.38828e-08)
(266.144 10.6729 -3.39818e-08)
(263.632 7.64464 -3.39518e-08)
(261.204 5.06234 -3.40071e-08)
(258.896 3.23521 -3.39632e-08)
(256.976 1.895 -3.39837e-08)
(255.442 1.17731 -3.3942e-08)
(254.444 0.809586 -3.39492e-08)
(253.901 0.740263 -3.39292e-08)
(253.686 0.72036 -3.39314e-08)
(237.355 -1.01995 -1.73508e-08)
(237.227 -2.14022 -1.74726e-08)
(237.8 -3.32678 -1.77986e-08)
(238.325 -4.63367 -1.80596e-08)
(239.461 -5.97165 -1.85003e-08)
(240.625 -7.38496 -1.89077e-08)
(242.323 -8.80183 -1.9471e-08)
(244.107 -10.2529 -2.00248e-08)
(246.357 -11.7014 -2.071e-08)
(248.737 -13.188 -2.13976e-08)
(251.537 -14.6963 -2.21914e-08)
(254.497 -16.2536 -2.299e-08)
(257.816 -17.8374 -2.38676e-08)
(261.281 -19.4567 -2.47407e-08)
(265.005 -21.0815 -2.56581e-08)
(268.789 -22.7061 -2.65458e-08)
(272.656 -24.2952 -2.74295e-08)
(276.456 -25.844 -2.82544e-08)
(280.442 -27.3632 -2.91076e-08)
(284.35 -28.8287 -2.98994e-08)
(288.324 -30.2408 -3.06873e-08)
(292.182 -31.5866 -3.14069e-08)
(296.002 -32.8642 -3.20978e-08)
(299.661 -34.0702 -3.27143e-08)
(303.197 -35.2032 -3.32859e-08)
(306.535 -36.2653 -3.37793e-08)
(309.696 -37.2548 -3.42211e-08)
(313.016 -38.3084 -3.46344e-08)
(314.435 -38.9682 -3.47141e-08)
(317.506 -39.9326 -3.50408e-08)
(319.003 -40.6041 -3.50533e-08)
(321.4 -41.3656 -3.52387e-08)
(322.621 -41.9436 -3.51535e-08)
(324.495 -42.5523 -3.52274e-08)
(325.487 -43.0417 -3.50653e-08)
(326.909 -43.5117 -3.50483e-08)
(327.645 -43.8998 -3.48175e-08)
(328.645 -44.2412 -3.47288e-08)
(329.142 -44.5504 -3.44425e-08)
(329.778 -44.8101 -3.43056e-08)
(330.045 -45.1151 -3.39755e-08)
(330.356 -45.4442 -3.38045e-08)
(330.28 -45.9159 -3.34589e-08)
(330.103 -46.5999 -3.32594e-08)
(329.318 -47.713 -3.29048e-08)
(327.965 -49.5085 -3.26727e-08)
(325.396 -52.2421 -3.22978e-08)
(321.346 -56.0126 -3.20017e-08)
(315.233 -60.4103 -3.15775e-08)
(307.109 -64.5993 -3.11676e-08)
(297.09 -67.4306 -3.06648e-08)
(285.515 -68.0528 -3.01134e-08)
(273.314 -66.1856 -3.03694e-08)
(262.447 -63.8998 -2.98754e-08)
(251.304 -59.4769 -3.00639e-08)
(241.082 -55.5223 -2.96677e-08)
(230.745 -49.8383 -2.98363e-08)
(220.924 -45.0869 -2.95624e-08)
(211.178 -38.8391 -2.974e-08)
(202.373 -33.3331 -2.94743e-08)
(194.561 -26.3599 -2.9599e-08)
(188.422 -20.1497 -2.94523e-08)
(184.309 -12.9555 -2.96246e-08)
(182.246 -6.74022 -2.94811e-08)
(181.403 -0.235386 -2.96016e-08)
(181.003 4.92907 -2.96002e-08)
(181.619 11.6002 -2.95324e-08)
(181.381 16.5628 -2.95871e-08)
(182.5 22.4552 -2.95763e-08)
(183.138 27.2373 -2.96599e-08)
(185.175 32.5479 -2.97209e-08)
(187.154 37.4159 -2.9876e-08)
(190.904 42.7938 -3.00357e-08)
(195.461 48.3363 -3.02662e-08)
(202.598 54.5005 -3.0518e-08)
(211.553 60.7103 -3.08249e-08)
(222.993 65.9069 -3.11423e-08)
(234.306 67.8769 -3.14558e-08)
(244.774 66.5145 -3.16942e-08)
(252.777 63.8008 -3.18371e-08)
(259.643 60.7032 -3.18958e-08)
(264.422 56.7396 -3.20643e-08)
(267.37 53.3143 -3.26202e-08)
(269.122 47.8473 -3.25898e-08)
(270.099 43.252 -3.30108e-08)
(270.898 37.711 -3.27498e-08)
(271.244 32.9231 -3.30376e-08)
(271.061 27.5763 -3.29472e-08)
(270.209 23.0285 -3.30144e-08)
(268.833 18.3666 -3.30871e-08)
(266.97 14.5701 -3.30549e-08)
(264.86 10.9693 -3.31274e-08)
(262.583 8.21681 -3.31081e-08)
(260.378 5.83523 -3.31476e-08)
(258.314 4.22166 -3.31151e-08)
(256.6 3.04657 -3.31159e-08)
(255.255 2.44727 -3.30927e-08)
(254.37 2.1252 -3.30858e-08)
(253.886 2.06954 -3.30759e-08)
(253.694 2.05183 -3.30723e-08)
(268.099 -0.223242 -2.62565e-08)
(268.891 -1.59351 -2.65933e-08)
(270.061 -3.10198 -2.70007e-08)
(271.417 -4.76368 -2.74155e-08)
(273.125 -6.49642 -2.78969e-08)
(274.98 -8.31364 -2.83788e-08)
(277.138 -10.1496 -2.89198e-08)
(279.385 -12.0136 -2.9451e-08)
(281.866 -13.8604 -3.00271e-08)
(284.374 -15.7029 -3.05812e-08)
(287.049 -17.5212 -3.11632e-08)
(289.715 -19.3383 -3.17111e-08)
(292.497 -21.1366 -3.22709e-08)
(295.235 -22.9274 -3.27861e-08)
(298.037 -24.6922 -3.32986e-08)
(300.762 -26.4354 -3.37586e-08)
(303.502 -28.1385 -3.42044e-08)
(306.143 -29.7995 -3.45954e-08)
(308.764 -31.3967 -3.4966e-08)
(311.247 -32.9251 -3.52755e-08)
(313.673 -34.3718 -3.55593e-08)
(315.933 -35.7328 -3.57799e-08)
(318.106 -37.002 -3.59726e-08)
(320.098 -38.1782 -3.61031e-08)
(321.982 -39.2605 -3.6205e-08)
(323.683 -40.2504 -3.62502e-08)
(325.261 -41.15 -3.62677e-08)
(326.8 -42.0694 -3.6228e-08)
(327.014 -42.5526 -3.60581e-08)
(328.318 -43.2838 -3.59902e-08)
(328.769 -43.8567 -3.57452e-08)
(329.648 -44.3265 -3.56505e-08)
(329.971 -44.8189 -3.53603e-08)
(330.648 -45.1948 -3.52378e-08)
(330.883 -45.6446 -3.49194e-08)
(331.435 -45.9859 -3.47722e-08)
(331.591 -46.3978 -3.44344e-08)
(332.01 -46.6972 -3.42686e-08)
(332.08 -47.0669 -3.39147e-08)
(332.345 -47.3542 -3.37303e-08)
(332.262 -47.7472 -3.33732e-08)
(332.279 -48.1703 -3.31711e-08)
(331.876 -48.8183 -3.28124e-08)
(331.356 -49.7332 -3.25916e-08)
(330.162 -51.1368 -3.22271e-08)
(328.387 -53.181 -3.19746e-08)
(325.365 -56.0308 -3.15839e-08)
(321.02 -59.5408 -3.12761e-08)
(314.864 -63.3277 -3.08319e-08)
(307.047 -66.7144 -3.04321e-08)
(297.527 -68.854 -2.99073e-08)
(286.49 -69.1642 -2.94114e-08)
(275.048 -66.8609 -2.96059e-08)
(264.64 -64.2935 -2.91691e-08)
(253.98 -59.6653 -2.93124e-08)
(244.061 -55.3763 -2.89725e-08)
(234.042 -49.5432 -2.91138e-08)
(224.451 -44.4373 -2.88969e-08)
(214.999 -38.0171 -2.9065e-08)
(206.454 -32.1189 -2.88358e-08)
(198.936 -24.9274 -2.89489e-08)
(192.98 -18.444 -2.88356e-08)
(188.898 -11.2325 -2.90043e-08)
(186.642 -4.95885 -2.88885e-08)
(185.606 1.45407 -2.90001e-08)
(185.163 6.63189 -2.90159e-08)
(185.494 13.1276 -2.89295e-08)
(185.25 18.1802 -2.89881e-08)
(186.057 24.0662 -2.89559e-08)
(186.696 28.8656 -2.90368e-08)
(188.504 34.2122 -2.90771e-08)
(190.568 39.0195 -2.92357e-08)
(194.232 44.3623 -2.93808e-08)
(198.961 49.707 -2.96179e-08)
(206.02 55.4745 -2.98585e-08)
(214.783 60.7954 -3.01667e-08)
(225.356 64.6675 -3.04588e-08)
(235.624 65.6199 -3.07527e-08)
(245.023 64.3447 -3.0966e-08)
(252.602 61.8381 -3.11051e-08)
(259.063 58.5646 -3.1163e-08)
(263.509 54.3919 -3.13248e-08)
(266.149 50.8363 -3.18409e-08)
(267.724 45.5752 -3.16826e-08)
(268.565 41.2759 -3.23899e-08)
(269.303 36.0339 -3.17834e-08)
(269.564 31.5861 -3.23329e-08)
(269.389 26.5826 -3.19668e-08)
(268.574 22.392 -3.23321e-08)
(267.32 18.0625 -3.2147e-08)
(265.606 14.5821 -3.23173e-08)
(263.692 11.263 -3.22476e-08)
(261.622 8.76869 -3.23154e-08)
(259.639 6.61221 -3.22788e-08)
(257.795 5.19043 -3.23012e-08)
(256.275 4.15091 -3.22608e-08)
(255.088 3.64013 -3.22641e-08)
(254.301 3.35388 -3.22486e-08)
(253.869 3.30821 -3.22419e-08)
(253.696 3.29225 -3.22388e-08)
(296.22 0.0228843 -3.31257e-08)
(297.114 -1.45638 -3.3444e-08)
(297.955 -3.1103 -3.37242e-08)
(299.166 -4.93869 -3.40484e-08)
(300.373 -6.86527 -3.43426e-08)
(301.852 -8.89025 -3.46622e-08)
(303.337 -10.9471 -3.49574e-08)
(304.988 -13.0327 -3.52602e-08)
(306.626 -15.0992 -3.55403e-08)
(308.331 -17.1505 -3.58128e-08)
(309.995 -19.1593 -3.60615e-08)
(311.665 -21.1455 -3.62906e-08)
(313.3 -23.0987 -3.64951e-08)
(314.913 -25.0275 -3.6672e-08)
(316.497 -26.9165 -3.68232e-08)
(318.037 -28.7663 -3.69408e-08)
(319.547 -30.5599 -3.70344e-08)
(320.995 -32.2951 -3.70905e-08)
(322.405 -33.9559 -3.71225e-08)
(323.736 -35.5408 -3.71173e-08)
(325.023 -37.0368 -3.70894e-08)
(326.218 -38.4439 -3.70256e-08)
(327.362 -39.7524 -3.69408e-08)
(328.407 -40.9662 -3.68226e-08)
(329.398 -42.0784 -3.66873e-08)
(330.288 -43.0964 -3.65196e-08)
(331.115 -44.0164 -3.63392e-08)
(331.872 -44.9471 -3.61046e-08)
(331.883 -45.3686 -3.59026e-08)
(332.534 -46.0986 -3.56681e-08)
(332.643 -46.5739 -3.5376e-08)
(333.073 -47.0422 -3.51654e-08)
(333.115 -47.428 -3.48491e-08)
(333.436 -47.7891 -3.46337e-08)
(333.437 -48.1322 -3.43105e-08)