/*--------------------------------*- C++ -*----------------------------------*\
  =========                 |
  \\      /  F ield         | OpenFOAM: The Open Source CFD Toolbox
   \\    /   O peration     | Website:  https://openfoam.org
    \\  /    A nd           | Version:  7
     \\/     M anipulation  |
\*---------------------------------------------------------------------------*/
FoamFile
{
    version     2.0;
    format      ascii;
    class       volScalarField;
    location    "0.1425";
    object      rho;
}
// * * * * * * * * * * * * * * * * * * * * * * * * * * * * * * * * * * * * * //

dimensions      [1 -3 0 0 0 0 0];

internalField   nonuniform List<scalar> 
48560
(
0.395754
0.395853
0.395921
0.395965
0.395988
0.395995
0.39599
0.395976
0.395953
0.395924
0.39589
0.395851
0.395808
0.395761
0.39571
0.395655
0.395596
0.395532
0.395463
0.395388
0.395307
0.395219
0.395124
0.39502
0.394908
0.394786
0.394648
0.394464
0.394194
0.393898
0.39356
0.393165
0.392689
0.392077
0.391245
0.390299
0.389193
0.388016
0.386809
0.385795
0.384651
0.383377
0.381868
0.379868
0.377305
0.374001
0.370664
0.369444
0.371646
0.377132
0.393966
0.456576
0.478818
0.50448
0.525055
0.544197
0.559967
0.576124
0.589021
0.602434
0.611733
0.621262
0.623463
0.624892
0.624689
0.622235
0.620683
0.619321
0.617187
0.615379
0.613316
0.610978
0.608007
0.604282
0.599225
0.59235
0.582753
0.567764
0.539768
0.501114
0.501341
0.512873
0.50814
0.506708
0.499976
0.496598
0.494404
0.496175
0.498694
0.505878
0.514549
0.523123
0.53122
0.538778
0.545492
0.551376
0.556285
0.560239
0.563024
0.564143
0.395706
0.395805
0.395862
0.395892
0.395893
0.395878
0.395844
0.395799
0.395742
0.395677
0.395604
0.395525
0.395438
0.395342
0.395238
0.395123
0.394997
0.39486
0.394711
0.394551
0.394377
0.394189
0.393985
0.393762
0.393519
0.39325
0.392946
0.392543
0.391882
0.39112
0.390262
0.389279
0.388205
0.387031
0.385869
0.384638
0.383414
0.382053
0.380617
0.378944
0.377029
0.374946
0.372653
0.370585
0.370041
0.372281
0.375485
0.379603
0.382736
0.391632
0.413433
0.458049
0.478983
0.506136
0.524845
0.545497
0.560703
0.577696
0.590565
0.604394
0.614126
0.623412
0.626019
0.628241
0.628054
0.625263
0.625262
0.62431
0.622797
0.621659
0.619786
0.617892
0.614942
0.611378
0.605987
0.598768
0.587535
0.569655
0.544782
0.526711
0.523832
0.520818
0.51775
0.514188
0.510576
0.510224
0.510311
0.511971
0.514683
0.519681
0.524892
0.531622
0.537882
0.544414
0.549895
0.554994
0.558782
0.561755
0.563568
0.564166
0.395055
0.395151
0.39518
0.395186
0.395143
0.395087
0.394998
0.394902
0.394784
0.394662
0.394518
0.39436
0.394179
0.393981
0.393759
0.393515
0.393242
0.392938
0.392592
0.392229
0.391826
0.391397
0.390926
0.390425
0.389882
0.389307
0.388694
0.387974
0.386955
0.385993
0.384897
0.383813
0.382586
0.381306
0.379863
0.378284
0.376643
0.37487
0.373113
0.371299
0.37006
0.369863
0.371382
0.374114
0.378174
0.38116
0.384412
0.387187
0.392463
0.403489
0.426078
0.458978
0.482014
0.507833
0.526542
0.546613
0.562261
0.57877
0.592198
0.60573
0.616043
0.624706
0.627984
0.630094
0.629996
0.628037
0.629029
0.627671
0.62702
0.6257
0.624341
0.622245
0.619436
0.615446
0.609799
0.601644
0.589222
0.570009
0.546081
0.531061
0.527345
0.524078
0.519413
0.515322
0.511869
0.511863
0.511947
0.513723
0.516586
0.52147
0.526879
0.533149
0.539124
0.545187
0.550533
0.555491
0.559303
0.562118
0.563706
0.564183
0.393156
0.393235
0.393193
0.393135
0.392986
0.392835
0.39262
0.39241
0.392143
0.391869
0.391538
0.391196
0.390804
0.3904
0.389957
0.389505
0.389026
0.388547
0.388058
0.387551
0.387027
0.386483
0.385906
0.385304
0.384667
0.384002
0.383298
0.382528
0.381385
0.380171
0.378836
0.377455
0.375972
0.374508
0.37295
0.371487
0.370326
0.36967
0.370323
0.371269
0.3736
0.375969
0.378815
0.381515
0.383853
0.385464
0.387537
0.390681
0.397101
0.410345
0.432581
0.460844
0.483085
0.507355
0.526045
0.545843
0.561844
0.578386
0.592262
0.605877
0.616638
0.625231
0.629186
0.631232
0.63119
0.630009
0.631095
0.629378
0.629217
0.627295
0.626017
0.623166
0.620119
0.61523
0.608995
0.599607
0.586205
0.567545
0.548932
0.537346
0.531684
0.527091
0.522567
0.520001
0.518796
0.519138
0.519467
0.521177
0.523756
0.527766
0.532345
0.537769
0.543055
0.548406
0.553046
0.557172
0.560256
0.562494
0.563797
0.564189
0.389455
0.389465
0.389365
0.389224
0.389006
0.388771
0.388485
0.388193
0.387853
0.387502
0.387102
0.386687
0.386228
0.385754
0.385238
0.384705
0.384133
0.38354
0.382906
0.382245
0.381543
0.380803
0.380041
0.379265
0.378468
0.377657
0.376825
0.375999
0.374761
0.373564
0.372384
0.371406
0.370664
0.370528
0.37077
0.371568
0.372879
0.374561
0.37614
0.378301
0.380339
0.3822
0.383777
0.385042
0.38618
0.387597
0.389869
0.39408
0.402224
0.416389
0.437314
0.462658
0.484428
0.507162
0.526121
0.545229
0.561625
0.577874
0.592133
0.605605
0.616537
0.624882
0.629196
0.631205
0.631328
0.630764
0.631536
0.630087
0.629971
0.628001
0.626729
0.623669
0.620522
0.615263
0.608689
0.598573
0.58471
0.566803
0.551135
0.5412
0.534873
0.529329
0.525095
0.522858
0.522225
0.5225
0.52297
0.524588
0.527152
0.530917
0.535232
0.540101
0.54496
0.549827
0.554206
0.558011
0.5608
0.562705
0.563817
0.564156
0.385138
0.385102
0.384977
0.384765
0.384492
0.384166
0.383803
0.383408
0.382974
0.382505
0.381991
0.381443
0.380851
0.380229
0.379568
0.378884
0.378165
0.377431
0.376672
0.375918
0.37517
0.374459
0.373784
0.373161
0.372614
0.372202
0.371983
0.372292
0.372046
0.372487
0.372835
0.373708
0.374555
0.375566
0.376725
0.378095
0.379468
0.380782
0.381991
0.383183
0.384109
0.384937
0.38564
0.386443
0.387536
0.389169
0.392102
0.397397
0.406609
0.420933
0.440531
0.463835
0.484981
0.506463
0.525242
0.543954
0.560398
0.57661
0.590963
0.604456
0.615367
0.623675
0.628185
0.630327
0.630659
0.630384
0.630809
0.629736
0.629368
0.627479
0.625962
0.622782
0.619327
0.613725
0.60663
0.595982
0.582324
0.566492
0.553454
0.544178
0.537502
0.531953
0.528451
0.526857
0.526603
0.526734
0.527295
0.528785
0.53117
0.534509
0.538451
0.542843
0.5473
0.551636
0.555491
0.558774
0.561199
0.562838
0.563813
0.564115
0.380827
0.380675
0.380515
0.380185
0.379857
0.379428
0.379015
0.378533
0.378047
0.377505
0.376957
0.37638
0.375813
0.375257
0.374748
0.374306
0.373972
0.373763
0.373607
0.37359
0.373664
0.373886
0.374212
0.374675
0.375228
0.375871
0.376529
0.377424
0.377665
0.378755
0.379187
0.380287
0.380788
0.381781
0.382333
0.383199
0.383666
0.38435
0.384725
0.385273
0.385598
0.386134
0.386704
0.387574
0.388815
0.390963
0.394605
0.400756
0.410457
0.424519
0.442854
0.464693
0.485103
0.505616
0.524152
0.542433
0.558899
0.574975
0.589403
0.602788
0.613635
0.621841
0.626525
0.628857
0.629461
0.629342
0.62963
0.628885
0.628383
0.626696
0.625022
0.621887
0.618181
0.612395
0.604874
0.594011
0.58076
0.56663
0.555226
0.546369
0.539618
0.534313
0.531297
0.530061
0.529935
0.530023
0.53065
0.532038
0.534302
0.537354
0.540986
0.544987
0.54905
0.552989
0.556495
0.559394
0.56152
0.562942
0.563805
0.564079
0.378002
0.377904
0.377861
0.377643
0.377498
0.377252
0.377102
0.376914
0.376839
0.376765
0.376797
0.376847
0.376994
0.377169
0.377425
0.3777
0.378017
0.378331
0.378756
0.37919
0.379698
0.380207
0.380753
0.381284
0.381817
0.382319
0.382805
0.383459
0.383289
0.384046
0.384073
0.384635
0.384656
0.385096
0.385141
0.385489
0.38556
0.385868
0.386009
0.386339
0.386621
0.387133
0.387737
0.38879
0.390359
0.393022
0.397242
0.403916
0.413737
0.427309
0.444503
0.465213
0.484794
0.504449
0.522661
0.540566
0.556988
0.57295
0.587394
0.600678
0.611451
0.619611
0.624463
0.627016
0.627858
0.627865
0.628098
0.627558
0.626985
0.625428
0.623605
0.620444
0.616456
0.610449
0.602587
0.591832
0.579453
0.567004
0.556685
0.548216
0.54169
0.536868
0.534319
0.533377
0.533276
0.533369
0.533968
0.535257
0.537335
0.540111
0.543413
0.547034
0.550715
0.554238
0.557354
0.559912
0.561782
0.563027
0.563795
0.564045
0.37885
0.379298
0.379713
0.380046
0.380383
0.380669
0.380995
0.381302
0.381673
0.382046
0.382481
0.3829
0.383355
0.383775
0.384205
0.384585
0.384957
0.385275
0.385582
0.385827
0.386056
0.386224
0.386374
0.386469
0.38655
0.386587
0.386626
0.386741
0.38633
0.38658
0.386443
0.386595
0.386514
0.386664
0.386618
0.386764
0.386752
0.386938
0.387032
0.387338
0.387632
0.388219
0.388971
0.39027
0.392179
0.395273
0.3999
0.406836
0.416543
0.429517
0.445691
0.465402
0.484168
0.503072
0.52091
0.538467
0.554807
0.570644
0.585074
0.598231
0.60894
0.617084
0.622136
0.624941
0.626028
0.626157
0.626387
0.625994
0.625421
0.623971
0.622069
0.618891
0.614702
0.608551
0.600535
0.590093
0.578618
0.567432
0.55793
0.549898
0.543729
0.539356
0.537119
0.536334
0.536242
0.536354
0.536911
0.538121
0.540019
0.542565
0.545565
0.548859
0.552177
0.55534
0.558104
0.560358
0.562001
0.563097
0.563783
0.564012
0.383255
0.384266
0.385073
0.385871
0.386498
0.387105
0.387592
0.388065
0.38847
0.388875
0.389249
0.389609
0.389922
0.390188
0.390395
0.390536
0.390615
0.390622
0.390574
0.39046
0.390304
0.390096
0.389867
0.389605
0.389343
0.389069
0.388826
0.388661
0.388214
0.388198
0.387962
0.387974
0.387844
0.387914
0.387858
0.387964
0.387948
0.388096
0.388187
0.388488
0.388838
0.389511
0.390439
0.391967
0.394194
0.397605
0.4025
0.40951
0.418967
0.431309
0.446556
0.465303
0.483257
0.50146
0.518895
0.536123
0.552354
0.568066
0.582456
0.59549
0.606151
0.614315
0.619586
0.622663
0.62401
0.624276
0.624512
0.624223
0.623683
0.622308
0.620353
0.617138
0.612786
0.606544
0.598552
0.588631
0.57812
0.567953
0.559124
0.551583
0.545837
0.541884
0.539878
0.539182
0.539083
0.539196
0.539694
0.540808
0.542522
0.544839
0.547545
0.55052
0.553492
0.556313
0.558757
0.560745
0.562189
0.563156
0.563771
0.563982
0.388411
0.389709
0.390693
0.391699
0.392403
0.393096
0.39354
0.393978
0.39424
0.394519
0.394694
0.394901
0.395014
0.39511
0.3951
0.395044
0.394886
0.394672
0.394373
0.394025
0.393617
0.393176
0.392706
0.392226
0.391747
0.391282
0.390858
0.390542
0.39001
0.3898
0.389482
0.389372
0.389202
0.389193
0.389135
0.389197
0.389195
0.389306
0.389423
0.389726
0.39016
0.390929
0.39205
0.393795
0.396297
0.399941
0.405004
0.411961
0.421105
0.432809
0.4472
0.464979
0.482122
0.499636
0.516643
0.533549
0.549648
0.565235
0.579566
0.59248
0.60311
0.611327
0.616841
0.620217
0.621859
0.62229
0.622531
0.622328
0.621847
0.620542
0.618574
0.61534
0.610901
0.604663
0.596849
0.587529
0.577905
0.568587
0.560357
0.553315
0.547972
0.544342
0.542482
0.541826
0.541719
0.541821
0.542264
0.543274
0.544816
0.546912
0.549344
0.552017
0.554669
0.557175
0.559331
0.561081
0.562352
0.563209
0.56376
0.563954
0.392221
0.393679
0.394842
0.396005
0.396844
0.397632
0.398125
0.398571
0.398793
0.39901
0.399089
0.399212
0.399245
0.399283
0.3992
0.39908
0.398835
0.398533
0.398111
0.397631
0.397061
0.396444
0.395783
0.395099
0.39441
0.393732
0.393098
0.392598
0.39188
0.391455
0.391006
0.390746
0.390508
0.390414
0.39034
0.390362
0.390369
0.390457
0.390605
0.390939
0.391476
0.39237
0.393693
0.395652
0.398399
0.402226
0.407385
0.41423
0.42303
0.434113
0.4477
0.464483
0.480793
0.497603
0.514152
0.530729
0.546681
0.562144
0.576405
0.589209
0.599823
0.608116
0.61389
0.617593
0.619569
0.6202
0.620471
0.62034
0.619932
0.618695
0.616745
0.613514
0.609056
0.602917
0.595412
0.586749
0.577944
0.569348
0.561683
0.555126
0.550145
0.546758
0.54498
0.544326
0.5442
0.544283
0.544664
0.54556
0.546934
0.548809
0.550983
0.553367
0.555722
0.557938
0.559837
0.561376
0.562496
0.563255
0.563751
0.563929
0.394677
0.396297
0.397703
0.399088
0.400193
0.401204
0.401924
0.402531
0.40289
0.403175
0.403298
0.403416
0.403467
0.403534
0.403499
0.403404
0.403161
0.402822
0.40232
0.401712
0.400981
0.400198
0.399308
0.398385
0.39742
0.396467
0.39555
0.394808
0.393841
0.39319
0.392567
0.392151
0.391816
0.391628
0.391518
0.391505
0.391516
0.391586
0.391753
0.392117
0.392747
0.393763
0.395271
0.397426
0.400401
0.404407
0.409639
0.416355
0.42481
0.435298
0.448114
0.46387
0.479307
0.495374
0.511422
0.527653
0.543442
0.558785
0.572973
0.58568
0.596289
0.604673
0.610717
0.614774
0.617135
0.618017
0.618353
0.618285
0.617965
0.61681
0.614915
0.61173
0.607333
0.601387
0.594283
0.586275
0.578176
0.570242
0.563122
0.557015
0.552337
0.549112
0.54736
0.546674
0.546519
0.546576
0.546893
0.54767
0.548881
0.550541
0.55247
0.554582
0.556664
0.558615
0.560285
0.561636
0.562624
0.563297
0.563743
0.563907
0.396468
0.398255
0.399913
0.401564
0.403002
0.404341
0.405418
0.406336
0.406987
0.407484
0.407772
0.407975
0.408072
0.408172
0.408191
0.408134
0.407928
0.40758
0.407051
0.406367
0.405519
0.404523
0.403382
0.402151
0.400853
0.399549
0.398293
0.397258
0.395958
0.394992
0.394105
0.39345
0.392966
0.392646
0.392498
0.39244
0.392461
0.392508
0.392692
0.393079
0.393799
0.394953
0.396683
0.399102
0.402329
0.406479
0.41174
0.418356
0.426502
0.436428
0.448473
0.46318
0.477694
0.492953
0.508437
0.524286
0.539894
0.555122
0.569239
0.581863
0.592486
0.600971
0.607293
0.611723
0.614526
0.615737
0.616192
0.616184
0.615964
0.614912
0.613114
0.610026
0.605769
0.600097
0.593453
0.58608
0.578601
0.571285
0.564682
0.558982
0.554549
0.551422
0.549643
0.548889
0.548687
0.548715
0.548963
0.549618
0.550667
0.552119
0.553818
0.555676
0.557506
0.559216
0.560682
0.561868
0.562738
0.563335
0.563737
0.563887
0.397947
0.39987
0.401732
0.403619
0.405369
0.407052
0.408528
0.409847
0.410902
0.411747
0.412328
0.412724
0.412936
0.413066
0.413145
0.413175
0.413071
0.412808
0.412328
0.411623
0.410667
0.409478
0.40807
0.406495
0.404799
0.403056
0.401341
0.399865
0.398164
0.396819
0.395648
0.394726
0.394086
0.393594
0.393375
0.393263
0.393281
0.393308
0.393488
0.393878
0.394639
0.395868
0.397726
0.400324
0.403801
0.408243
0.413729
0.420285
0.428145
0.437563
0.448822
0.462473
0.476013
0.490382
0.505214
0.520622
0.536026
0.551155
0.565226
0.577789
0.588429
0.597009
0.603594
0.608398
0.611695
0.613341
0.614017
0.614046
0.613949
0.613033
0.611381
0.608448
0.604408
0.599074
0.592917
0.586148
0.579239
0.572486
0.56636
0.561022
0.556783
0.5537
0.551852
0.550987
0.55071
0.55071
0.550884
0.551415
0.552303
0.553556
0.555035
0.556657
0.558257
0.559751
0.561034
0.562073
0.562841
0.563371
0.563732
0.56387
0.399251
0.401263
0.403262
0.405317
0.407296
0.409259
0.411088
0.412808
0.414314
0.415615
0.416636
0.417405
0.417902
0.418199
0.418341
0.418434
0.418442
0.418304
0.417937
0.417298
0.416336
0.415042
0.413415
0.411498
0.409353
0.407072
0.404768
0.402702
0.400508
0.398666
0.397138
0.395878
0.395059
0.394367
0.394037
0.393849
0.393842
0.39389
0.394062
0.39448
0.395274
0.396583
0.398546
0.40129
0.40493
0.409553
0.415218
0.421942
0.429728
0.43869
0.449201
0.461784
0.474281
0.48764
0.501694
0.51657
0.531731
0.546767
0.560797
0.573319
0.584019
0.592714
0.599571
0.604758
0.608594
0.610782
0.611817
0.611915
0.61195
0.61121
0.609749
0.60704
0.603281
0.598335
0.592668
0.586429
0.580072
0.573846
0.568158
0.563138
0.559054
0.555971
0.554007
0.552993
0.552607
0.552563
0.552662
0.553071
0.553801
0.554863
0.556136
0.557539
0.558928
0.560226
0.561345
0.562255
0.562934
0.563404
0.56373
0.563856
0.40041
0.402471
0.404547
0.406696
0.408811
0.410954
0.413046
0.415093
0.416991
0.418752
0.420286
0.421578
0.422561
0.423248
0.42364
0.423819
0.423875
0.423879
0.42369
0.423233
0.422403
0.421145
0.419407
0.417206
0.414591
0.41168
0.408632
0.405791
0.403021
0.400525
0.398577
0.396854
0.395803
0.394911
0.394478
0.394222
0.394157
0.394237
0.394427
0.394837
0.395646
0.397007
0.399061
0.401938
0.405742
0.410543
0.416365
0.423204
0.431028
0.439825
0.449651
0.461205
0.472655
0.484921
0.498046
0.512244
0.527088
0.542063
0.556153
0.56868
0.579432
0.588204
0.595278
0.600789
0.605153
0.607966
0.609541
0.609832
0.610001
0.609475
0.608251
0.605836
0.60241
0.597886
0.592701
0.586946
0.581092
0.575344
0.570054
0.56532
0.561365
0.558254
0.556133
0.554937
0.554405
0.554287
0.554313
0.5546
0.555174
0.556051
0.557129
0.558329
0.559525
0.560646
0.561619
0.562414
0.563013
0.563434
0.563728
0.563845
0.401411
0.403487
0.405601
0.407786
0.409962
0.412192
0.414434
0.416674
0.418819
0.420893
0.422841
0.424629
0.426176
0.427436
0.428348
0.428913
0.42917
0.429227
0.429216
0.429025
0.428484
0.427468
0.425837
0.423524
0.420504
0.416892
0.4129
0.409023
0.405656
0.402213
0.399919
0.397579
0.396312
0.395197
0.394661
0.394361
0.394295
0.394352
0.394527
0.394925
0.395743
0.397133
0.399249
0.402229
0.40617
0.411141
0.417134
0.424117
0.431986
0.440651
0.450053
0.460664
0.470981
0.481972
0.493958
0.5073
0.521715
0.536608
0.550723
0.563279
0.574191
0.583117
0.590494
0.596383
0.601334
0.604844
0.607167
0.607879
0.608127
0.607842
0.606927
0.60485
0.601812
0.597724
0.592988
0.587708
0.582322
0.577011
0.572079
0.567598
0.563748
0.560584
0.55827
0.556847
0.556122
0.555889
0.555856
0.556021
0.556442
0.557138
0.558031
0.559039
0.560057
0.561016
0.561857
0.562549
0.563079
0.563456
0.563724
0.563834
0.402211
0.404286
0.406421
0.408619
0.410829
0.413093
0.415367
0.417654
0.419902
0.422136
0.42431
0.426432
0.428429
0.43027
0.431859
0.433135
0.434012
0.434486
0.434614
0.434562
0.434361
0.433739
0.432452
0.430252
0.426957
0.422582
0.417397
0.412127
0.408362
0.403549
0.400901
0.398025
0.396492
0.395147
0.394496
0.394145
0.394093
0.394174
0.394311
0.394735
0.395543
0.396969
0.399113
0.402175
0.406224
0.41135
0.417511
0.424669
0.432659
0.441303
0.450396
0.460251
0.469701
0.479564
0.490256
0.50245
0.516192
0.531027
0.545477
0.558155
0.569202
0.578168
0.585715
0.591748
0.597125
0.601217
0.604464
0.605911
0.606422
0.60634
0.605798
0.604093
0.601494
0.597835
0.593504
0.58864
0.583657
0.578724
0.574106
0.569849
0.566098
0.562889
0.560405
0.558722
0.557769
0.557384
0.557282
0.557344
0.557626
0.558151
0.558866
0.559692
0.560546
0.561358
0.562078
0.562675
0.563138
0.563473
0.563718
0.563823
0.402773
0.404841
0.406993
0.409191
0.411418
0.413676
0.415945
0.418229
0.420506
0.422788
0.425053
0.427308
0.429522
0.431682
0.433732
0.435615
0.43722
0.438443
0.439171
0.439402
0.439289
0.439026
0.438231
0.436498
0.433373
0.428476
0.421844
0.41446
0.410435
0.404303
0.401196
0.397863
0.396101
0.39458
0.393869
0.393506
0.393479
0.393612
0.393764
0.394229
0.395049
0.396502
0.398691
0.401811
0.405936
0.411162
0.417464
0.424767
0.432887
0.441549
0.450408
0.459452
0.467594
0.475883
0.485099
0.496013
0.508964
0.523655
0.538293
0.550998
0.562565
0.571702
0.579735
0.586177
0.592276
0.59714
0.601528
0.60395
0.605105
0.605064
0.60493
0.603645
0.601482
0.598213
0.594301
0.589845
0.585268
0.580682
0.576346
0.572291
0.568643
0.565402
0.562619
0.56059
0.559332
0.558747
0.558555
0.558535
0.558697
0.559072
0.559624
0.560294
0.561009
0.561696
0.562308
0.562814
0.563208
0.563497
0.563716
0.563814
0.402924
0.404968
0.40713
0.409308
0.411541
0.41378
0.416049
0.418316
0.420592
0.42286
0.425124
0.427373
0.429607
0.431817
0.433995
0.436124
0.438169
0.44007
0.441709
0.442927
0.44354
0.4435
0.443078
0.442037
0.439462
0.43428
0.425589
0.414672
0.410988
0.403884
0.400457
0.396832
0.394896
0.393286
0.392562
0.39222
0.392259
0.39247
0.392696
0.393201
0.394137
0.395578
0.397845
0.401
0.405217
0.410515
0.416937
0.424375
0.432662
0.441482
0.450436
0.459462
0.46734
0.474722
0.482355
0.491345
0.502499
0.516474
0.532226
0.545438
0.55721
0.566428
0.574728
0.581054
0.587375
0.592403
0.597583
0.601269
0.603634
0.603919
0.604111
0.603285
0.601496
0.598611
0.595005
0.590881
0.586576
0.582259
0.578156
0.574254
0.570649
0.567318
0.564582
0.562296
0.560706
0.559852
0.559563
0.55949
0.559549
0.559797
0.560236
0.560798
0.561419
0.562018
0.562553
0.562984
0.563314
0.563555
0.563741
0.563828
0.4021
0.404116
0.406296
0.408445
0.410688
0.412898
0.415171
0.417409
0.419685
0.421927
0.424188
0.426415
0.428649
0.430852
0.433052
0.435225
0.437376
0.439467
0.441461
0.44329
0.444732
0.445475
0.44524
0.444364
0.44241
0.437812
0.428262
0.412133
0.409726
0.401764
0.397638
0.39392
0.391819
0.390337
0.389642
0.389445
0.389578
0.389969
0.39033
0.390886
0.391852
0.393398
0.395682
0.398974
0.403277
0.408727
0.415297
0.42291
0.431366
0.440329
0.449312
0.457913
0.464768
0.470422
0.47497
0.480423
0.489472
0.503662
0.52031
0.533537
0.545981
0.555892
0.564897
0.571937
0.579323
0.585718
0.59273
0.598516
0.602678
0.603931
0.604058
0.603738
0.602415
0.599932
0.596702
0.592829
0.588758
0.584606
0.580604
0.576799
0.573337
0.570173
0.567046
0.564104
0.561838
0.560497
0.560036
0.559929
0.559965
0.560161
0.56056
0.561076
0.561671
0.562244
0.56276
0.563164
0.563465
0.563676
0.563833
0.563904
0.398279
0.400255
0.402425
0.404521
0.406745
0.408899
0.411148
0.413331
0.415581
0.417768
0.419997
0.422164
0.424347
0.426457
0.428541
0.430524
0.432451
0.434299
0.436135
0.437933
0.439731
0.441443
0.442824
0.443255
0.442201
0.439685
0.430442
0.405883
0.404486
0.396754
0.392131
0.388522
0.386477
0.385109
0.384649
0.384632
0.385108
0.385697
0.386397
0.387173
0.388286
0.38995
0.39262
0.395974
0.400472
0.406022
0.412805
0.420547
0.429206
0.438357
0.447664
0.456887
0.464508
0.470603
0.475425
0.480765
0.488416
0.499974
0.515113
0.529358
0.542667
0.552164
0.56114
0.567922
0.574885
0.580786
0.58736
0.593533
0.599969
0.602544
0.602624
0.602404
0.601048
0.598717
0.595578
0.591907
0.588009
0.584108
0.580376
0.57676
0.573328
0.569885
0.566972
0.564192
0.561856
0.560175
0.559572
0.559473
0.559572
0.559799
0.560253
0.560807
0.561465
0.562097
0.562689
0.563166
0.563534
0.563778
0.56396
0.564048
0.384674
0.386495
0.388441
0.390319
0.392274
0.394145
0.396077
0.397911
0.39979
0.401565
0.403373
0.405071
0.406775
0.408346
0.409891
0.411315
0.412745
0.414094
0.415446
0.416735
0.418115
0.41957
0.421033
0.422049
0.421549
0.420022
0.415218
0.397429
0.394785
0.38631
0.381473
0.377094
0.375354
0.373343
0.373307
0.372801
0.373768
0.374075
0.375345
0.375961
0.377629
0.37909
0.381884
0.385142
0.389955
0.395892
0.403002
0.411118
0.419841
0.429076
0.438176
0.447141
0.455117
0.461578
0.465505
0.465906
0.466527
0.468266
0.48765
0.512878
0.526947
0.538106
0.547105
0.555325
0.562674
0.569996
0.578641
0.588081
0.598286
0.602075
0.601073
0.601562
0.600113
0.597092
0.593555
0.58985
0.585836
0.581976
0.578286
0.574628
0.571407
0.568359
0.565353
0.562355
0.559081
0.55641
0.555449
0.555547
0.555905
0.556471
0.557377
0.558185
0.559053
0.559958
0.560822
0.561633
0.562355
0.562993
0.563527
0.563985
0.245935
0.245959
0.245955
0.245958
0.245957
0.245957
0.245958
0.245958
0.245958
0.245959
0.245959
0.245959
0.245959
0.245959
0.24596
0.24596
0.24596
0.24596
0.24596
0.24596
0.245921
0.245956
0.245953
0.245956
0.245955
0.245956
0.245957
0.245958
0.245959
0.245959
0.24596
0.24596
0.245961
0.245961
0.245962
0.245962
0.245962
0.245962
0.245962
0.245962
0.245902
0.24595
0.245948
0.245953
0.245952
0.245954
0.245956
0.245958
0.245959
0.245961
0.245962
0.245964
0.245965
0.245965
0.245966
0.245967
0.245967
0.245968
0.245968
0.245968
0.245882
0.245944
0.245944
0.245949
0.24595
0.245952
0.245954
0.245957
0.24596
0.245963
0.245965
0.245966
0.245968
0.245969
0.245971
0.245972
0.245972
0.245973
0.245973
0.245974
0.245862
0.245936
0.245939
0.245945
0.245946
0.24595
0.245953
0.245957
0.245961
0.245964
0.245967
0.24597
0.245972
0.245974
0.245976
0.245978
0.245979
0.24598
0.245981
0.245981
0.245839
0.245927
0.245932
0.245939
0.245942
0.245947
0.245952
0.245957
0.245962
0.245967
0.245971
0.245974
0.245978
0.245981
0.245983
0.245986
0.245988
0.245989
0.24599
0.245991
0.245814
0.245915
0.245924
0.245932
0.245937
0.245943
0.24595
0.245957
0.245963
0.245969
0.245975
0.24598
0.245985
0.245989
0.245993
0.245996
0.245998
0.246
0.246001
0.246002
0.245786
0.245901
0.245914
0.245923
0.24593
0.245938
0.245947
0.245957
0.245965
0.245973
0.24598
0.245987
0.245993
0.245999
0.246003
0.246007
0.246011
0.246013
0.246015
0.246016
0.245756
0.245884
0.245901
0.245913
0.245922
0.245933
0.245945
0.245956
0.245967
0.245977
0.245986
0.245995
0.246003
0.24601
0.246016
0.246021
0.246025
0.246029
0.246031
0.246032
0.245722
0.245865
0.245886
0.245901
0.245913
0.245927
0.245942
0.245956
0.24597
0.245982
0.245994
0.246004
0.246014
0.246023
0.246031
0.246037
0.246042
0.246046
0.246048
0.24605
0.245687
0.245843
0.245869
0.245888
0.245903
0.245921
0.245939
0.245957
0.245973
0.245988
0.246002
0.246015
0.246027
0.246038
0.246047
0.246055
0.246061
0.246066
0.246068
0.24607
0.245647
0.245818
0.24585
0.245872
0.245892
0.245914
0.245936
0.245957
0.245976
0.245994
0.246011
0.246027
0.246041
0.246054
0.246065
0.246074
0.246082
0.246087
0.246091
0.246093
0.245606
0.24579
0.245827
0.245855
0.24588
0.245906
0.245932
0.245958
0.245981
0.246002
0.246022
0.246041
0.246058
0.246073
0.246086
0.246096
0.246105
0.246111
0.246115
0.246118
0.24556
0.245759
0.245802
0.245836
0.245866
0.245898
0.24593
0.245959
0.245986
0.246011
0.246035
0.246056
0.246076
0.246093
0.246108
0.246121
0.246131
0.246138
0.246143
0.246145
0.245512
0.245724
0.245774
0.245815
0.245852
0.24589
0.245927
0.245961
0.245992
0.246022
0.246049
0.246074
0.246096
0.246116
0.246133
0.246148
0.246159
0.246168
0.246173
0.246176
0.245457
0.245685
0.245743
0.245792
0.245836
0.245881
0.245925
0.245964
0.246
0.246034
0.246065
0.246094
0.246119
0.246142
0.246162
0.246178
0.246191
0.2462
0.246206
0.246209
0.245396
0.245641
0.245707
0.245766
0.245819
0.245873
0.245924
0.245968
0.246009
0.246048
0.246084
0.246116
0.246145
0.246171
0.246193
0.246211
0.246225
0.246236
0.246242
0.246246
0.245323
0.245591
0.245667
0.245739
0.245801
0.245865
0.245923
0.245973
0.246021
0.246065
0.246105
0.246142
0.246175
0.246203
0.246228
0.246248
0.246264
0.246275
0.246282
0.246287
0.245242
0.245535
0.245622
0.24571
0.245783
0.245858
0.245924
0.245981
0.246034
0.246084
0.24613
0.246171
0.246208
0.246239
0.246266
0.246289
0.246306
0.246319
0.246327
0.246331
0.245146
0.245471
0.24557
0.245679
0.245764
0.245853
0.245925
0.24599
0.246051
0.246108
0.246159
0.246204
0.246245
0.24628
0.24631
0.246334
0.246353
0.246367
0.246376
0.246381
0.245036
0.2454
0.245512
0.245647
0.245746
0.245849
0.245929
0.246003
0.246072
0.246135
0.246192
0.246243
0.246287
0.246326
0.246358
0.246385
0.246406
0.246421
0.24643
0.246435
0.244891
0.245321
0.245445
0.245616
0.245728
0.245847
0.245936
0.24602
0.246097
0.246167
0.24623
0.246286
0.246335
0.246377
0.246412
0.246441
0.246464
0.24648
0.24649
0.246495
0.244709
0.245235
0.24537
0.245588
0.245712
0.245848
0.245946
0.246042
0.246128
0.246206
0.246275
0.246336
0.246389
0.246434
0.246473
0.246504
0.246528
0.246545
0.246555
0.246562
0.244479
0.245147
0.245285
0.245564
0.245698
0.245852
0.245961
0.24607
0.246165
0.246251
0.246326
0.246393
0.24645
0.246499
0.24654
0.246573
0.246599
0.246618
0.246628
0.246634
0.244165
0.245065
0.245192
0.245548
0.245687
0.245861
0.245984
0.246106
0.24621
0.246304
0.246386
0.246457
0.246519
0.246571
0.246615
0.24665
0.246677
0.246697
0.246707
0.246714
0.243872
0.244994
0.2451
0.24554
0.24568
0.245878
0.246014
0.24615
0.246264
0.246365
0.246454
0.24653
0.246596
0.246652
0.246698
0.246735
0.246763
0.246784
0.246794
0.246802
0.243686
0.244933
0.245025
0.245539
0.245677
0.245905
0.246054
0.246204
0.246327
0.246437
0.246531
0.246612
0.246682
0.24674
0.246789
0.246827
0.246857
0.246878
0.246889
0.246897
0.243577
0.244888
0.244978
0.245542
0.245681
0.245945
0.246106
0.24627
0.246402
0.246519
0.246618
0.246704
0.246777
0.246838
0.246888
0.246928
0.246959
0.246981
0.246992
0.247
0.243522
0.244865
0.244956
0.245552
0.245702
0.245999
0.246173
0.24635
0.246488
0.246612
0.246717
0.246806
0.246882
0.246945
0.246997
0.247038
0.247069
0.247092
0.247103
0.247111
0.243494
0.244858
0.244947
0.24558
0.245745
0.24607
0.246255
0.246444
0.246589
0.246719
0.246827
0.24692
0.246997
0.247062
0.247115
0.247157
0.247188
0.247211
0.247222
0.24723
0.243483
0.244864
0.244961
0.245638
0.245816
0.246161
0.246354
0.246554
0.246705
0.246839
0.24695
0.247044
0.247123
0.247189
0.247242
0.247285
0.247316
0.247339
0.24735
0.247357
0.243526
0.244912
0.24502
0.245733
0.245918
0.246277
0.246473
0.246681
0.246835
0.246974
0.247086
0.247182
0.247261
0.247326
0.24738
0.247422
0.247453
0.247475
0.247486
0.247493
0.243665
0.24503
0.245142
0.245871
0.246056
0.24642
0.246615
0.246827
0.246982
0.247122
0.247235
0.247331
0.24741
0.247474
0.247527
0.247568
0.247598
0.24762
0.24763
0.247637
0.243899
0.245224
0.245332
0.246053
0.246231
0.246592
0.24678
0.246994
0.247146
0.247285
0.247396
0.247491
0.247569
0.247633
0.247684
0.247723
0.247753
0.247773
0.247782
0.247789
0.244213
0.245487
0.245583
0.246277
0.246444
0.246793
0.246971
0.247181
0.247327
0.247463
0.247571
0.247663
0.247738
0.2478
0.247849
0.247887
0.247915
0.247934
0.247942
0.247949
0.244581
0.2458
0.245886
0.246539
0.246692
0.247022
0.247186
0.247387
0.247526
0.247656
0.247758
0.247846
0.247918
0.247976
0.248022
0.248058
0.248085
0.248102
0.248109
0.248115
0.244993
0.246153
0.246228
0.246835
0.246971
0.247275
0.247425
0.247613
0.24774
0.247863
0.247958
0.24804
0.248106
0.24816
0.248204
0.248237
0.248261
0.248277
0.248282
0.248287
0.245431
0.246532
0.2466
0.247157
0.247277
0.247551
0.247684
0.247856
0.24797
0.248082
0.248168
0.248243
0.248303
0.248353
0.248391
0.248421
0.248442
0.248456
0.24846
0.248465
0.245891
0.246931
0.246995
0.247499
0.247603
0.247845
0.24796
0.248113
0.248214
0.248313
0.248389
0.248455
0.248508
0.248551
0.248585
0.248611
0.248629
0.248641
0.248643
0.248647
0.246366
0.247346
0.247406
0.247857
0.247946
0.248154
0.248251
0.248383
0.248468
0.248553
0.248618
0.248674
0.248719
0.248756
0.248784
0.248806
0.24882
0.248829
0.24883
0.248832
0.246857
0.247773
0.247829
0.248226
0.248301
0.248474
0.248554
0.248662
0.248731
0.248801
0.248853
0.248899
0.248936
0.248965
0.248987
0.249004
0.249015
0.249021
0.24902
0.249021
0.247358
0.248209
0.248262
0.248605
0.248664
0.248803
0.248864
0.248949
0.249001
0.249054
0.249094
0.249129
0.249156
0.249177
0.249193
0.249204
0.249211
0.249214
0.249211
0.249211
0.24787
0.248652
0.2487
0.248992
0.249033
0.249138
0.24918
0.24924
0.249275
0.249312
0.249338
0.249361
0.249378
0.249391
0.2494
0.249406
0.249408
0.249408
0.249403
0.249402
0.248388
0.2491
0.249141
0.249383
0.249403
0.249477
0.249499
0.249534
0.249552
0.249571
0.249584
0.249594
0.249601
0.249605
0.249607
0.249607
0.249605
0.249602
0.249595
0.249593
0.248913
0.249551
0.249584
0.249778
0.249774
0.249817
0.249818
0.249829
0.249829
0.249831
0.249829
0.249827
0.249823
0.249819
0.249814