/*--------------------------------*- C++ -*----------------------------------*\
  =========                 |
  \\      /  F ield         | OpenFOAM: The Open Source CFD Toolbox
   \\    /   O peration     | Website:  https://openfoam.org
    \\  /    A nd           | Version:  7
     \\/     M anipulation  |
\*---------------------------------------------------------------------------*/
FoamFile
{
    version     2.0;
    format      ascii;
    class       volVectorField;
    location    "0.1425";
    object      U;
}
// * * * * * * * * * * * * * * * * * * * * * * * * * * * * * * * * * * * * * //

dimensions      [0 1 -1 0 0 0 0];

internalField   nonuniform List<vector> 
48560
(
(221.948 -5.36777 -4.90888e-11)
(221.756 -6.19696 -5.89375e-11)
(221.586 -7.02836 -7.81963e-11)
(221.439 -7.84037 -1.00127e-10)
(221.307 -8.63328 -1.31233e-10)
(221.187 -9.40123 -1.65901e-10)
(221.076 -10.147 -2.09138e-10)
(220.97 -10.8665 -2.55741e-10)
(220.868 -11.5639 -3.09363e-10)
(220.768 -12.2366 -3.65499e-10)
(220.668 -12.8903 -4.26003e-10)
(220.567 -13.5232 -4.87274e-10)
(220.464 -14.1407 -5.49568e-10)
(220.357 -14.7412 -6.09861e-10)
(220.245 -15.3284 -6.66315e-10)
(220.126 -15.9005 -7.17091e-10)
(219.998 -16.4603 -7.58908e-10)
(219.858 -17.0061 -7.89898e-10)
(219.706 -17.5399 -8.06819e-10)
(219.536 -18.0609 -8.07846e-10)
(219.348 -18.5705 -7.89941e-10)
(219.136 -19.0684 -7.51128e-10)
(218.896 -19.555 -6.89669e-10)
(218.623 -20.0296 -6.0281e-10)
(218.314 -20.4915 -4.9287e-10)
(217.961 -20.9396 -3.56751e-10)
(217.56 -21.3724 -1.98027e-10)
(217.042 -21.8648 1.70367e-11)
(216.288 -22.4137 3.1154e-10)
(215.395 -22.9119 5.96097e-10)
(214.308 -23.3846 8.82246e-10)
(212.965 -23.8067 1.15998e-09)
(211.283 -24.1916 1.37828e-09)
(209.083 -24.5151 1.53878e-09)
(206.06 -24.7615 1.44294e-09)
(202.494 -24.8963 1.19456e-09)
(198.255 -24.8756 5.65353e-10)
(193.605 -24.746 -1.40119e-10)
(188.79 -24.4531 -1.37801e-09)
(184.857 -24.0504 -2.54081e-09)
(180.813 -23.2555 -4.16578e-09)
(176.736 -22.6198 -4.55068e-09)
(172.88 -21.4531 -5.9139e-09)
(169.15 -20.0219 -6.40535e-09)
(165.806 -18.713 -7.02789e-09)
(165.084 -16.0969 -9.50556e-09)
(171.772 -12.2476 -1.2524e-08)
(191.39 -6.88455 -1.7119e-08)
(221.31 -4.08039 -2.21833e-08)
(250.056 -7.78872 -2.61625e-08)
(271.686 -31.4682 -2.92623e-08)
(263.864 -74.1573 -3.08641e-08)
(229.269 -57.6505 -2.97285e-08)
(214.681 -60.7851 -2.98148e-08)
(195.662 -51.6236 -2.92092e-08)
(183.878 -51.0943 -2.92486e-08)
(165.481 -43.5363 -2.86459e-08)
(153.75 -41.3576 -2.86604e-08)
(133.696 -34.3428 -2.80029e-08)
(121.444 -31.2416 -2.8041e-08)
(99.3227 -24.1236 -2.7312e-08)
(85.6832 -20.417 -2.73076e-08)
(66.0753 -11.0082 -2.64249e-08)
(66.3463 -8.54312 -2.67593e-08)
(55.7814 -5.57966 -2.62876e-08)
(52.6453 1.12768 -2.60737e-08)
(56.5747 2.2247 -2.63178e-08)
(58.8228 4.44236 -2.65354e-08)
(60.5567 6.50868 -2.6741e-08)
(63.5756 8.64362 -2.70252e-08)
(67.9237 11.4707 -2.74349e-08)
(73.4448 14.9745 -2.78838e-08)
(80.3088 19.2409 -2.83873e-08)
(88.73 24.4694 -2.8928e-08)
(98.9291 30.8338 -2.95111e-08)
(111.36 38.4929 -3.01212e-08)
(127.427 48.2366 -3.07969e-08)
(149.439 61.6848 -3.15083e-08)
(182.285 78.9864 -3.22217e-08)
(220.441 84.7197 -3.28703e-08)
(259.689 66.4919 -3.3774e-08)
(254.786 60.4473 -3.40216e-08)
(246.368 53.3836 -3.43872e-08)
(251.803 56.0634 -3.43963e-08)
(256.211 56.6906 -3.46409e-08)
(267.566 53.7093 -3.53866e-08)
(271.759 43.0845 -3.55566e-08)
(275.783 36.6796 -3.59246e-08)
(275.79 26.9355 -3.60924e-08)
(275.43 19.8337 -3.63775e-08)
(273.263 14.3847 -3.64781e-08)
(270.017 8.44321 -3.66555e-08)
(266.521 3.74695 -3.68044e-08)
(263.136 -0.00116587 -3.69446e-08)
(260.008 -3.04811 -3.70512e-08)
(257.305 -5.51271 -3.71565e-08)
(255.075 -7.47895 -3.72364e-08)
(253.411 -8.90356 -3.72998e-08)
(252.353 -9.71777 -3.73456e-08)
(252.112 -9.95824 -3.73693e-08)
(221.193 -5.08794 -5.8977e-10)
(221.01 -5.94577 -6.1801e-10)
(220.842 -6.80033 -6.46895e-10)
(220.707 -7.64513 -6.73484e-10)
(220.579 -8.46261 -6.99121e-10)
(220.468 -9.26023 -7.18656e-10)
(220.357 -10.0283 -7.35821e-10)
(220.252 -10.7749 -7.43105e-10)
(220.142 -11.4973 -7.45678e-10)
(220.029 -12.2044 -7.34552e-10)
(219.91 -12.8958 -7.18474e-10)
(219.784 -13.5731 -6.87759e-10)
(219.648 -14.235 -6.47572e-10)
(219.5 -14.8798 -5.90237e-10)
(219.336 -15.507 -5.19794e-10)
(219.156 -16.1141 -4.3128e-10)
(218.954 -16.7021 -3.28205e-10)
(218.73 -17.2693 -2.08705e-10)
(218.479 -17.8191 -7.68324e-11)
(218.199 -18.3515 6.61202e-11)
(217.884 -18.8698 2.22284e-10)
(217.53 -19.3712 3.86004e-10)
(217.128 -19.8553 5.60004e-10)
(216.673 -20.3192 7.35533e-10)
(216.148 -20.7628 9.17524e-10)
(215.539 -21.1841 1.09064e-09)
(214.828 -21.5814 1.25756e-09)
(213.85 -22.0214 1.4149e-09)
(212.236 -22.4905 1.51303e-09)
(210.28 -22.9014 1.40492e-09)
(208.02 -23.2593 1.20327e-09)
(205.37 -23.5389 6.85009e-10)
(202.472 -23.7666 1.11456e-10)
(199.347 -23.9086 -9.01465e-10)
(196.473 -23.9689 -1.93646e-09)
(193.657 -23.8484 -3.34175e-09)
(191.148 -23.7678 -3.79552e-09)
(188.659 -23.5226 -5.07386e-09)
(186.654 -23.2635 -5.89852e-09)
(184.847 -22.7267 -6.77063e-09)
(183.408 -22.2536 -7.20735e-09)
(183.043 -21.7386 -8.15527e-09)
(184.919 -20.8173 -1.09418e-08)
(190.628 -20.8876 -1.2565e-08)
(204.55 -21.4822 -1.69174e-08)
(229.837 -22.8103 -2.20616e-08)
(255.638 -23.8668 -2.63492e-08)
(277.808 -24.7593 -2.96258e-08)
(288.945 -26.5141 -3.10002e-08)
(295.841 -34.6626 -3.23929e-08)
(287.449 -53.5423 -3.2754e-08)
(275.131 -72.074 -3.32455e-08)
(246.997 -67.1274 -3.26844e-08)
(235.294 -67.3323 -3.26011e-08)
(216.33 -61.472 -3.22359e-08)
(206.916 -58.394 -3.20992e-08)
(189.502 -52.649 -3.17872e-08)
(179.974 -48.589 -3.15821e-08)
(162.665 -42.4782 -3.12965e-08)
(152.775 -37.7518 -3.10359e-08)
(136.166 -31.2762 -3.07781e-08)
(125.728 -26.056 -3.03934e-08)
(113.384 -16.8047 -3.00703e-08)
(111.847 -12.2643 -2.98506e-08)
(107.958 -6.68253 -2.98558e-08)
(105.468 1.30449 -2.93715e-08)
(111.121 3.49158 -2.98204e-08)
(113.938 8.65579 -2.99014e-08)
(116.835 11.7532 -3.0149e-08)
(121.023 15.5199 -3.03245e-08)
(124.798 18.9556 -3.06283e-08)
(130.436 23.1842 -3.08751e-08)
(135.909 27.5026 -3.12291e-08)
(143.594 32.9526 -3.15407e-08)
(151.846 39.1091 -3.19466e-08)
(163.024 46.951 -3.23266e-08)
(176.868 56.9038 -3.28058e-08)
(197.309 71.479 -3.32761e-08)
(221.301 90.2733 -3.38531e-08)
(241.908 94.6582 -3.44576e-08)
(258.387 73.9818 -3.50286e-08)
(263.721 63.9366 -3.55062e-08)
(266.057 61.5186 -3.57047e-08)
(270.263 62.6656 -3.61608e-08)
(272.857 63.466 -3.59426e-08)
(275.839 59.6065 -3.69404e-08)
(277.533 51.0351 -3.65125e-08)
(279.534 43.4011 -3.72386e-08)
(278.851 33.3397 -3.68525e-08)
(278.005 24.7954 -3.75718e-08)
(274.971 16.7012 -3.71519e-08)
(272.278 10.845 -3.7695e-08)
(268.296 5.71674 -3.73668e-08)
(265.214 1.9854 -3.77599e-08)
(261.552 -1.19583 -3.74901e-08)
(258.961 -3.59794 -3.77633e-08)
(256.277 -5.6709 -3.75496e-08)
(254.712 -7.14225 -3.77098e-08)
(253.724 -7.74748 -3.7601e-08)
(253.359 -7.93816 -3.76233e-08)
(219.99 -4.79959 -1.82295e-10)
(219.794 -5.71129 -1.57159e-10)
(219.578 -6.62104 -1.04031e-10)
(219.426 -7.52538 -6.28177e-11)
(219.248 -8.39304 3.82259e-12)
(219.109 -9.24214 6.17217e-11)
(218.94 -10.0545 1.41754e-10)
(218.79 -10.8541 2.16503e-10)
(218.606 -11.6305 3.09299e-10)
(218.426 -12.3961 3.98997e-10)
(218.209 -13.1356 5.04688e-10)
(217.983 -13.8554 6.10669e-10)
(217.719 -14.5413 7.26599e-10)
(217.431 -15.199 8.41127e-10)
(217.095 -15.8191 9.5684e-10)
(216.715 -16.4094 1.06484e-09)
(216.264 -16.9672 1.16013e-09)
(215.734 -17.502 1.23306e-09)
(215.089 -18.0149 1.2662e-09)
(214.399 -18.5117 1.28292e-09)
(213.613 -18.9919 1.25251e-09)
(212.771 -19.4574 1.18926e-09)
(211.835 -19.9046 1.06281e-09)
(210.831 -20.3305 9.20502e-10)
(209.731 -20.7366 6.76597e-10)
(208.561 -21.1166 4.14084e-10)
(207.318 -21.4732 2.74808e-11)
(205.834 -21.8559 -4.54983e-10)
(203.895 -22.2597 -1.32131e-09)
(202.311 -22.6013 -2.15651e-09)
(200.522 -22.8638 -3.27235e-09)
(199.026 -23.0901 -3.59859e-09)
(197.416 -23.2614 -4.62378e-09)
(196.139 -23.3987 -5.19824e-09)
(194.947 -23.4174 -5.95201e-09)
(193.89 -23.3378 -6.42745e-09)
(193.275 -23.1709 -7.12888e-09)
(193.118 -22.9855 -8.07662e-09)
(194.533 -22.8286 -1.0062e-08)
(197.556 -23.0408 -1.12229e-08)
(204.158 -23.6031 -1.37616e-08)
(215.886 -24.703 -1.69598e-08)
(233.747 -26.1254 -2.12585e-08)
(253.359 -27.6655 -2.46792e-08)
(273.414 -28.0493 -2.86306e-08)
(287.787 -27.1179 -3.03368e-08)
(299.473 -26.4188 -3.21806e-08)
(305.308 -27.0857 -3.26756e-08)
(307.594 -31.1717 -3.32161e-08)
(303.599 -41.4126 -3.32819e-08)
(292.418 -57.7442 -3.32463e-08)
(276.518 -68.0654 -3.30855e-08)
(256.592 -61.9599 -3.29084e-08)
(244.507 -65.3499 -3.26542e-08)
(227.863 -57.5582 -3.24962e-08)
(217.675 -57.0995 -3.22077e-08)
(202.677 -49.8137 -3.20868e-08)
(192.626 -47.5255 -3.17754e-08)
(178.162 -40.712 -3.16925e-08)
(168.183 -37.2399 -3.13595e-08)
(155.111 -30.7833 -3.13102e-08)
(145.973 -26.3742 -3.09585e-08)
(137.71 -18.2056 -3.0918e-08)
(136.059 -13.8375 -3.06466e-08)
(135.387 -5.90469 -3.07411e-08)
(132.908 0.995014 -3.0446e-08)
(138.64 4.57927 -3.07969e-08)
(139.529 10.9696 -3.07388e-08)
(143.233 14.6249 -3.1026e-08)
(145.455 19.6312 -3.10696e-08)
(149.132 23.9291 -3.13805e-08)
(152.45 28.994 -3.1509e-08)
(156.904 34.1491 -3.18514e-08)
(162.028 40.1001 -3.20633e-08)
(168.646 46.7089 -3.24541e-08)
(177.393 54.5429 -3.27603e-08)
(189.893 64.2627 -3.32305e-08)
(208.61 76.2672 -3.3661e-08)
(232.075 84.8544 -3.4215e-08)
(250.996 79.659 -3.46683e-08)
(260.317 67.7104 -3.50184e-08)
(265.186 63.5585 -3.52873e-08)
(267.593 61.0896 -3.55837e-08)
(272.031 59.6339 -3.61037e-08)
(274.946 55.1727 -3.5927e-08)
(277.793 48.568 -3.67522e-08)
(278.733 41.1951 -3.62564e-08)
(280.056 33.9935 -3.69674e-08)
(278.899 26.4906 -3.65773e-08)
(277.593 20.1403 -3.71008e-08)
(274.456 14.266 -3.68305e-08)
(271.703 9.30767 -3.71959e-08)
(267.975 5.10045 -3.6981e-08)
(264.962 1.73823 -3.72379e-08)
(261.557 -1.00204 -3.70587e-08)
(258.988 -3.0732 -3.72323e-08)
(256.461 -4.57348 -3.70826e-08)
(254.881 -5.47512 -3.71856e-08)
(253.926 -5.77581 -3.71106e-08)
(253.57 -5.88516 -3.71228e-08)
(216.945 -4.5161 6.05796e-10)
(216.669 -5.4526 6.62427e-10)
(216.272 -6.37381 6.7263e-10)
(216.013 -7.29302 7.05739e-10)
(215.633 -8.16744 7.03815e-10)
(215.345 -9.02763 7.07465e-10)
(214.93 -9.84965 6.85291e-10)
(214.57 -10.6653 6.5256e-10)
(214.094 -11.4558 5.99556e-10)
(213.659 -12.2358 5.21298e-10)
(213.126 -12.9854 4.23738e-10)
(212.619 -13.7173 2.87825e-10)
(212.03 -14.4179 1.30098e-10)
(211.455 -15.0985 -7.59984e-11)
(210.812 -15.75 -3.07838e-10)
(210.181 -16.3815 -5.93646e-10)
(209.506 -16.9859 -9.05451e-10)
(208.86 -17.5686 -1.26661e-09)
(208.224 -18.1218 -1.63997e-09)
(207.586 -18.6475 -2.07182e-09)
(206.953 -19.1412 -2.52605e-09)
(206.34 -19.6068 -3.03167e-09)
(205.715 -20.0195 -3.164e-09)
(205.105 -20.4334 -3.6415e-09)
(204.494 -20.8072 -3.877e-09)
(203.911 -21.1732 -4.33784e-09)
(203.344 -21.5008 -4.63933e-09)
(202.739 -21.8597 -5.1468e-09)
(202.045 -22.2178 -5.65398e-09)
(201.515 -22.5038 -6.11792e-09)
(200.994 -22.6711 -6.40306e-09)
(200.72 -22.7675 -6.94294e-09)
(200.623 -22.8607 -7.70074e-09)
(201.337 -23.065 -9.16567e-09)
(202.72 -23.2559 -9.89139e-09)
(205.363 -23.7415 -1.14593e-08)
(209.958 -24.5071 -1.31916e-08)
(217.063 -25.7166 -1.55846e-08)
(229.132 -27.4876 -1.87421e-08)
(242.037 -29.3752 -2.15391e-08)
(258.048 -31.3144 -2.50945e-08)
(272.303 -32.602 -2.75564e-08)
(285.722 -33.2319 -2.99959e-08)
(296.953 -33.4717 -3.14378e-08)
(305.756 -33.1009 -3.28285e-08)
(311.081 -32.9128 -3.30328e-08)
(314.26 -33.5222 -3.36206e-08)
(315.309 -35.981 -3.34178e-08)
(312.889 -41.2704 -3.35976e-08)
(306.176 -50.7481 -3.32316e-08)
(294.206 -61.8916 -3.3114e-08)
(279.336 -67.2207 -3.25972e-08)
(262.275 -65.1722 -3.28106e-08)
(249.867 -65.1665 -3.22637e-08)
(235.469 -59.8278 -3.24097e-08)
(224.749 -57.4533 -3.19128e-08)
(211.732 -51.4211 -3.20321e-08)
(201.411 -47.8927 -3.15926e-08)
(189.023 -41.7755 -3.17073e-08)
(179.179 -37.4837 -3.12989e-08)
(168.46 -31.2252 -3.14026e-08)
(160.276 -25.9414 -3.105e-08)
(154.009 -18.3002 -3.11595e-08)
(152.301 -12.9599 -3.08688e-08)
(152.213 -5.0376 -3.10201e-08)
(150.306 0.59622 -3.08245e-08)
(154.922 5.91014 -3.10606e-08)
(154.343 11.8018 -3.09805e-08)
(158.262 16.0943 -3.12378e-08)
(158.94 21.0267 -3.12463e-08)
(162.825 25.4656 -3.15293e-08)
(164.794 30.3338 -3.16217e-08)
(169.395 35.4427 -3.19367e-08)
(173.53 41.0822 -3.21161e-08)
(180.515 47.6158 -3.24797e-08)
(189.03 55.3924 -3.27577e-08)
(202.267 65.3123 -3.31942e-08)
(219.259 76.2533 -3.3578e-08)
(237.755 81.7575 -3.40774e-08)
(252.199 74.5075 -3.44195e-08)
(260.429 66.6996 -3.46217e-08)
(265.766 64.3273 -3.48227e-08)
(269.16 61.9006 -3.5333e-08)
(272.983 59.8103 -3.54107e-08)
(274.784 54.6562 -3.56419e-08)
(276.836 47.8173 -3.59799e-08)
(277.628 41.2826 -3.58966e-08)
(278.355 34.4167 -3.62117e-08)
(277.297 27.511 -3.61262e-08)
(275.953 21.1935 -3.63753e-08)
(273.187 15.3352 -3.62464e-08)
(270.511 10.5055 -3.64984e-08)
(267.077 6.3556 -3.63578e-08)
(264.134 3.06835 -3.65321e-08)
(260.949 0.376962 -3.64071e-08)
(258.489 -1.65744 -3.65249e-08)
(256.193 -3.03843 -3.6416e-08)
(254.762 -3.74221 -3.64812e-08)
(253.938 -3.9057 -3.64213e-08)
(253.624 -3.94779 -3.64361e-08)
(212.16 -3.91966 -2.46623e-09)
(211.788 -4.85687 -2.47463e-09)
(211.386 -5.76189 -2.76174e-09)
(211.094 -6.73364 -2.68558e-09)
(210.753 -7.63235 -2.9494e-09)
(210.489 -8.56936 -2.94929e-09)
(210.161 -9.44521 -3.2041e-09)
(209.889 -10.3468 -3.26882e-09)
(209.562 -11.1987 -3.52422e-09)
(209.294 -12.0655 -3.64411e-09)
(208.985 -12.8887 -3.90592e-09)
(208.734 -13.7159 -4.07151e-09)
(208.451 -14.501 -4.34025e-09)
(208.222 -15.2777 -4.53989e-09)
(207.97 -16.0086 -4.8108e-09)
(207.767 -16.7155 -5.02912e-09)
(207.547 -17.3661 -5.29075e-09)
(207.371 -17.9735 -5.50758e-09)
(207.178 -18.5128 -5.74319e-09)
(207.01 -18.9998 -5.93528e-09)
(206.823 -19.423 -6.11897e-09)
(206.641 -19.8027 -6.24958e-09)
(206.516 -20.1634 -6.73708e-09)
(206.488 -20.488 -7.04784e-09)
(206.554 -20.7975 -7.51275e-09)
(206.757 -21.0909 -7.94412e-09)
(207.103 -21.3865 -8.43499e-09)
(207.718 -21.7475 -9.04589e-09)
(208.716 -22.1503 -9.81243e-09)
(210.385 -22.6404 -1.07321e-08)
(212.694 -23.2256 -1.18384e-08)
(216.166 -24.0195 -1.32866e-08)
(220.888 -25.0413 -1.49546e-08)
(227.918 -26.4077 -1.70903e-08)
(236.384 -28.022 -1.92057e-08)
(246.403 -29.9173 -2.18131e-08)
(257.473 -31.8512 -2.41576e-08)
(268.783 -33.6124 -2.6604e-08)
(278.806 -34.7607 -2.83544e-08)
(289.198 -35.8188 -3.02319e-08)
(298.057 -36.4025 -3.15784e-08)
(305.613 -36.7806 -3.25832e-08)
(311.616 -36.7856 -3.33142e-08)
(315.959 -36.6577 -3.35999e-08)
(318.799 -36.5514 -3.38533e-08)
(320.298 -37.0858 -3.36888e-08)
(320.672 -38.5033 -3.37719e-08)
(319.102 -41.5323 -3.33972e-08)
(314.9 -47.394 -3.33896e-08)
(307.007 -55.6094 -3.28815e-08)
(295.352 -63.4395 -3.2692e-08)
(281.702 -66.2217 -3.20213e-08)
(266.447 -64.8273 -3.23872e-08)
(254.173 -64.14 -3.17453e-08)
(241.133 -59.1637 -3.2011e-08)
(230.155 -56.7096 -3.14594e-08)
(218.416 -50.6664 -3.16694e-08)
(207.931 -47.1978 -3.12203e-08)
(196.804 -40.9442 -3.14063e-08)
(187.069 -36.6866 -3.101e-08)
(177.686 -30.2192 -3.11579e-08)
(170.218 -24.9366 -3.08589e-08)
(165.122 -17.4567 -3.10177e-08)
(163.387 -11.6318 -3.07598e-08)
(163.211 -4.12556 -3.09123e-08)
(162.016 1.01011 -3.07992e-08)
(165.117 7.60495 -3.09065e-08)
(164.316 12.9174 -3.08751e-08)
(167.501 18.063 -3.1038e-08)
(167.696 23.0784 -3.1069e-08)
(171.112 27.9678 -3.12784e-08)
(172.538 33.0226 -3.13831e-08)
(176.9 38.3655 -3.16487e-08)
(180.617 44.1487 -3.18373e-08)
(187.63 50.8065 -3.21668e-08)
(196.042 58.4528 -3.24486e-08)
(209.381 67.3725 -3.28586e-08)
(225.223 75.0112 -3.3233e-08)
(241.657 76.2751 -3.36491e-08)
(252.951 70.3997 -3.3896e-08)
(260.631 65.523 -3.40172e-08)
(266.074 62.6768 -3.40902e-08)
(269.843 59.9258 -3.49631e-08)
(273.195 55.7459 -3.47327e-08)
(274.783 49.9371 -3.51963e-08)
(276.234 43.6947 -3.53659e-08)
(276.769 37.6642 -3.53606e-08)
(276.97 31.1405 -3.54356e-08)
(275.795 25.2207 -3.54834e-08)
(274.215 19.5076 -3.55986e-08)
(271.656 14.5163 -3.55212e-08)
(269.066 10.0867 -3.56989e-08)
(265.979 6.44387 -3.56149e-08)
(263.178 3.43752 -3.57342e-08)
(260.286 1.14874 -3.56456e-08)
(257.948 -0.526155 -3.57153e-08)
(255.909 -1.57928 -3.56358e-08)
(254.633 -2.11049 -3.56757e-08)
(253.925 -2.22352 -3.5632e-08)
(253.652 -2.25173 -3.56484e-08)
(212.224 -3.32322 -5.77458e-09)
(211.796 -4.30993 -5.81023e-09)
(211.475 -5.33814 -5.80042e-09)
(211.198 -6.35658 -5.97097e-09)
(210.987 -7.3703 -6.05303e-09)
(210.804 -8.36676 -6.21368e-09)
(210.649 -9.33754 -6.36324e-09)
(210.521 -10.2987 -6.53443e-09)
(210.415 -11.2227 -6.73725e-09)
(210.362 -12.1291 -6.93253e-09)
(210.341 -12.986 -7.18048e-09)
(210.396 -13.8155 -7.40941e-09)
(210.495 -14.5885 -7.6996e-09)
(210.689 -15.3298 -7.9705e-09)
(210.944 -16.0177 -8.30496e-09)
(211.313 -16.6798 -8.627e-09)
(211.766 -17.3019 -9.01354e-09)
(212.353 -17.9084 -9.40036e-09)
(213.048 -18.4856 -9.85679e-09)
(213.923 -19.0597 -1.03408e-08)
(214.972 -19.6272 -1.09151e-08)
(216.295 -20.2149 -1.15624e-08)
(217.897 -20.8259 -1.23186e-08)
(219.861 -21.4756 -1.30824e-08)
(222.273 -22.1798 -1.40094e-08)
(225.257 -22.9602 -1.49914e-08)
(228.961 -23.8495 -1.61789e-08)
(234.331 -25.055 -1.77129e-08)
(239.48 -26.2804 -1.91888e-08)
(246.609 -27.8683 -2.10448e-08)
(253.445 -29.4139 -2.2755e-08)
(261.428 -31.1295 -2.46187e-08)
(269.009 -32.7209 -2.62619e-08)
(276.484 -34.1688 -2.77823e-08)
(283.816 -35.4975 -2.91622e-08)
(291.074 -36.6868 -3.0486e-08)
(297.839 -37.6765 -3.15352e-08)
(303.981 -38.4624 -3.24856e-08)
(309.354 -39.0636 -3.31024e-08)
(314.008 -39.4957 -3.36873e-08)
(317.655 -39.7203 -3.3905e-08)
(320.571 -39.7982 -3.41162e-08)
(322.604 -39.8205 -3.40667e-08)
(323.96 -39.9838 -3.40104e-08)
(324.646 -40.4551 -3.38415e-08)
(324.614 -41.5092 -3.36319e-08)
(323.565 -43.4854 -3.34417e-08)
(320.759 -47.1877 -3.3112e-08)
(315.553 -52.7772 -3.29006e-08)
(307.172 -59.4736 -3.24087e-08)
(296.055 -64.9363 -3.21014e-08)
(283.196 -66.6853 -3.14156e-08)
(269.206 -65.33 -3.17989e-08)
(257.357 -63.9534 -3.11684e-08)
(245.12 -59.4789 -3.14468e-08)
(234.335 -56.3247 -3.09203e-08)
(223.218 -50.6289 -3.11432e-08)
(212.948 -46.5936 -3.07397e-08)
(202.441 -40.4926 -3.09379e-08)
(193.063 -35.7298 -3.05814e-08)
(184.39 -29.138 -3.07316e-08)
(177.555 -23.4467 -3.04897e-08)
(173.002 -16.144 -3.0664e-08)
(171.225 -10.0297 -3.04487e-08)
(170.781 -3.05354 -3.05926e-08)
(170.086 1.94695 -3.05335e-08)
(171.929 8.8614 -3.05505e-08)
(171.411 13.8274 -3.05689e-08)
(173.663 19.3879 -3.06482e-08)
(174.019 24.2364 -3.07124e-08)
(176.894 29.286 -3.08557e-08)
(178.494 34.2403 -3.09877e-08)
(182.68 39.573 -3.12081e-08)
(186.689 45.2741 -3.14146e-08)
(193.906 51.8487 -3.17118e-08)
(202.677 59.2861 -3.20043e-08)
(215.656 67.3322 -3.23794e-08)
(229.617 72.9249 -3.27397e-08)
(243.463 72.4298 -3.30953e-08)
(253.075 67.8684 -3.32902e-08)
(260.51 64.4322 -3.33832e-08)
(265.842 61.2144 -3.33796e-08)
(269.457 58.3607 -3.41503e-08)
(271.889 53.3212 -3.41743e-08)
(273.243 47.8195 -3.44067e-08)
(274.317 41.8416 -3.46553e-08)
(274.811 36.1822 -3.44969e-08)
(274.786 30.12 -3.46351e-08)
(273.788 24.6458 -3.46579e-08)
(272.263 19.2628 -3.47753e-08)
(270.006 14.7102 -3.47308e-08)
(267.549 10.5605 -3.484e-08)
(264.763 7.1985 -3.48001e-08)
(262.126 4.35519 -3.48763e-08)
(259.549 2.23241 -3.48169e-08)
(257.42 0.699564 -3.48548e-08)
(255.657 -0.17096 -3.47973e-08)
(254.53 -0.600822 -3.48191e-08)
(253.913 -0.688087 -3.47888e-08)
(253.673 -0.711096 -3.47964e-08)
(218.383 -2.39078 -1.01369e-08)
(217.832 -3.40168 -1.01186e-08)
(217.748 -4.424 -1.03062e-08)
(217.566 -5.50725 -1.04036e-08)
(217.73 -6.56655 -1.06324e-08)
(217.842 -7.64781 -1.0825e-08)
(218.202 -8.69272 -1.11108e-08)
(218.565 -9.73724 -1.13872e-08)
(219.154 -10.7428 -1.17404e-08)
(219.827 -11.7528 -1.21008e-08)
(220.733 -12.7417 -1.25361e-08)
(221.795 -13.7445 -1.29936e-08)
(223.12 -14.7414 -1.35344e-08)
(224.689 -15.7626 -1.41171e-08)
(226.59 -16.7943 -1.48005e-08)
(228.86 -17.8658 -1.55554e-08)
(231.605 -18.9735 -1.64412e-08)
(234.847 -20.1433 -1.74199e-08)
(238.339 -21.3346 -1.84555e-08)
(242.285 -22.586 -1.95641e-08)
(246.504 -23.8597 -2.07238e-08)
(251.109 -25.1717 -2.19265e-08)
(255.932 -26.4834 -2.31496e-08)
(261.021 -27.7999 -2.43752e-08)
(266.206 -29.0906 -2.55933e-08)
(271.439 -30.3496 -2.67537e-08)
(276.504 -31.5362 -2.78485e-08)
(281.88 -32.7976 -2.89311e-08)
(286.006 -33.8532 -2.97344e-08)
(291.79 -35.1754 -3.08071e-08)
(295.881 -36.1751 -3.14906e-08)
(301.108 -37.3516 -3.2352e-08)
(304.798 -38.2308 -3.28524e-08)
(309.213 -39.2077 -3.34676e-08)
(312.471 -39.9355 -3.38045e-08)
(316.09 -40.6615 -3.41959e-08)
(318.651 -41.1458 -3.43364e-08)
(321.348 -41.6143 -3.45148e-08)
(323.157 -41.9225 -3.44786e-08)
(324.989 -42.2212 -3.44893e-08)
(326.062 -42.3775 -3.43078e-08)
(327.089 -42.5991 -3.42094e-08)
(327.598 -42.8708 -3.39354e-08)
(327.887 -43.3557 -3.377e-08)
(327.666 -44.1655 -3.34637e-08)
(326.855 -45.5834 -3.32443e-08)
(324.908 -48.0602 -3.29252e-08)
(321.357 -51.8978 -3.26266e-08)
(315.525 -56.9775 -3.22752e-08)
(307.162 -62.2505 -3.18345e-08)
(296.622 -66.1267 -3.14061e-08)
(284.467 -67.1612 -3.07807e-08)
(271.436 -65.6541 -3.11097e-08)
(260.081 -63.7118 -3.05436e-08)
(248.427 -59.3753 -3.07837e-08)
(237.904 -55.8015 -3.03193e-08)
(227.22 -50.1569 -3.05195e-08)
(217.162 -45.7939 -3.01797e-08)
(207.084 -39.6351 -3.03701e-08)
(197.995 -34.5528 -3.00609e-08)
(189.819 -27.767 -3.01994e-08)
(183.4 -21.8492 -3.00098e-08)
(179.157 -14.5954 -3.01839e-08)
(177.254 -8.41463 -3.00092e-08)
(176.595 -1.71459 -3.014e-08)
(176.131 3.37493 -3.01158e-08)
(177.208 10.2514 -3.00788e-08)
(176.89 15.167 -3.0123e-08)
(178.458 20.9976 -3.01463e-08)
(179.008 25.8186 -3.02269e-08)
(181.385 31.0637 -3.03206e-08)
(183.2 36.0229 -3.04686e-08)
(187.104 41.4281 -3.06523e-08)
(191.374 47.1253 -3.0873e-08)
(198.513 53.5574 -3.1143e-08)
(207.438 60.4399 -3.1446e-08)
(219.773 66.9487 -3.17915e-08)
(232.43 70.3371 -3.21315e-08)
(244.364 69.0951 -3.24179e-08)
(252.935 65.7134 -3.2571e-08)
(260.127 62.62 -3.26338e-08)
(265.226 58.8998 -3.27844e-08)
(268.567 55.6924 -3.32992e-08)
(270.584 50.1871 -3.35567e-08)
(271.736 45.2235 -3.36125e-08)
(272.611 39.4472 -3.38292e-08)
(273.041 34.2721 -3.36931e-08)
(272.883 28.5952 -3.38542e-08)
(271.97 23.6549 -3.37947e-08)
(270.491 18.6672 -3.39439e-08)
(268.447 14.5368 -3.38827e-08)
(266.144 10.6729 -3.39817e-08)
(263.632 7.64464 -3.39516e-08)
(261.204 5.06234 -3.40069e-08)
(258.896 3.23521 -3.3963e-08)
(256.976 1.895 -3.39836e-08)
(255.442 1.17731 -3.39418e-08)
(254.444 0.809587 -3.3949e-08)
(253.901 0.740265 -3.3929e-08)
(253.686 0.720361 -3.39313e-08)
(237.354 -1.01994 -1.73506e-08)
(237.227 -2.14021 -1.74724e-08)
(237.8 -3.32676 -1.77985e-08)
(238.324 -4.63365 -1.80594e-08)
(239.46 -5.97162 -1.85001e-08)
(240.624 -7.38493 -1.89075e-08)
(242.322 -8.8018 -1.94708e-08)
(244.106 -10.2529 -2.00245e-08)
(246.356 -11.7013 -2.07098e-08)
(248.736 -13.188 -2.13974e-08)
(251.536 -14.6963 -2.21912e-08)
(254.496 -16.2536 -2.29898e-08)
(257.816 -17.8374 -2.38674e-08)
(261.28 -19.4567 -2.47404e-08)
(265.004 -21.0815 -2.56578e-08)
(268.789 -22.7061 -2.65456e-08)
(272.656 -24.2951 -2.74293e-08)
(276.455 -25.844 -2.82542e-08)
(280.442 -27.3632 -2.91074e-08)
(284.35 -28.8287 -2.98992e-08)
(288.324 -30.2407 -3.06871e-08)
(292.182 -31.5865 -3.14067e-08)
(296.001 -32.8642 -3.20976e-08)
(299.66 -34.0702 -3.27141e-08)
(303.197 -35.2032 -3.32857e-08)
(306.535 -36.2653 -3.37791e-08)
(309.696 -37.2548 -3.42209e-08)
(313.016 -38.3084 -3.46342e-08)
(314.435 -38.9682 -3.47139e-08)
(317.506 -39.9327 -3.50406e-08)
(319.003 -40.6042 -3.50531e-08)
(321.4 -41.3656 -3.52385e-08)
(322.62 -41.9436 -3.51533e-08)
(324.495 -42.5523 -3.52272e-08)
(325.486 -43.0417 -3.50651e-08)
(326.908 -43.5117 -3.50481e-08)
(327.645 -43.8998 -3.48174e-08)
(328.644 -44.2412 -3.47287e-08)
(329.142 -44.5505 -3.44423e-08)
(329.778 -44.8102 -3.43054e-08)
(330.045 -45.1152 -3.39753e-08)
(330.356 -45.4442 -3.38043e-08)
(330.279 -45.9159 -3.34587e-08)
(330.102 -46.6 -3.32592e-08)
(329.318 -47.713 -3.29046e-08)
(327.965 -49.5085 -3.26725e-08)
(325.396 -52.2421 -3.22977e-08)
(321.346 -56.0126 -3.20015e-08)
(315.233 -60.4103 -3.15773e-08)
(307.109 -64.5993 -3.11675e-08)
(297.09 -67.4306 -3.06647e-08)
(285.515 -68.0528 -3.01132e-08)
(273.314 -66.1856 -3.03693e-08)
(262.447 -63.8998 -2.98753e-08)
(251.304 -59.4769 -3.00637e-08)
(241.082 -55.5223 -2.96675e-08)
(230.745 -49.8383 -2.98362e-08)
(220.924 -45.0869 -2.95623e-08)
(211.178 -38.8391 -2.97398e-08)
(202.373 -33.3331 -2.94741e-08)
(194.561 -26.3599 -2.95988e-08)
(188.422 -20.1497 -2.94521e-08)
(184.309 -12.9555 -2.96244e-08)
(182.246 -6.74022 -2.9481e-08)
(181.403 -0.235386 -2.96014e-08)
(181.003 4.92907 -2.96e-08)
(181.619 11.6002 -2.95323e-08)
(181.381 16.5628 -2.95869e-08)
(182.5 22.4551 -2.95761e-08)
(183.138 27.2373 -2.96597e-08)
(185.175 32.5479 -2.97208e-08)
(187.154 37.4159 -2.98758e-08)
(190.904 42.7938 -3.00355e-08)
(195.461 48.3363 -3.02661e-08)
(202.598 54.5005 -3.05178e-08)
(211.553 60.7103 -3.08248e-08)
(222.993 65.9068 -3.11422e-08)
(234.306 67.8768 -3.14556e-08)
(244.774 66.5145 -3.1694e-08)
(252.777 63.8008 -3.18369e-08)
(259.642 60.7032 -3.18957e-08)
(264.422 56.7396 -3.20642e-08)
(267.37 53.3143 -3.26199e-08)
(269.122 47.8473 -3.25896e-08)
(270.099 43.252 -3.30107e-08)
(270.898 37.711 -3.27497e-08)
(271.244 32.9231 -3.30374e-08)
(271.061 27.5763 -3.29471e-08)
(270.209 23.0285 -3.30143e-08)
(268.833 18.3666 -3.30869e-08)
(266.97 14.5701 -3.30548e-08)
(264.86 10.9693 -3.31272e-08)
(262.583 8.21681 -3.31079e-08)
(260.377 5.83523 -3.31475e-08)
(258.314 4.22166 -3.3115e-08)
(256.6 3.04657 -3.31157e-08)
(255.255 2.44727 -3.30925e-08)
(254.37 2.1252 -3.30857e-08)
(253.886 2.06954 -3.30758e-08)
(253.694 2.05183 -3.30722e-08)
(268.099 -0.223238 -2.62563e-08)
(268.891 -1.5935 -2.65931e-08)
(270.06 -3.10197 -2.70005e-08)
(271.417 -4.76366 -2.74153e-08)
(273.124 -6.49639 -2.78967e-08)
(274.98 -8.31361 -2.83785e-08)
(277.137 -10.1495 -2.89196e-08)
(279.385 -12.0135 -2.94507e-08)
(281.865 -13.8604 -3.00268e-08)
(284.374 -15.7028 -3.05809e-08)
(287.049 -17.5212 -3.11629e-08)
(289.715 -19.3383 -3.17109e-08)
(292.496 -21.1366 -3.22706e-08)
(295.235 -22.9273 -3.27858e-08)
(298.036 -24.6921 -3.32984e-08)
(300.761 -26.4354 -3.37584e-08)
(303.501 -28.1384 -3.42041e-08)
(306.143 -29.7994 -3.45952e-08)
(308.764 -31.3966 -3.49658e-08)
(311.247 -32.9251 -3.52753e-08)
(313.673 -34.3718 -3.55591e-08)
(315.933 -35.7328 -3.57797e-08)
(318.105 -37.002 -3.59725e-08)
(320.098 -38.1782 -3.61029e-08)
(321.981 -39.2605 -3.62048e-08)
(323.683 -40.2504 -3.625e-08)
(325.261 -41.15 -3.62676e-08)
(326.799 -42.0694 -3.62278e-08)
(327.013 -42.5526 -3.60579e-08)
(328.317 -43.2838 -3.599e-08)
(328.769 -43.8567 -3.57451e-08)
(329.648 -44.3265 -3.56503e-08)
(329.971 -44.8189 -3.53602e-08)
(330.648 -45.1948 -3.52377e-08)
(330.883 -45.6446 -3.49193e-08)
(331.434 -45.986 -3.4772e-08)
(331.591 -46.3979 -3.44343e-08)
(332.01 -46.6972 -3.42684e-08)
(332.08 -47.0669 -3.39145e-08)
(332.344 -47.3542 -3.37302e-08)
(332.261 -47.7473 -3.3373e-08)
(332.279 -48.1703 -3.3171e-08)
(331.876 -48.8184 -3.28122e-08)
(331.356 -49.7332 -3.25915e-08)
(330.161 -51.1369 -3.2227e-08)
(328.387 -53.1811 -3.19744e-08)
(325.365 -56.0309 -3.15837e-08)
(321.02 -59.5408 -3.1276e-08)
(314.864 -63.3277 -3.08318e-08)
(307.047 -66.7144 -3.0432e-08)
(297.527 -68.854 -2.99072e-08)
(286.49 -69.1642 -2.94113e-08)
(275.048 -66.8608 -2.96058e-08)
(264.64 -64.2935 -2.91689e-08)
(253.98 -59.6653 -2.93123e-08)
(244.061 -55.3763 -2.89724e-08)
(234.042 -49.5432 -2.91137e-08)
(224.451 -44.4373 -2.88968e-08)
(214.999 -38.0171 -2.90648e-08)
(206.454 -32.1189 -2.88357e-08)
(198.936 -24.9274 -2.89488e-08)
(192.98 -18.444 -2.88354e-08)
(188.898 -11.2325 -2.90042e-08)
(186.642 -4.95885 -2.88884e-08)
(185.606 1.45406 -2.9e-08)
(185.163 6.63189 -2.90158e-08)
(185.494 13.1276 -2.89293e-08)
(185.25 18.1802 -2.89879e-08)
(186.057 24.0662 -2.89557e-08)
(186.696 28.8656 -2.90367e-08)
(188.504 34.2122 -2.90769e-08)
(190.567 39.0195 -2.92356e-08)
(194.232 44.3623 -2.93807e-08)
(198.961 49.7069 -2.96178e-08)
(206.02 55.4745 -2.98584e-08)
(214.783 60.7954 -3.01666e-08)
(225.356 64.6674 -3.04586e-08)
(235.624 65.6199 -3.07526e-08)
(245.023 64.3446 -3.09659e-08)
(252.602 61.8381 -3.1105e-08)
(259.063 58.5646 -3.11629e-08)
(263.509 54.3919 -3.13247e-08)
(266.149 50.8363 -3.18408e-08)
(267.724 45.5752 -3.16824e-08)
(268.565 41.2759 -3.23898e-08)
(269.303 36.0339 -3.17833e-08)
(269.564 31.5861 -3.23327e-08)
(269.389 26.5826 -3.19666e-08)
(268.574 22.392 -3.2332e-08)
(267.32 18.0625 -3.21469e-08)
(265.606 14.5821 -3.23172e-08)
(263.692 11.263 -3.22475e-08)
(261.622 8.76869 -3.23152e-08)
(259.639 6.61221 -3.22787e-08)
(257.795 5.19043 -3.23011e-08)
(256.275 4.15091 -3.22607e-08)
(255.088 3.64013 -3.22639e-08)
(254.301 3.35388 -3.22485e-08)
(253.869 3.30821 -3.22417e-08)
(253.696 3.29225 -3.22386e-08)
(296.22 0.0228832 -3.31255e-08)
(297.113 -1.45637 -3.34438e-08)
(297.954 -3.11029 -3.37239e-08)
(299.165 -4.93868 -3.40481e-08)
(300.372 -6.86525 -3.43424e-08)
(301.851 -8.89022 -3.46619e-08)
(303.336 -10.9471 -3.49571e-08)
(304.988 -13.0327 -3.526e-08)
(306.625 -15.0991 -3.55401e-08)
(308.331 -17.1505 -3.58125e-08)
(309.995 -19.1593 -3.60613e-08)
(311.664 -21.1454 -3.62904e-08)
(313.299 -23.0986 -3.64948e-08)
(314.913 -25.0274 -3.66718e-08)
(316.497 -26.9165 -3.6823e-08)
(318.037 -28.7663 -3.69406e-08)
(319.547 -30.5598 -3.70342e-08)
(320.994 -32.2951 -3.70903e-08)
(322.405 -33.9559 -3.71223e-08)
(323.736 -35.5408 -3.71171e-08)
(325.022 -37.0368 -3.70893e-08)
(326.217 -38.4439 -3.70255e-08)
(327.362 -39.7524 -3.69406e-08)
(328.407 -40.9662 -3.68224e-08)
(329.397 -42.0784 -3.66871e-08)
(330.287 -43.0964 -3.65194e-08)
(331.115 -44.0164 -3.6339e-08)
(331.872 -44.9471 -3.61044e-08)
(331.883 -45.3686 -3.59025e-08)
(332.534 -46.0986 -3.5668e-08)
(332.643 -46.5739 -3.53758e-08)
(333.073 -47.0422 -3.51653e-08)
(333.114 -47.428 -3.4849e-08)
(333.436 -47.7891 -3.46335e-08)
(333.437 -48.1322 -3.43104e-08)