/*--------------------------------*- C++ -*----------------------------------*\
  =========                 |
  \\      /  F ield         | OpenFOAM: The Open Source CFD Toolbox
   \\    /   O peration     | Website:  https://openfoam.org
    \\  /    A nd           | Version:  7
     \\/     M anipulation  |
\*---------------------------------------------------------------------------*/
FoamFile
{
    version     2.0;
    format      ascii;
    class       scalarField;
    location    "0.7/lagrangian/reactingCloud1";
    object      age;
}
// * * * * * * * * * * * * * * * * * * * * * * * * * * * * * * * * * * * * * //


2545
(
0.004955
0.00485
0.004745
0.00464
0.004535
0.00443
0.004325
0.00422
0.004115
0.00401
0.003905
0.0038
0.003695
0.00359
0.003485
0.00338
0.003275
0.00317
0.003065
0.00296
0.002855
0.00275
0.002645
0.00254
0.002435
0.00233
0.002225
0.00212
0.002015
0.00191
0.001805
0.0017
0.001595
0.00149
0.001385
0.00128
0.001175
0.00107
0.000965
0.00086
0.000755
0.00065
0.000545
0.00044
0.000335
0.00023
0.000125
2e-05
0.066185
0.062
0.01336
0.01168
0.011575
0.01147
0.011365
0.01126
0.01105
0.011155
0.010945
0.01084
0.010735
0.01063
0.01042
0.010315
0.0103112
0.01021
0.010105
0.010525
0.01
0.0099
0.0098
0.0097
0.0096
0.0095
0.0094
0.0092
0.0093
0.0091
0.009
0.0089
0.0088
0.0087
0.0086
0.0085
0.0084
0.0083
0.0082
0.0081
0.008
0.0079
0.0078
0.0077
0.0076
0.0075
0.0074
0.0073
0.0072
0.0071
0.007
0.0069
0.0068
0.0067
0.0066
0.0065
0.0064
0.0063
0.0062
0.0061
0.006
0.0059
0.005795
0.00579125
0.00569
0.005585
0.00548
0.005375
0.00527
0.005165
0.00506
0.01294
0.014305
0.01378
0.012625
0.01252
0.012415
0.01231
0.011995
0.0121
0.01273
0.01189
0.012205
0.011785
0.014095
0.0142
0.01483
0.01441
0.013885
0.01399
0.013675
0.01357
0.01315
0.01678
0.013045
0.013255
0.012835
0.013465
0.01748
0.01648
0.01858
0.01638
0.01658
0.01848
0.01628
0.01688
0.01618
0.015775
0.015565
0.01608
0.01546
0.01598
0.01588
0.01567
0.015145
0.014935
0.01525
0.01504
0.014725
0.015355
0.014515
0.01462
0.0255891
0.0385593
0.0199209
0.0186138
0.02103
0.01968
0.0225
0.01938
0.01918
0.01928
0.01878
0.01888
0.020505
0.02061
0.02019
0.01908
0.0204
0.01898
0.01838
0.01818
0.01828
0.01778
0.01798
0.01788
0.01808
0.01768
0.01738
0.01728
0.01718
0.01698
0.01708
0.01758
0.01868
0.01668
0.0290044
0.0524016
0.0242709
0.0250245
0.0541433
0.0238276
0.022153
0.0273828
0.0185711
0.0238531
0.0274216
0.0237076
0.0226456
0.02896
0.02616
0.02502
0.02397
0.023655
0.024075
0.02376
0.023235
0.02355
0.02313
0.023025
0.02334
0.02271
0.0232312
0.02439
0.02292
0.022815
0.022605
0.022185
0.02736
0.02208
0.02187
0.022395
0.02166
0.021975
0.021765
0.021345
0.02229
0.02145
0.02481
0.021555
0.021135
0.02124
0.020715
0.02082
0.01998
0.020085
0.020925
0.023445
0.01988
0.01978
0.020295
0.01958
0.01948
0.0274031
0.0309715
0.0289902
0.032345
0.027255
0.0301836
0.0337797
0.0297328
0.0298115
0.0313216
0.0253088
0.0285426
0.0318632
0.0311467
0.0264557
0.0307071
0.0358374
0.0455052
0.025694
0.0323871
0.0241537
0.0283791
0.0282498
0.0272371
0.0264102
0.0265021
0.0299737
0.0298316
0.0642218
0.0277968
0.0295201
0.0269433
0.0360154
0.0277518
0.0325814
0.0704901
0.0305327
0.0247913
0.0294021
0.0313664
0.032795
0.034685
0.034055
0.03374
0.031325
0.03437
0.0308
0.03038
0.031535
0.03122
0.0329
0.030275
0.02976
0.03017
0.02996
0.03101
0.0305862
0.0307962
0.030485
0.02946
0.02916
0.02956
0.02906
0.02926
0.02846
0.02936
0.030065
0.030695
0.02876
0.02806
0.02886
0.02816
0.02866
0.02986
0.02796
0.02856
0.02776
0.02786
0.02826
0.02836
0.02726
0.02716
0.02756
0.02686
0.02746
0.02966
0.036645
0.02696
0.02766
0.02636
0.02676
0.02606
0.02656
0.02626
0.025335
0.025755
0.02646
0.02586
0.02706
0.02565
0.024915
0.02544
0.025545
0.0247012
0.0250162
0.02523
0.02596
0.024705
0.03059
0.0246
0.024495
0.025125
0.02666
0.024285
0.02418
0.023865
0.0333981
0.0360159
0.038066
0.0346314
0.032783
0.0423206
0.0333411
0.038691
0.0381164
0.0348593
0.0388342
0.0344116
0.0332374
0.0358297
0.0355452
0.0378809
0.0394464
0.0319818
0.0321151
0.0359986
0.0364373
0.0331251
0.0388722
0.0356128
0.033234
0.0363865
0.0320974
0.0347918
0.0369762
0.0372712
0.041872
0.0377579
0.0327778
0.0398797
0.036876
0.0385547
0.0410022
0.0366042
0.0344126
0.0359194
0.0394278
0.031638
0.0373455
0.0370127
0.037137
0.0374715
0.0352187
0.03434
0.0357538
0.0377357
0.0374201
0.0440043
0.0352645
0.0385585
0.0377396
0.0358915
0.0366229
0.0315805
0.0361162
0.0486765
0.03567
0.0353279
0.0408742
0.0377179
0.0376669
0.0354113
0.0363364
0.0386652
0.0369471
0.0361656
0.0599936
0.0386071
0.0377863
0.0373061
0.0374376
0.0378682
0.0373584
0.0387278
0.036514
0.0325241
0.0381963
0.0345277
0.0392749
0.0353319
0.127564
0.0384935
0.04393
0.041305
0.040675
0.039245
0.040045
0.038645
0.038845
0.039345
0.039845
0.039945
0.038345
0.046125
0.04225
0.037945
0.038545
0.037545
0.04141
0.040465
0.04183
0.038245
0.038145
0.037745
0.037245
0.036845
0.036745
0.039745
0.038045
0.037645
0.037845
0.036445
0.036345
0.037045
0.036045
0.037445
0.036145
0.037145
0.03584
0.035525
0.03563
0.03542
0.0353949
0.035735
0.0365243
0.038945
0.039045
0.035
0.034895
0.03458
0.034475
0.035315
0.036245
0.034265
0.03416
0.03395
0.033425
0.039545
0.03311
0.033635
0.033845
0.033215
0.03353
0.03521
0.033005
0.03248
0.038445
0.03332
0.032585
0.031955
0.032165
0.03206
0.03185
0.03164
0.03227
0.03479
0.03269
0.036945
0.03143
0.035105
0.031745
0.032375
0.030905
0.031115
0.0457293
0.0434719
0.0432872
0.0476666
0.0427832
0.0433511
0.0436449
0.0438209
0.0419888
0.050486
0.0406588
0.0445384
0.0400488
0.0463953
0.0423575
0.0447226
0.0421383
0.0439643
0.0491655
0.0490509
0.0458892
0.0499848
0.054409
0.0481038
0.0416528
0.0450178
0.040966
0.048294
0.0483794
0.0393218
0.0454167
0.0453388
0.0508084
0.0385483
0.0434742
0.0433159
0.0421012
0.0423708
0.0402118
0.0438646
0.0443057
0.0522304
0.0433078
0.0469502
0.0445804
0.0480977
0.0480137
0.0478509
0.0468388
0.0478185
0.044316
0.0483291
0.0905401
0.0490272
0.0503862
0.0465903
0.0455972
0.0407145
0.0456298
0.0476408
0.0474176
0.0421042
0.0506722
0.0432908
0.0471378
0.0421975
0.0403544
0.0415866
0.0426551
0.0423827
0.0467348
0.0473361
0.0473419
0.0451302
0.0415443
0.0393378
0.0393128
0.0442378
0.0401739
0.0468638
0.0408843
0.049881
0.0432144
0.044342
0.0428317
0.0400868
0.049708
0.0422076
0.0415487
0.0467805
0.047608
0.0406326
0.0469075
0.0464469
0.0463808
0.0413392
0.0475896
0.0421267
0.053422
0.0480148
0.0403216
0.0420722
0.0441595
0.0450783
0.0393769
0.0406186
0.042179
0.0466643
0.0460817
0.045222
0.047183
0.0407195
0.0424296
0.0454346
0.0396779
0.0480181
0.0472929
0.0450562
0.055636
0.0423049
0.0395537
0.0458258
0.0415083
0.0457738
0.0460393
0.0471039
0.042817
0.0465895
0.0458034
0.0501358
0.0465754
0.0483035
0.0400447
0.0419572
0.0508037
0.0439506
0.0410157
0.0447687
0.0425338
0.0413365
0.0421027
0.0434929
0.0449554
0.0481111
0.0419738
0.0487265
0.0485984
0.0490082
0.0450388
0.0460733
0.0407332
0.0460717
0.056605
0.069185
0.057005
0.06032
0.051075
0.05118
0.048625
0.048725
0.048425
0.0464488
0.048925
0.048025
0.047625
0.0455922
0.048125
0.049825
0.047525
0.047125
0.047325
0.049025
0.047825
0.0516
0.055695
0.05328
0.046725
0.049425
0.046525
0.05013
0.047925
0.05139
0.045715
0.051285
0.046925
0.0466246
0.0449344
0.04519
0.04561
0.046425
0.045925
0.049725
0.048825
0.047425
0.047225
0.0458162
0.046325
0.044875
0.044665
0.04456
0.04477
0.044245
0.0445562
0.04498
0.04414
0.047725
0.045295
0.045085
0.04435
0.043615
0.048525
0.0456062
0.04351
0.044035
0.043195
0.042775
0.04372
0.04288
0.046225
0.046825
0.0433
0.042145
0.0454
0.041935
0.046025
0.047025
0.043405
0.0418262
0.04204
0.052335
0.041725
0.04099
0.0408986
0.042355
0.040885
0.0405662
0.041095
0.042565
0.04015
0.041515
0.04267
0.040255
0.044455
0.04162
0.042985
0.039645
0.043825
0.045505
0.039445
0.0412
0.04057
0.038745
0.039145
0.04078
0.04036
0.0525801
0.0497838
0.0575425
0.0589981
0.0556116
0.0597835
0.0554707
0.0608942
0.0547296
0.0542109
0.0519305
0.0611775
0.0547429
0.0662905
0.0621552
0.0497361
0.0519777
0.0648859
0.0543362
0.0527442
0.056634
0.0588697
0.058884
0.0570121
0.0613029
0.0552216
0.0594665
0.0492928
0.0595748
0.0522158
0.0645931
0.0513018
0.0556554
0.0564407
0.0623449
0.0618727
0.0605148
0.050506
0.0564397
0.0510716
0.0614899
0.056664
0.0644412
0.0590581
0.0509784
0.0513286
0.0564499
0.0600382
0.0503526
0.0539442
0.0617151
0.0561741
0.0564468
0.0545982
0.053509
0.0527729
0.0648252
0.0647979
0.0563494
0.0498452
0.063585
0.0652296
0.0588378
0.0554939
0.0615723
0.0585988
0.0565883
0.0619979
0.054689
0.0628831
0.0512318
0.0549743
0.0568339
0.0509397
0.0737719
0.0638599
0.0625599
0.0582397
0.0647003
0.0524412
0.0505095
0.0535921
0.0550721
0.0618185
0.0538318
0.0609227
0.0585558
0.0581486
0.0585153
0.0528302
0.0506553
0.0701725
0.0601713
0.0638001
0.0526344
0.0522836
0.0620543
0.0497594
0.0557069
0.0549251
0.0558678
0.0504823
0.0584816
0.0627251
0.0645057
0.0565583
0.0537681
0.0554487
0.0547287
0.0568803
0.0595895
0.0486845
0.0534497
0.0675335
0.061511
0.0523252
0.0544107
0.061874
0.0521174
0.0639845
0.0535997
0.0599197
0.0550394
0.0537123
0.0572205
0.0495543
0.0580258
0.0593643
0.0560094
0.0554094
0.0550713
0.0534846
0.0594664
0.0507689
0.0529025
0.0494465
0.0531626
0.0560101
0.0504474
0.060143
0.0603169
0.0585399
0.0572666
0.0537716
0.0554408
0.0554876
0.0583997
0.0615293
0.0605038
0.0526748
0.06078
0.0544365
0.0557307
0.0565554
0.0628165
0.0933458
0.0617128
0.0556866
0.054759
0.0542742
0.0575517
0.0735372
0.0626569
0.0613221
0.0483686
0.0542959
0.0544368
0.0683204
0.0629773
0.0526149
0.0560956
0.0508257
0.0609522
0.0569127
0.0629796
0.0576781
0.0634691
0.055217
0.0622884
0.0535128
0.0564512
0.0504053
0.0649035
0.0573125
0.0643401
0.0556081
0.0670663
0.0628203
0.0603501
0.052491
0.0655145
0.0605395
0.0676882
0.0625057
0.0502863
0.0637042
0.056287
0.0576817
0.0617595
0.0568901
0.0728531
0.0533393
0.0597568
0.0512703
0.0498724
0.0519432
0.0660178
0.0601499
0.0552356
0.0600537
0.0501554
0.0586191
0.062434
0.0524146
0.052708
0.0623364
0.0569649
0.049842
0.0532528
0.0587509
0.0630957
0.0632491
0.0631085
0.0529863
0.060286
0.054919
0.061976
0.0616235
0.0601059
0.0510486
0.0541349
0.0497073
0.0541977
0.0582334
0.0504127
0.0579319
0.0628397
0.0635194
0.0581448
0.0660871
0.0624806
0.0572871
0.0648321
0.0606172
0.0595641
0.0638431
0.054626
0.0528688
0.0512393
0.0582748
0.0499131
0.0619535
0.0586084
0.0555045
0.0487609
0.0670496
0.0534705
0.052216
0.0602447
0.0505979
0.0564127
0.0572482
0.0508372
0.0496415
0.0594703
0.0555481
0.0573803
0.0516226
0.0546571
0.0532111
0.0538438
0.0501834
0.0490087
0.0501875
0.0491616
0.0529702
0.0508939
0.0616308
0.0562219
0.081745
0.0511164
0.07135
0.0598243
0.0570676
0.0595547
0.066085
0.071455
0.070825
0.0597942
0.07093
0.07408
0.073555
0.06536
0.067985
0.068485
0.06557
0.067485
0.11305
0.06473
0.071665
0.068885
0.0519202
0.067685
0.14498
0.069085
0.0554418
0.065045
0.064415
0.0641
0.0545304
0.063575
0.06221
0.06179
0.0703
0.061895
0.062315
0.063785
0.06137
0.061055
0.06284
0.0589902
0.067385
0.06494
0.061265
0.065465
0.064835
0.0606312
0.06011
0.05151
0.060425
0.062735
0.063365
0.060005
0.06053
0.0585814
0.06305
0.06368
0.069885
0.062525
0.062945
0.059905
0.06389
0.060845
0.062105
0.059405
0.059505
0.0548081
0.059805
0.058505
0.059305
0.0498145
0.057705
0.06095
0.057805
0.0531693
0.057605
0.059005
0.057405
0.06263
0.060215
0.057505
0.057305
0.058805
0.058405
0.059605
0.073345
0.056705
0.057105
0.061475
0.06158
0.06515
0.056905
0.055905
0.057905
0.059105
0.0558
0.055275
0.064205
0.0530712
0.065885
0.058105
0.060635
0.055065
0.056405
0.056205
0.054225
0.06347
0.05412
0.05475
0.058205
0.053175
0.059205
0.05307
0.052755
0.05286
0.053805
0.05244
0.056105
0.054855
0.052125
0.053595
0.05349
0.063155
0.0530086
0.0537
0.052545
0.0519824
0.054645
0.052965
0.05433
0.054015
0.05391
0.055485
0.05454
0.05223
0.051915
0.05097
0.05076
0.051495
0.050025
0.050235
0.056805
0.05181
0.0496112
0.050445
0.05034
0.05559
0.056505
0.050655
0.056305
0.049525
0.049925
0.050865
0.049625
0.061685
0.05202
0.05517
0.049225
0.054435
0.057205
0.049125
0.049325
0.048325
0.0668364
0.0727411
0.0718103
0.0678476
0.0797695
0.0674121
0.0792947
0.0661993
0.0720398
0.0815792
0.0651408
0.0779819
0.0696492
0.070858
0.078433
0.0804961
0.0784521
0.065531
0.0687438
0.0805192
0.0808606
0.0823506
0.0764747
0.0725784
0.067436
0.0931063
0.0775713
0.0809689
0.0848033
0.066833
0.0707187
0.0816027
0.0671712
0.0733935
0.0767818
0.0665633
0.0778895
0.0790409
0.0710484
0.0693194
0.068036
0.0790252
0.0796426
0.0682797
0.0664921
0.0782166
0.0639846
0.0749777
0.0666789
0.0722998
0.0819189
0.0783498
0.0725088
0.0757124
0.0737089
0.0723606
0.0786986
0.0658842
0.0783848
0.0786104
0.0659422
0.0659533
0.0764609
0.0798889
0.0793818
0.0768257
0.0661701
0.0738433
0.0652274
0.0816347
0.079913
0.0748521
0.0710443
0.0789536
0.0801019
0.0708345
0.0750479
0.0698429
0.0856932
0.0742572
0.0705803
0.0780077
0.0749884
0.0774619
0.0798137
0.080328
0.0640357
0.0683723
0.0722249
0.0789173
0.0732721
0.0642938
0.0662284
0.0688614
0.0872875
0.0700887
0.0712547
0.0658165
0.0760413
0.0690986
0.0783252
0.0779314
0.0903813
0.0759202
0.0670479
0.0759766
0.0753471
0.0645787
0.0812919
0.0723539
0.0693828
0.0737025
0.0758755
0.0659271
0.0636707
0.0699966
0.0781076
0.0643913
0.0869834
0.0793162
0.0765897
0.0681501
0.0663742
0.0701927
0.078023
0.0728472
0.0901673
0.0756301
0.0668206
0.0673547
0.0703306
0.0786268
0.0740723
0.0733437
0.0671336
0.0763793
0.0785604
0.0731622
0.0718112
0.0732158
0.0660882
0.0767719
0.0742909
0.0735666
0.074493
0.0667969
0.0861573
0.0736335
0.0754934
0.0737193
0.0760278
0.0687225
0.0699275
0.071071
0.0662286
0.0651901
0.0803589
0.0672326
0.0760856
0.077002
0.0722438
0.0670291
0.0768868
0.077579
0.0665236
0.0739367
0.0696747
0.087888
0.066757
0.0666644
0.0865098
0.0739622
0.0761516
0.0656595
0.0657984
0.0659828
0.0718671
0.0702506
0.0739854
0.0675645
0.0703508
0.0780324
0.0756359
0.0810605
0.0642582
0.0706037
0.0690721
0.0749373
0.0891761
0.0658377
0.0795396
0.0735587
0.0682846
0.0749199
0.0729542
0.0723899
0.0733247
0.067952
0.065906
0.0702045
0.0682393
0.0733448
0.0746489
0.0741181
0.0661083
0.0721557
0.0734524
0.0696252
0.0772675
0.0818339
0.0669627
0.0739411
0.0668466
0.0755825
0.0701488
0.0702027
0.0775859
0.0833002
0.077835
0.0819983
0.0705373
0.0698287
0.0707142
0.0817087
0.0802741
0.092985
0.0737267
0.0719109
0.0659888
0.0755531
0.083635
0.086545
0.10034
0.08521
0.0804037
0.08227
0.083425
0.100235
0.087645
0.088745
0.083215
0.0702283
0.093195
0.09036
0.085105
0.08542
0.09225
0.082795
0.079765
0.084475
0.0808
0.08185
0.08122
0.081955
0.08038
0.081535
0.086245
0.085735
0.079065
0.097325
0.079165
0.09015
0.084895
0.08332
0.0758527
0.078865
0.082165
0.088245
0.0799499
0.087145
0.079465
0.079565
0.0800899
0.089345
0.085945
0.076665
0.077265
0.088545
0.09498
0.082585
0.077065
0.078065
0.085
0.0766392
0.079965
0.080065
0.084685
0.0681279
0.078165
0.0720266
0.076165
0.075935
0.0755463
0.0665894
0.077765
0.07576
0.076865
0.076965
0.077465
0.078765
0.075235
0.090675
0.0755744
0.077165
0.08479
0.0742338
0.073135
0.083845
0.0719932
0.07471
0.07282
0.081325
0.07345
0.072295
0.07324
0.072925
0.07366
0.073975
0.0671788
0.077865
0.075025
0.076065
0.07114
0.071875
0.0742622
0.07177
0.079365
0.070615
0.080905
0.079665
0.07261
0.0724
0.070405
0.074815
0.076265
0.07072
0.069285
0.072505
0.07051
0.069485
0.069985
0.078365
0.069685
0.078465
0.0752312
0.069385
0.068685
0.084055
0.072715
0.12408
0.068585
0.07513
0.068785
0.079265
0.07156
0.07387
0.08374
0.07009
0.0669843
0.08353
0.068285
0.071035
0.070195
0.07534
0.067885
0.076765
0.067285
0.065985
0.065675
0.092775
0.07303
0.077565
0.082375
0.065255
0.075445
0.066785
0.068185
0.06578
0.076365
0.066485
0.066885
0.067185
0.0711362
0.07429
0.066585
0.0655286
0.073765
0.106083
0.0868654
0.105252
0.104997
0.0955504
0.0910118
0.0834426
0.0870756
0.110941
0.0885551
0.0957801
0.0959004
0.0885416
0.09197
0.0866009
0.0890778
0.0945913
0.0980891
0.0955463
0.0904833
0.0958838
0.0899909
0.0919667
0.0980476
0.0846251
0.0806735
0.0849978
0.0927693
0.0914279
0.0942677
0.0862328
0.0945449
0.0994676
0.0985128
0.106486
0.0984142
0.0935499
0.101737
0.0897537
0.0876974
0.0890431
0.0823367
0.101276
0.10214
0.0905846
0.0964408
0.0833368
0.112855
0.0848633
0.0891985
0.095278
0.0825533
0.0987958
0.0823355
0.0917592
0.0841003
0.0832247
0.0847366
0.0881924
0.09168
0.108294
0.101112
0.104203
0.106543
0.110604
0.0873501
0.0947641
0.0854806
0.100545
0.0846968
0.0886319
0.0932967
0.0871173
0.11231
0.0911722
0.0838554
0.0863129
0.0952679
0.0901729
0.0856394
0.102998
0.0917817
0.0985693
0.0839094
0.0884006
0.10104
0.0924758
0.0856241
0.0953931
0.0845892
0.0868564
0.0948855
0.0840738
0.0817379
0.0844345
0.110017
0.102195
0.102492
0.105839
0.0906038
0.0889938
0.0915593
0.106674
0.0988198
0.0961044
0.0903627
0.0866899
0.0966374
0.101308
0.0890979
0.0979216
0.0898804
0.0961829
0.0977807
0.0898931
0.0950854
0.0958403
0.0987427
0.0915338
0.105559
0.09039
0.0940923
0.0849954
0.0875848
0.0843756
0.0992424
0.0827874
0.0837418
0.0953155
0.0986329
0.0939125
0.0879266
0.0880251
0.103428
0.084301
0.110648
0.0867139
0.101523
0.0998207
0.084554
0.0920818
0.100698
0.0925014
0.0930551
0.0870319
0.0928503
0.0879687
0.0931678
0.101602
0.0944721
0.106717
0.135521
0.0820507
0.138045
0.12387
0.0896477
0.0928392
0.119185
0.0900334
0.117885
0.110106
0.08756
0.133635
0.115675
0.0956077
0.0912942
0.0862949
0.0870297
0.115885
0.129065
0.112945
0.142985
0.0946663
0.116785
0.106405
0.11578
0.109005
0.112525
0.086631
0.103134
0.108105
0.11158
0.13185
0.103805
0.10391
0.102755
0.106577
0.112315
0.125235
0.12219
0.104855
0.101705
0.120615
0.1141
0.10349
0.10202
0.0895174
0.0979003
0.101477
0.10286
0.107705
0.0827478
0.10307
0.098925
0.10013
0.110215
0.099125
0.111895
0.10097
0.099225
0.10181
0.10051
0.112105
0.10559
0.108405
0.105065
0.0993468
0.100445
0.097925
0.101915
0.096925
0.10496
0.098825
0.0972249
0.109705
0.103175
0.096125
0.0919723
0.099825
0.0973637
0.099025
0.096325
0.114625
0.102125
0.099525
0.1016
0.099425
0.097025
0.099725
0.097525
0.100865
0.09414
0.096025
0.096425
0.101495
0.10265
0.0905636
0.111265
0.097825
0.0884136
0.0939645
0.11389
0.111685
0.093615
0.0954
0.09288
0.096525
0.102335
0.097625
0.10412
0.095925
0.094035
0.094875
0.09351
0.100025
0.10076
0.09372
0.09204
0.102965
0.091515
0.0863231
0.09309
0.10244
0.092355
0.09582
0.097125
0.108705
0.0933
0.109305
0.0945562
0.09141
0.096625
0.09393
0.104225
0.098525
0.0912
0.096725
0.089845
0.090465
0.0941362
0.089945
0.088445
0.091935
0.089445
0.106805
0.098325
0.105905
0.09099
0.087845
0.096225
0.088145
0.0866654
0.0901143
0.09183
0.0863928
0.0858316
0.108305
0.095505
0.085315
0.08563
0.089645
0.10517
0.113995
0.098425
0.0858536
0.104431
0.087445
0.086345
0.086945
0.090885
0.0853566
0.088945
0.084265
0.086145
0.085525
0.088345
0.086745
0.089045
0.087245
0.0829
0.086845
0.08437
0.091725
0.08311
0.086045
0.0936112
0.09057
0.08059
0.094665
0.143557
0.106761
0.121051
0.153645
0.113073
0.159142
0.11406
0.158469
0.117933
0.139028
0.115425
0.105957
0.148752
0.123269
0.111912
0.127794
0.139193
0.131169
0.139526
0.134224
0.14657
0.115963
0.142811
0.105287
0.115653
0.12413
0.127647
0.129598
0.115509
0.141253
0.132358
0.136498
0.130807
0.12033
0.130383
0.152966
0.136885
0.140361
0.138338
0.12031
0.133623
0.161865
0.12859
0.114562
0.107507
0.109378
0.114968
0.109463
0.109116
0.141887
0.11006
0.125829
0.113639
0.111387
0.15389
0.149345
0.127382
0.160115
0.110265
0.14527
0.118854
0.128528
0.125713
0.108566
0.117595
0.110751
0.116649
0.157464
0.127871
0.115117
0.1725
0.148374
0.108719
0.150345
0.153523
0.107346
0.12372
0.108186
0.122774
0.142867
0.13589
0.117113
0.130216
0.127254
0.159385
0.117821
0.12594
0.154844
0.111461
0.139272
0.123779
0.146682
0.15444
0.141289
0.148006
0.121885
0.106973
0.154282
0.138054
0.145097
0.121767
0.163022
0.111818
0.125976
0.152361
0.112297
0.135067
0.146112
0.132165
0.126342
0.114977
0.144856
0.13838
0.110278
0.111352
0.132281
0.145718
0.119794
0.131901
0.127222
0.121386
0.156782
0.107259
0.104723
0.1236
0.148869
0.102321
0.133111
0.14446
0.12207
0.138917
0.118433
0.130215
0.111266
0.139773
0.156332
0.160254
0.155249
0.12189
0.125991
0.157315
0.106222
0.157377
0.117494
0.114728
0.20959
0.124765
0.187745
0.151563
0.155561
0.180082
0.161332
0.192355
0.137152
0.121952
0.175655
0.186245
0.203325
0.18248
0.180065
0.116108
0.17429
0.14224
0.11252
0.19015
0.171035
0.176865
0.182795
0.129917
0.108922
0.193195
0.200625
0.167185
0.163785
0.192145
0.166085
0.16777
0.166485
0.17114
0.189045
0.182585
0.16053
0.140591
0.160215
0.167885
0.170195
0.166285
0.179165
0.174605
0.162105
0.162735
0.159305
0.161034
0.176265
0.161685
0.159705
0.159105
0.160845
0.143288
0.222695
0.17534
0.176565
0.159805
0.186845
0.157905
0.158205
0.162945
0.109827
0.1724
0.16431
0.16389
0.158605
0.112575
0.157705
0.16284
0.157505
0.158817
0.158905
0.172085
0.190885
0.157105
0.156905
0.155259
0.157405
0.168585
0.164625
0.17261
0.134559
0.11911
0.195925
0.176765
0.161055
0.181955
0.18437
0.161475
0.15496
0.15454
0.16158
0.173341
0.169185
0.113647
0.1641
0.152335
0.154015
0.155695
0.15404
0.179065
0.160635
0.153175
0.158005
0.152545
0.16473
0.158305
0.165464
0.163575
0.162315
0.129044
0.156005
0.1537
0.15286
0.161213
0.155376
0.15181
0.150235
0.150025
0.166685
0.155905
0.112013
0.163995
0.110528
0.164415
0.15202
0.15097
0.161895
0.148525
0.149725
0.147026
0.148425
0.146725
0.148825
0.15328
0.150445
0.148325
0.147125
0.125498
0.149025
0.151489
0.146525
0.151915
0.159205
0.15244
0.156305
0.146991
0.149125
0.134632
0.148925
0.169585
0.147154
0.163365
0.168785
0.15055
0.164205
0.16032
0.145396
0.144875
0.145925
0.167585
0.150655
0.151075
0.14267
0.147225
0.161471
0.146925
0.153385
0.14393
0.146025
0.157605
0.143886
0.146625
0.147425
0.15265
0.127693
0.142092
0.141095
0.148125
0.154514
0.157805
0.14141
0.15034
0.142565
0.118887
0.109921
0.152755
0.146425
0.16515
0.144455
0.144245
0.142775
0.139845
0.139188
0.170615
0.1433
0.138545
0.15475
0.138945
0.139245
0.146225
0.136645
0.17093
0.147025
0.14561
0.137845
0.140885
0.147625
0.139345
0.15559
0.138345
0.141725
0.147825
0.14288
0.139449
0.137145
0.137045
0.14215
0.136145
0.144035
0.136945
0.136659
0.154855
0.148725
0.138145
0.139645
0.165675
0.140045
0.134685
0.14246
0.142145
0.13206
0.13353
0.13563
0.13521
0.152125
0.158705
0.13458
0.137245
0.140465
0.139945
0.143615
0.13122
0.134055
0.149325
0.136245
0.132754
0.139045
0.129765
0.156205
0.145295
0.129269
0.130065
0.133005
0.13584
0.13311
0.135315
0.128365
0.131745
0.128565
0.133845
0.130481
0.137945
0.103551
0.129465
0.13038
0.135836
0.283335
0.1308
0.14015
0.128865
0.130485
0.138745
0.127965
0.126965
0.107045
0.12576
0.13143
0.129665
0.12471
0.126365
0.126165
0.138245
0.159605
0.131746
0.146825
0.149925
0.13437
0.125655
0.147525
0.126765
0.1412
0.12513
0.13542
0.13248
0.158105
0.127465
0.126265
0.140036
0.127365
0.127265
0.114896
0.12324
0.123975
0.107404
0.12345
0.122085
0.12366
0.129965
0.122295
0.132795
0.149625
0.1454
0.126665
0.13269
0.123763
0.1203
0.129565
0.156405
0.1245
0.120716
0.118846
0.118685
0.136745
0.127665
0.136845
0.126465
0.118585
0.12492
0.125445
0.14057
0.123135
0.136345
0.116685
0.122715
0.14519
0.131115
0.120195
0.137645
0.140675
0.12093
0.12009
0.121665
0.116485
0.124395
0.115157
0.117785
0.119085
0.117185
0.119385
0.124605
0.148625
0.16095
0.132407
0.13059
0.119362
0.114136
0.107728
0.116285
0.119685
0.117685
0.116985
0.128265
0.116085
0.117085
0.118085
0.133425
0.121455
0.129265
0.113785
0.11452
0.115045
0.113155
0.12051
0.114205
0.11221
0.120825
0.117585
0.111475
0.11368
0.123555
0.118985
0.11179
0.123345
0.118185
0.116185
0.11242
0.117385
0.11284
0.146325
0.112
0.136545
0.12156
0.109605
0.12198
0.11011
0.294225
0.109105
0.109905
0.121995
0.110635
0.115465
0.107405
0.106905
0.118077
0.107905
0.109405
0.110405
0.118485
0.135735
0.107505
0.110845
0.106305
0.104645
0.109805
0.106105
0.116885
0.13101
0.108505
0.12072
0.129165
0.106205
0.105695
0.108551
0.116385
0.118785
0.122925
0.104015
0.11263
0.104386
)


// ************************************************************************* //
