/*--------------------------------*- C++ -*----------------------------------*\
  =========                 |
  \\      /  F ield         | OpenFOAM: The Open Source CFD Toolbox
   \\    /   O peration     | Website:  https://openfoam.org
    \\  /    A nd           | Version:  7
     \\/     M anipulation  |
\*---------------------------------------------------------------------------*/
FoamFile
{
    version     2.0;
    format      ascii;
    class       labelField;
    location    "0.7/lagrangian/reactingCloud1";
    object      cellId;
}
// * * * * * * * * * * * * * * * * * * * * * * * * * * * * * * * * * * * * * //


2545
(
3411
3338
3287
3254
3151
3068
3018
2949
2864
2827
2737
2628
2564
2463
2412
2319
2258
2183
2112
2010
1909
1847
1773
1736
1156
1505
1445
1365
1305
1274
1169
1107
1044
954
887
855
759
715
643
573
524
445
369
281
251
148
73
51
73
685
3071
4167
3961
1707
4186
3278
3489
2730
3214
3425
2936
2671
3385
3019
3245
2799
2390
2400
2743
2392
2678
2462
2618
2704
2639
1983
2124
2121
2122
1847
2211
2236
1989
2088
2004
1576
1867
1872
1811
1733
1580
1684
1527
1527
1547
1394
1319
1324
1268
1191
968
1042
982
998
837
859
791
704
644
593
524
493
425
356
295
219
179
96
17
9505
7814
7537
6994
7263
4761
4485
4228
3373
3348
2540
350
13
1
10930
10336
9224
8696
7842
3644
3088
2832
2244
2276
856
606
291
11089
11107
11089
10831
9976
9135
9423
8297
8584
8610
8068
7463
6368
5225
4678
4393
3008
2453
2442
1886
1619
495
506
219
11060
9107
10781
4643
10442
11030
9855
10183
9907
9061
9080
9068
8221
8218
8225
7975
7672
7389
7113
7128
7121
5735
5438
5445
5433
4890
4345
3777
3218
2957
2366
974
689
417
9025
9304
8188
10978
4282
10978
5119
9862
655
2887
9025
6793
3166
9762
9764
11208
10943
10680
10654
9831
9837
8971
8979
9276
8988
8732
8414
8740
8143
7860
7871
7622
6160
6760
6482
5902
6208
5910
5341
5672
4497
4794
3930
4792
4528
3954
3989
3121
3129
2862
1986
2222
1471
1478
1167
346
354
4200
11175
7548
11175
4479
9222
2247
8943
8664
10896
1410
8106
10338
10617
3363
9501
11175
3084
2805
10617
2526
5595
6990
6432
4200
6432
10059
5316
9780
1410
6153
3363
294
5874
5037
4758
6990
1689
6153
10059
11133
10844
9418
9997
10285
9715
10583
10579
9731
10005
10338
10583
10045
10302
10314
8022
9184
8334
8920
9203
8902
8339
8648
8061
8097
7781
8359
8090
7501
7535
7791
6379
6080
6710
6955
5794
6392
6680
6111
5825
5834
5272
5268
5570
5005
3836
4711
4432
4435
4448
4162
4184
3884
3598
2792
3046
2752
2760
2474
2766
2241
2490
1923
1678
1935
1919
1635
1673
1021
1385
1393
524
215
259
265
4
2723
7187
8024
4676
2444
5234
2444
11093
8303
3281
9140
4955
3839
8024
6350
9419
11093
1607
1886
7745
3839
2723
10814
6071
2444
6071
1328
3281
9140
9419
9977
8582
1607
10256
3839
10535
8582
1328
1049
6350
10256
491
8582
8861
4118
7466
6071
1607
6629
8861
9698
9419
3002
11093
9140
3281
9140
491
3002
5513
5513
6629
9977
9698
9419
5513
5513
5234
8024
5513
9140
8303
8861
7187
9698
8861
4676
4955
7466
2165
9698
4955
10814
5792
4397
8582
10742
10735
10779
10772
10477
11081
10784
10201
10219
10214
10799
7648
8501
9946
9084
9697
7929
7942
6805
8544
8832
8547
8548
8854
8564
5665
7111
7409
7117
8298
8012
7733
7731
5996
6586
6905
6593
6881
6606
6605
3839
6311
6629
4565
5739
6052
5776
5493
5218
4042
4922
4936
4651
3802
3809
2621
3542
3240
3240
3251
3260
2392
2686
2415
1827
1830
1847
1856
1569
1582
1327
1306
1312
959
1033
356
733
386
446
446
479
187
9058
6826
5710
10453
5431
3199
7384
5152
1525
9616
409
5710
688
9337
3199
7384
4594
6826
2362
10732
9058
9058
9058
10732
1804
8221
2362
11011
11011
967
7942
5989
9895
130
6547
3478
3199
5431
1246
4036
7663
10174
5710
9616
2083
10732
10732
7384
9616
9895
4315
10732
7384
11011
11011
9895
8500
688
9058
9895
10174
2362
10453
5152
9337
3757
2083
3199
4873
4594
9058
9616
9616
4873
4036
688
130
7384
688
8221
1804
10174
5152
7942
5710
130
10453
3757
2362
8500
10453
2641
8500
9616
8221
130
9058
2083
4873
11011
2362
3757
7384
8221
967
1804
4873
9616
7663
8779
9895
688
4036
7663
130
10732
9895
5152
11011
5710
409
6826
3478
7663
8779
8779
5152
7663
6826
11011
9337
10453
130
3478
11011
7384
2362
2641
4315
3478
4873
5989
2083
10732
5152
9616
10732
10174
8221
9337
2920
8500
10632
9411
10042
9782
10689
10402
10991
10986
10392
7384
10436
11001
10446
8500
9579
9275
10145
10174
9871
9578
9010
8723
8714
7864
9311
8151
9026
7576
7876
8461
9049
7879
8779
8779
7663
8487
8499
8200
8187
7607
6175
7059
7327
7326
7626
7916
7636
7661
7066
7655
7349
6778
7360
5915
7086
6818
5922
6523
5068
6826
6237
6265
5965
5710
4829
5129
3939
3952
4258
4558
4285
4589
3986
4315
2856
3467
3169
2206
2872
3193
3196
2290
2901
2629
2337
2641
2083
1753
2059
2058
1167
1525
1246
1218
589
313
129
69
104
107
90
79
73
3396
1164
5907
6744
3954
8418
4233
8418
5349
4512
885
9813
4512
10371
10092
1164
2838
7581
5070
327
6186
7302
7023
7023
9255
4512
7860
48
6465
3117
10929
2280
5070
3954
10092
9534
7860
1722
6186
1722
8139
4512
9813
8139
1164
2559
5907
8976
1722
3117
9534
6186
4791
4512
3117
2280
10371
10929
5628
48
9813
10650
7860
5628
9813
5628
1722
8418
4512
9534
2280
5070
5070
2001
11208
10929
9813
7581
10371
1722
1722
4233
4512
10371
4233
8697
7023
7581
7860
3396
1443
10650
7581
10650
3396
2280
9534
48
5349
1722
5907
606
7023
10092
6744
5349
3117
5349
4512
5349
7023
327
3675
11208
7581
1722
4791
10371
2838
7860
3954
8139
4791
1722
6744
885
7581
8418
6465
5349
3954
3954
6744
1722
3117
606
3954
5907
1722
7860
7302
7860
5349
3954
5070
4791
7581
8139
8976
2838
9255
3954
4233
4512
9813
8976
9534
5628
4233
4791
6465
10929
10650
8697
48
4791
4233
7860
9534
3675
5907
885
9534
6186
7860
7302
10929
5349
8139
3675
6465
1443
11208
6465
11208
5349
7860
10929
7860
1722
9813
7302
606
9813
1164
10650
3954
5907
9255
5907
10092
2559
7860
885
48
885
9255
6744
5349
8139
1164
4791
9255
1722
3396
9534
3954
885
2838
3396
9534
11208
8697
1443
8976
3675
3954
10092
8139
2001
4233
885
4791
7302
606
7023
10929
11208
7023
5907
10371
6744
9255
8418
7581
8976
4233
1722
1164
6465
1164
9813
6465
5349
327
10650
3954
2280
5628
1722
5628
6744
1722
1164
7023
5070
5907
2280
2001
3675
3675
606
327
606
327
2280
1443
8139
5070
10473
1164
9911
7581
6465
8418
10203
10288
10249
5349
10870
9101
10000
11149
9983
11155
10333
9430
10280
10301
10320
10887
2280
10342
11197
10041
5349
10332
10643
10648
3117
9185
10084
10370
8621
10089
9217
8918
9534
9527
9241
7860
7482
8048
8946
8389
8954
9245
9255
2001
8975
8687
7755
8392
8410
5907
7207
8104
7811
7252
7523
8403
7553
8409
7548
7839
7553
5070
7266
6695
6990
885
7297
6415
7277
3396
7020
6401
7012
6426
6719
7012
6435
6150
6186
5872
4963
6167
6454
5270
5272
4093
5615
5321
5620
5349
5032
5349
3234
3675
3834
3831
4187
4479
4505
3912
4212
3282
4216
4225
3328
3663
3044
3375
3383
3386
3077
3390
3038
3110
3110
2797
2805
2779
3116
2515
2237
2559
2270
2270
1962
1944
1955
1942
1712
1413
1422
1423
1434
1435
1156
1137
1078
1158
882
853
870
831
749
566
830
601
568
606
292
207
26
278
44
47
255
35
47
39
1640
5546
4988
1361
10568
2198
8336
245
4430
7778
1082
3314
2198
3035
8057
7499
6941
245
3593
10568
9452
10289
8057
6383
3035
6104
6383
1361
10010
1919
4709
10010
1082
3593
8336
2198
8615
10010
4151
2756
3314
3593
9173
2477
803
2477
245
5825
2477
3314
6104
5825
5267
7499
6383
5267
10568
1640
9452
9452
524
1082
9173
11126
8336
6662
2198
7220
524
8894
9173
5546
4151
8615
11126
4709
6941
3872
10289
7499
3314
8615
7778
9452
10568
6662
245
3593
4430
8894
6941
245
1919
3872
9731
3593
4430
1640
7778
2477
9452
10010
9173
8057
2477
7499
7778
524
8615
4988
3872
5546
8336
1919
245
3314
7220
1082
10847
10568
8615
1640
524
1082
3035
4988
8615
6941
2756
2756
4430
8057
7220
5267
1361
7220
3593
6383
1640
1640
803
8894
6383
1919
7778
2198
11126
7220
4709
7499
7499
3593
3872
3593
1919
245
6104
3035
8336
6383
5546
1919
8336
6383
1919
4151
3872
7220
2477
1361
10289
5546
7778
1361
1361
245
5267
3872
6383
1919
3035
9731
6104
9731
803
2756
3035
6941
9452
803
9173
245
2477
4430
2756
4430
5546
3314
1361
3314
1361
6662
6941
6941
1082
6104
5267
3314
9452
7220
2756
6662
2198
7220
4151
4151
9731
10568
9173
10568
1919
2756
4709
10540
10568
10974
5825
5546
1640
5267
10721
9877
8405
9886
10147
11114
10803
7820
9610
9630
11120
3872
9365
10265
10241
10274
8152
10844
10559
10251
9612
10200
9683
10284
10256
9377
9394
9151
9387
9061
10006
8510
8541
9418
7191
9726
7297
8021
8894
7039
9164
9158
7778
7067
6770
9152
7993
7664
6482
7994
8550
8296
7480
8057
7039
8559
7110
1361
7717
5825
8329
8329
8056
245
7160
7765
8042
8318
6825
6820
7464
7175
7214
5978
5981
6624
6643
6617
5546
6089
5813
4800
5750
5534
5803
5544
5801
5508
2198
4597
4873
4260
5230
4659
3314
4708
4029
4705
4362
3140
4421
4092
4407
4081
4104
3489
4126
3821
3846
3593
3563
2284
3261
2628
3002
3000
2370
2102
2387
2412
2438
2418
2464
1762
1789
2115
1755
1828
2174
1748
2455
2138
2151
1801
2177
2156
1887
1910
1915
1383
1563
1252
1005
1354
612
1065
1019
1048
706
770
801
771
451
438
175
245
168
10486
3790
11044
9649
7696
4627
442
2953
9091
4069
8254
7138
3232
4348
2953
4348
1279
7696
4348
3790
7696
4348
6580
8254
1000
442
1558
4348
3511
7696
2116
7975
9370
8812
8812
9649
6301
9370
5743
3511
2674
1558
7975
10765
6022
7138
1558
9649
2395
4627
8254
442
9091
1279
5743
1000
1000
2674
4627
5185
5743
6301
8812
7975
11044
4348
7696
1558
2953
2674
2674
2953
1279
11044
2674
1837
3511
6859
5185
2953
11044
2953
7975
2116
1837
9091
6580
163
5743
2116
3232
7975
1837
442
2395
9091
7975
10486
11044
163
4069
6022
10207
6580
8533
5185
2395
6859
10486
4906
8254
2953
7138
9370
1000
6022
6022
8812
2116
10765
5743
7696
2116
4069
163
10207
1279
1279
6301
3511
6580
2116
4627
8254
442
10486
3232
9928
7696
1558
4069
8812
3511
7138
1000
7138
4348
7417
9928
6580
9649
9959
721
10826
10540
2953
6301
10248
3511
10843
9408
163
9968
11188
4348
2116
2953
4069
9991
10024
10622
9396
7138
10301
10316
10649
10317
9148
2674
10486
11042
10086
8869
8591
10726
10443
9140
8293
9189
9790
9478
10486
9195
10462
10466
10724
5185
6580
10470
10186
10441
1279
9257
9596
9625
8074
9510
9053
9648
9339
9052
9625
9021
8064
8431
9088
9090
9056
8786
8811
9068
8117
8761
8196
7201
8449
8531
6022
8528
8251
7877
7242
6655
6637
7913
6378
7018
6679
7964
6937
6817
7348
7042
7068
7059
7070
5743
6119
7058
4069
7129
6145
6469
6858
5937
6546
6575
5567
5578
6262
6299
6513
6238
6299
6286
5956
5987
6281
5653
6011
3232
5915
5025
5668
5072
6013
3820
5135
4804
5166
4838
4551
3631
3825
4452
4503
4607
4273
4569
3915
3965
4332
4007
4051
3329
3327
2996
3731
3718
3170
3478
3161
3210
2948
2674
2906
2658
2930
2924
2656
2625
2570
2298
1990
2365
2227
2371
2356
1984
1702
1279
1772
1803
1457
1461
1453
1527
1377
1525
1542
1233
931
989
685
642
247
29
159
277
9288
918
4824
10404
1755
11241
360
9846
918
7614
2592
1755
8172
3429
2313
5103
7056
6777
4824
7056
9288
3150
8730
360
2592
5661
6219
6498
1476
8730
6498
7335
6219
3708
6777
8451
7614
5661
7335
5103
6777
10962
6777
3429
918
1755
1476
1197
639
6777
639
4266
1755
2871
10125
9567
5940
10683
2034
8451
3429
6498
3150
1755
918
2034
639
8172
6219
3150
10404
9288
918
9288
8730
639
4824
918
2871
8172
8730
2313
7056
5940
10962
1476
5382
10125
2592
6498
4824
9009
9846
6777
7056
2592
918
10683
7335
9567
1197
10404
639
5661
9009
2313
7056
9009
5661
5103
918
8172
8451
1197
1476
6777
8451
3708
7056
6219
81
8172
918
81
5382
7893
81
7056
8451
5103
7893
2592
6498
1476
8172
10117
10962
10125
4266
5382
10683
1197
9567
3708
2592
10989
5661
10708
9288
9567
10979
11241
10713
7614
4824
11009
10429
10693
10703
11049
2871
10990
7614
2592
10423
10976
11042
9306
6498
1476
10140
10133
11101
11141
10851
11079
11047
10831
11028
11028
11070
10727
6219
11097
9866
11180
10494
10221
10447
11138
11195
11102
11234
9314
11197
10751
11193
11228
8730
10882
10843
10175
10893
10918
10904
10507
10591
2313
9600
10295
10591
10953
918
10633
10198
10581
10573
10361
10646
9968
10871
10152
10597
10250
11195
10643
9299
7561
4266
10371
10360
10631
9579
8747
10626
9957
10364
10016
9942
9659
2592
10340
10566
10383
10350
10253
9302
10204
9999
9608
10105
9705
9626
9069
10030
9642
4824
9407
10100
9741
9846
10060
9806
9665
9117
10113
9088
360
9084
639
8474
9791
9237
9845
10071
9839
8722
9416
9794
9199
9554
9154
9539
9756
5103
9417
9370
9178
9128
8761
9500
9496
8730
9237
7335
9115
8839
8830
7933
9229
9566
8210
8839
8330
8997
8254
7972
8976
8573
8996
8239
7358
8718
7933
8928
8675
7680
8192
8444
8428
8043
5661
8416
8564
8446
8005
7360
8068
8620
8417
4266
1476
6807
8272
8012
7691
8371
8341
8070
8385
6514
8051
8119
7430
8094
7440
7431
8431
7061
8158
6816
7863
7776
6833
7547
6559
7458
6825
7475
7485
5940
7769
7564
7557
7583
6546
7875
7187
7124
7146
7517
7248
6245
7296
7310
7300
7229
7131
6951
6967
6554
5974
5689
7051
6871
7028
6647
5707
6741
7007
6974
6631
6446
5710
6756
6081
6044
7032
6649
6379
6400
6435
6458
6693
6490
6393
5701
5841
6068
81
5998
6054
6129
6096
5867
5754
6008
6219
5762
6184
6213
360
5901
6159
5931
5934
5905
5931
5659
4834
5878
4852
5616
5504
5302
4289
5564
5479
5600
4905
5334
4290
5365
4936
5103
5005
4783
3150
5049
4762
1197
4762
4487
4807
4016
4797
4061
3727
4030
4100
4745
3753
4511
4265
4075
4539
4394
4512
4538
3455
4225
3467
4061
3983
3908
4213
4176
3982
3892
3907
3907
3172
3880
3952
3884
3221
3868
3681
3953
3620
3486
3881
3646
3673
3865
3267
3254
3571
2889
2619
3304
3421
3103
1476
3382
3140
3065
3018
2962
3053
3118
3141
2802
3033
2817
2993
2813
2850
2871
2797
2554
2540
2533
2439
2583
2449
2775
2086
2437
2185
2160
2252
2129
2136
2304
1783
2019
1844
1983
1735
1889
1725
1677
1662
1680
918
1445
1656
1417
1416
1382
1170
1136
1184
1012
958
896
849
884
878
910
624
612
674
639
729
482
341
299
545
296
471
118
342
79
62
)


// ************************************************************************* //
