/*--------------------------------*- C++ -*----------------------------------*\
  =========                 |
  \\      /  F ield         | OpenFOAM: The Open Source CFD Toolbox
   \\    /   O peration     | Website:  https://openfoam.org
    \\  /    A nd           | Version:  7
     \\/     M anipulation  |
\*---------------------------------------------------------------------------*/
FoamFile
{
    version     2.0;
    format      ascii;
    class       scalarField;
    location    "0.7/lagrangian/reactingCloud1";
    object      cellDensity;
}
// * * * * * * * * * * * * * * * * * * * * * * * * * * * * * * * * * * * * * //


2545
(
0.252563
0.252975
0.251891
0.251188
0.251509
0.251906
0.251032
0.250837
0.25084
0.250392
0.250155
0.249923
0.249794
0.249038
0.24931
0.248019
0.2483
0.247537
0.246947
0.248639
0.246859
0.247416
0.24689
0.248261
0.246738
0.247382
0.24766
0.247357
0.247587
0.248077
0.247628
0.247724
0.247784
0.247544
0.24762
0.24788
0.247724
0.247846
0.247826
0.247818
0.247864
0.247837
0.247821
0.247802
0.247838
0.247817
0.247824
0.247827
0.25172
0.251861
0.248988
0.236996
0.240049
0.253463
0.236464
0.247489
0.245326
0.251176
0.247932
0.245756
0.250013
0.251538
0.245351
0.24899
0.24658
0.250826
0.252867
0.252715
0.250926
0.253003
0.251118
0.252777
0.251023
0.250024
0.250284
0.25382
0.25371
0.253748
0.253765
0.253976
0.252469
0.251677
0.2539
0.25228
0.25306
0.254109
0.253308
0.253075
0.252882
0.253344
0.254209
0.252751
0.253517
0.253517
0.252855
0.253404
0.253659
0.25347
0.253067
0.25333
0.253621
0.253665
0.253395
0.252925
0.253538
0.252922
0.252872
0.253382
0.253083
0.252547
0.252497
0.253379
0.253344
0.253318
0.253045
0.253248
0.252151
0.25251
0.252926
0.196148
0.228144
0.208538
0.204355
0.202751
0.211812
0.213303
0.216587
0.218126
0.217858
0.221796
0.229724
0.235966
0.236318
0.167342
0.168616
0.169089
0.170223
0.171427
0.180825
0.182564
0.18446
0.185429
0.186258
0.189584
0.191734
0.191317
0.170832
0.163898
0.170832
0.163937
0.16476
0.172956
0.164048
0.177081
0.164204
0.164176
0.164279
0.166174
0.164392
0.195286
0.164744
0.167289
0.165177
0.165403
0.166018
0.165837
0.16582
0.166533
0.166556
0.166753
0.162761
0.162969
0.162788
0.163517
0.226344
0.162673
0.368956
0.162743
0.162756
0.163509
0.162892
0.162846
0.166714
0.176764
0.163214
0.16307
0.163007
0.163155
0.16308
0.163128
0.163093
0.16331
0.163285
0.163289
0.163747
0.163374
0.163504
0.163522
0.163582
0.163695
0.163689
0.163766
0.164113
0.163819
0.162223
0.162214
0.162251
0.162165
0.162422
0.162165
0.162378
0.162197
0.162683
0.162508
0.162223
0.162303
0.16249
0.359861
0.3609
0.185544
0.1622
0.162144
0.172661
0.162132
0.162146
0.20159
0.172878
0.162151
0.162285
0.162216
0.196522
0.162229
0.169137
0.180452
0.162336
0.162266
0.348397
0.162223
0.162234
0.197554
0.162262
0.168699
0.212014
0.162349
0.260307
0.167385
0.342733
0.172742
0.162318
0.174784
0.162421
0.164259
0.1624
0.162449
0.261155
0.359996
0.162567
0.162592
0.164403
0.162621
0.162657
0.162065
0.161976
0.162014
0.161976
0.16206
0.161994
0.162104
0.161997
0.162
0.161978
0.162123
0.162007
0.161983
0.161981
0.162081
0.161991
0.161976
0.162086
0.162092
0.161981
0.162098
0.162041
0.162021
0.162029
0.162065
0.162029
0.161986
0.162046
0.161989
0.162123
0.162033
0.162081
0.162151
0.162037
0.16205
0.162055
0.162021
0.162116
0.162033
0.161986
0.184286
0.21177
0.347365
0.249605
0.21433
0.264062
0.167387
0.17449
0.200723
0.217423
0.161983
0.167387
0.161976
0.170223
0.162036
0.351228
0.172139
0.204919
0.161994
0.161979
0.178058
0.189772
0.161986
0.186573
0.162002
0.188846
0.162041
0.161992
0.191233
0.162004
0.166559
0.209111
0.315549
0.162025
0.164386
0.347648
0.171691
0.162302
0.175688
0.194637
0.170823
0.179261
0.190626
0.162012
0.16224
0.35788
0.186703
0.186253
0.177889
0.162122
0.16516
0.162048
0.163833
0.176535
0.162081
0.164157
0.20419
0.17784
0.199982
0.165073
0.162102
0.16264
0.17651
0.162108
0.162147
0.188561
0.206712
0.162098
0.358
0.162076
0.162101
0.186404
0.353352
0.162217
0.162093
0.162149
0.161956
0.161936
0.161934
0.161946
0.161958
0.161943
0.161958
0.16193
0.161933
0.161953
0.161931
0.161944
0.16195
0.161934
0.161939
0.161931
0.16193
0.161963
0.161962
0.161934
0.16195
0.161956
0.16193
0.16194
0.161958
0.16194
0.161965
0.161953
0.161931
0.161931
0.16193
0.161932
0.161963
0.16193
0.16195
0.16193
0.161932
0.161965
0.161968
0.161939
0.16193
0.161972
0.161932
0.161932
0.161948
0.161935
0.16194
0.161963
0.161938
0.161932
0.161931
0.161931
0.161954
0.16193
0.161931
0.161953
0.161931
0.161972
0.161954
0.161942
0.161942
0.161938
0.16193
0.161931
0.161931
0.161942
0.161942
0.161943
0.161934
0.161942
0.161931
0.161933
0.161932
0.161936
0.161931
0.161932
0.161946
0.161944
0.161935
0.16196
0.161931
0.161944
0.16193
0.161941
0.161947
0.161932
0.29372
0.314289
0.186989
0.201351
0.244559
0.162113
0.178116
0.234579
0.189983
0.200476
0.162423
0.34792
0.322662
0.178518
0.236079
0.161931
0.345754
0.325978
0.35309
0.189406
0.173565
0.183534
0.181674
0.161942
0.162514
0.365942
0.310274
0.237152
0.287006
0.161936
0.16198
0.161975
0.162021
0.307981
0.197291
0.161937
0.182418
0.167912
0.16366
0.164379
0.16195
0.18804
0.161938
0.358375
0.222563
0.162217
0.162014
0.162262
0.161997
0.314488
0.174259
0.162107
0.163604
0.179956
0.167866
0.354712
0.162001
0.187559
0.187559
0.167125
0.162115
0.215444
0.178134
0.164966
0.238917
0.227942
0.180868
0.165424
0.178303
0.162363
0.161965
0.162051
0.161963
0.349929
0.161963
0.370248
0.174881
0.356529
0.192694
0.192694
0.161966
0.162163
0.162659
0.162062
0.162007
0.164403
0.161997
0.161949
0.162116
0.161988
0.161935
0.163107
0.161931
0.162007
0.161932
0.162855
0.161949
0.162116
0.161973
0.162062
0.16194
0.165083
0.162659
0.162659
0.162659
0.165083
0.161936
0.162284
0.16194
0.165915
0.165915
0.161933
0.162211
0.162018
0.163435
0.161931
0.162044
0.161952
0.161949
0.161997
0.161933
0.161961
0.162157
0.16386
0.162007
0.163107
0.161938
0.165083
0.165083
0.162116
0.163107
0.163435
0.161967
0.165083
0.162116
0.165915
0.165915
0.163435
0.162382
0.161932
0.162659
0.163435
0.16386
0.16194
0.164403
0.161988
0.162855
0.161957
0.161938
0.161949
0.16198
0.161973
0.162659
0.163107
0.163107
0.16198
0.161961
0.161932
0.161931
0.162116
0.161932
0.162284
0.161936
0.16386
0.161988
0.162211
0.162007
0.161931
0.164403
0.161957
0.16194
0.162382
0.164403
0.161943
0.162382
0.163107
0.162284
0.161931
0.162659
0.161938
0.16198
0.165915
0.16194
0.161957
0.162116
0.162284
0.161933
0.161936
0.16198
0.163107
0.162157
0.162505
0.163435
0.161932
0.161961
0.162157
0.161931
0.165083
0.163435
0.161988
0.165915
0.162007
0.161931
0.162062
0.161952
0.162157
0.162505
0.162505
0.161988
0.162157
0.162062
0.165915
0.162855
0.164403
0.161931
0.161952
0.165915
0.162116
0.16194
0.161943
0.161967
0.161952
0.16198
0.162018
0.161938
0.165083
0.161988
0.163107
0.165083
0.16386
0.162284
0.162855
0.161945
0.162382
0.332828
0.383399
0.361354
0.347502
0.230385
0.246641
0.188317
0.196685
0.268146
0.162116
0.181325
0.173897
0.16846
0.162382
0.21376
0.269046
0.200327
0.16386
0.190302
0.215839
0.235991
0.254179
0.275344
0.303514
0.191567
0.286465
0.201546
0.320053
0.277125
0.213737
0.166564
0.269855
0.162505
0.162505
0.162157
0.169359
0.162415
0.179366
0.202261
0.251813
0.330956
0.2253
0.253868
0.256459
0.206511
0.18653
0.187405
0.162216
0.209165
0.163492
0.201552
0.229552
0.181689
0.296227
0.173634
0.16291
0.278845
0.179877
0.317908
0.162062
0.191208
0.162091
0.178884
0.162007
0.215598
0.175957
0.338927
0.319259
0.24923
0.197496
0.185769
0.162061
0.229079
0.161967
0.268656
0.162553
0.183856
0.377223
0.22163
0.162025
0.161965
0.292655
0.167434
0.162549
0.174524
0.161943
0.161938
0.22758
0.172662
0.174104
0.31215
0.161935
0.161933
0.177426
0.345185
0.34232
0.161931
0.255815
0.172694
0.168606
0.197892
0.224663
0.242583
0.187933
0.172366
0.207377
0.213604
0.192253
0.225281
0.19443
0.225281
0.203113
0.19661
0.170796
0.234128
0.19661
0.23744
0.2358
0.172366
0.183707
0.219582
0.200956
0.168054
0.209477
0.217619
0.215626
0.215626
0.230687
0.19661
0.221513
0.166906
0.211553
0.185804
0.240625
0.179645
0.200956
0.192253
0.2358
0.232424
0.221513
0.175833
0.209477
0.175833
0.223413
0.19661
0.234128
0.223413
0.172366
0.181651
0.207377
0.228918
0.175833
0.185804
0.232424
0.209477
0.198787
0.19661
0.185804
0.179645
0.23744
0.240625
0.205254
0.166906
0.234128
0.239048
0.221513
0.205254
0.234128
0.205254
0.175833
0.225281
0.19661
0.232424
0.179645
0.200956
0.200956
0.177702
0.242171
0.240625
0.234128
0.219582
0.23744
0.175833
0.175833
0.19443
0.19661
0.23744
0.19443
0.227115
0.215626
0.219582
0.221513
0.187933
0.174049
0.239048
0.219582
0.239048
0.187933
0.179645
0.232424
0.166906
0.203113
0.175833
0.207377
0.169355
0.215626
0.2358
0.213604
0.203113
0.185804
0.203113
0.19661
0.203113
0.215626
0.168054
0.190085
0.242171
0.219582
0.175833
0.198787
0.23744
0.183707
0.221513
0.192253
0.223413
0.198787
0.175833
0.213604
0.170796
0.219582
0.225281
0.211553
0.203113
0.192253
0.192253
0.213604
0.175833
0.185804
0.169355
0.192253
0.207377
0.175833
0.221513
0.217619
0.221513
0.203113
0.192253
0.200956
0.198787
0.219582
0.223413
0.228918
0.183707
0.230687
0.192253
0.19443
0.19661
0.234128
0.228918
0.232424
0.205254
0.19443
0.198787
0.211553
0.240625
0.239048
0.227115
0.166906
0.198787
0.19443
0.221513
0.232424
0.190085
0.207377
0.170796
0.232424
0.209477
0.221513
0.217619
0.240625
0.203113
0.223413
0.190085
0.211553
0.174049
0.242171
0.211553
0.242171
0.203113
0.221513
0.240625
0.221513
0.175833
0.234128
0.217619
0.169355
0.234128
0.172366
0.239048
0.192253
0.207377
0.230687
0.207377
0.2358
0.181651
0.221513
0.170796
0.166906
0.170796
0.230687
0.213604
0.203113
0.223413
0.172366
0.198787
0.230687
0.175833
0.187933
0.232424
0.192253
0.170796
0.183707
0.187933
0.232424
0.242171
0.227115
0.174049
0.228918
0.190085
0.192253
0.2358
0.223413
0.177702
0.19443
0.170796
0.198787
0.217619
0.169355
0.215626
0.240625
0.242171
0.215626
0.207377
0.23744
0.213604
0.230687
0.225281
0.219582
0.228918
0.19443
0.175833
0.172366
0.211553
0.172366
0.234128
0.211553
0.203113
0.168054
0.239048
0.192253
0.179645
0.205254
0.175833
0.205254
0.213604
0.175833
0.172366
0.215626
0.200956
0.207377
0.179645
0.177702
0.190085
0.190085
0.169355
0.168054
0.169355
0.168054
0.179645
0.174049
0.223413
0.200956
0.376227
0.172366
0.379017
0.219582
0.211553
0.225281
0.370772
0.305259
0.340497
0.203113
0.281234
0.363134
0.314216
0.281725
0.32999
0.275826
0.259051
0.325877
0.313202
0.291835
0.271929
0.26459
0.179645
0.251096
0.24424
0.271277
0.203113
0.259995
0.240001
0.239148
0.185804
0.290791
0.237121
0.237474
0.297184
0.236019
0.255193
0.276746
0.232424
0.233538
0.234915
0.221513
0.32234
0.313707
0.24606
0.242635
0.238924
0.232945
0.230687
0.177702
0.228959
0.229565
0.32804
0.239697
0.226965
0.207377
0.318366
0.247865
0.263641
0.26357
0.274394
0.230689
0.237785
0.227379
0.243379
0.232235
0.237785
0.200956
0.245845
0.260922
0.241093
0.170796
0.218462
0.261623
0.233239
0.187933
0.215977
0.280736
0.219407
0.246657
0.230433
0.219407
0.235017
0.241634
0.209477
0.239212
0.332762
0.220915
0.215691
0.300247
0.29761
0.360274
0.211665
0.227317
0.207916
0.203113
0.240376
0.203113
0.373455
0.190085
0.346051
0.348511
0.250134
0.230772
0.199162
0.242878
0.212196
0.341542
0.207054
0.197847
0.284142
0.197747
0.291813
0.207662
0.19709
0.193799
0.236843
0.190318
0.300749
0.189108
0.189108
0.237639
0.223932
0.268911
0.185919
0.24204
0.239404
0.181651
0.186638
0.186638
0.231241
0.264187
0.244047
0.267785
0.183357
0.212861
0.197667
0.196079
0.180604
0.179462
0.17794
0.206373
0.312212
0.175834
0.171893
0.214086
0.185733
0.256577
0.361642
0.228187
0.258529
0.172028
0.224296
0.169355
0.217436
0.351005
0.192809
0.245314
0.168725
0.167083
0.290175
0.179022
0.167083
0.173819
0.25083
0.267466
0.265356
0.249457
0.283364
0.253494
0.276921
0.243687
0.263164
0.275164
0.248057
0.258518
0.253494
0.257299
0.27605
0.274262
0.272409
0.243687
0.259713
0.283364
0.280253
0.282605
0.27605
0.270486
0.257299
0.269498
0.270486
0.249457
0.281834
0.252175
0.26427
0.281834
0.248057
0.259713
0.276921
0.253494
0.277776
0.281834
0.262036
0.256055
0.258518
0.259713
0.279441
0.254787
0.246629
0.254787
0.243687
0.268491
0.254787
0.258518
0.269498
0.268491
0.266421
0.274262
0.270486
0.266421
0.283364
0.25083
0.280253
0.280253
0.245173
0.248057
0.279441
0.284846
0.276921
0.271456
0.253494
0.273344
0.245173
0.278616
0.279441
0.267466
0.262036
0.277776
0.284846
0.26427
0.272409
0.260886
0.282605
0.274262
0.258518
0.277776
0.275164
0.280253
0.283364
0.271456
0.243687
0.259713
0.263164
0.278616
0.272409
0.243687
0.252175
0.260886
0.28105
0.259713
0.263164
0.25083
0.275164
0.254787
0.280253
0.281834
0.279441
0.27605
0.254787
0.274262
0.275164
0.245173
0.277776
0.265356
0.260886
0.267466
0.276921
0.252175
0.243687
0.258518
0.273344
0.248057
0.28411
0.283364
0.277776
0.25083
0.245173
0.248057
0.257299
0.265356
0.277776
0.272409
0.256055
0.256055
0.263164
0.27605
0.273344
0.266421
0.249457
0.273344
0.259713
0.270486
0.25083
0.25083
0.246629
0.278616
0.270486
0.252175
0.275164
0.253494
0.284846
0.273344
0.26427
0.274262
0.274262
0.259713
0.260886
0.259713
0.252175
0.243687
0.269498
0.257299
0.276921
0.270486
0.267466
0.252175
0.276921
0.270486
0.252175
0.262036
0.260886
0.273344
0.254787
0.249457
0.282605
0.267466
0.275164
0.249457
0.249457
0.243687
0.266421
0.260886
0.270486
0.252175
0.257299
0.28105
0.269498
0.28105
0.246629
0.256055
0.257299
0.272409
0.280253
0.246629
0.279441
0.243687
0.254787
0.263164
0.256055
0.263164
0.267466
0.258518
0.249457
0.258518
0.249457
0.271456
0.272409
0.272409
0.248057
0.269498
0.266421
0.258518
0.280253
0.273344
0.256055
0.271456
0.253494
0.273344
0.262036
0.262036
0.28105
0.283364
0.279441
0.283364
0.252175
0.256055
0.26427
0.287653
0.283364
0.351455
0.268491
0.267466
0.25083
0.266421
0.337553
0.341667
0.383653
0.336524
0.34655
0.28566
0.29386
0.384321
0.334806
0.322879
0.285065
0.260886
0.314304
0.285874
0.294473
0.283935
0.37405
0.284174
0.283854
0.290362
0.333628
0.316083
0.293403
0.282772
0.288573
0.307212
0.297813
0.282464
0.301559
0.329425
0.281947
0.325017
0.305684
0.286974
0.279332
0.281224
0.384245
0.284387
0.278616
0.372764
0.27999
0.280894
0.275164
0.354299
0.36598
0.282207
0.298959
0.330662
0.372487
0.298369
0.300362
0.286804
0.276891
0.27605
0.372764
0.295334
0.328083
0.249457
0.296751
0.268491
0.277286
0.277286
0.276063
0.243687
0.295238
0.276407
0.277645
0.279128
0.332044
0.33529
0.282548
0.286688
0.273646
0.338804
0.336851
0.28178
0.274287
0.28542
0.267466
0.271397
0.269766
0.379048
0.303236
0.268775
0.272527
0.267516
0.273246
0.278837
0.253494
0.329729
0.331785
0.367367
0.277533
0.284019
0.258518
0.264288
0.337005
0.264453
0.296425
0.371047
0.264011
0.289247
0.268178
0.29759
0.280712
0.323978
0.268059
0.282851
0.267546
0.259713
0.26862
0.383053
0.283109
0.342016
0.268485
0.269722
0.326539
0.317617
0.312618
0.291268
0.27066
0.286227
0.256885
0.361104
0.34403
0.306521
0.365589
0.31334
0.260334
0.370229
0.260436
0.286572
0.275867
0.335314
0.258834
0.272021
0.26405
0.25329
0.252423
0.384685
0.30085
0.328554
0.300421
0.250201
0.382953
0.252145
0.287396
0.262501
0.318556
0.260761
0.246713
0.26002
0.296176
0.30854
0.292983
0.243687
0.299825
0.309326
0.294334
0.310574
0.307457
0.303111
0.296243
0.286288
0.292395
0.306214
0.294973
0.304352
0.30187
0.293045
0.29561
0.292395
0.29561
0.288384
0.303111
0.29561
0.294334
0.303111
0.29561
0.300627
0.304352
0.287693
0.286288
0.289068
0.29561
0.293691
0.303111
0.290415
0.303731
0.306835
0.305593
0.305593
0.307457
0.300004
0.306835
0.298757
0.293691
0.29174
0.289068
0.303731
0.309949
0.299381
0.30187
0.289068
0.307457
0.29108
0.296243
0.304352
0.286288
0.306214
0.288384
0.298757
0.287693
0.287693
0.29174
0.296243
0.297504
0.298757
0.300004
0.305593
0.303731
0.310574
0.29561
0.303111
0.289068
0.292395
0.29174
0.29174
0.292395
0.288384
0.310574
0.29174
0.289745
0.293691
0.301248
0.297504
0.292395
0.310574
0.292395
0.303731
0.290415
0.289745
0.306214
0.300627
0.285572
0.298757
0.290415
0.293045
0.303731
0.289745
0.286288
0.29108
0.306214
0.303731
0.309326
0.310574
0.285572
0.294973
0.299381
0.308702
0.300627
0.304972
0.297504
0.29108
0.301248
0.309326
0.296875
0.304352
0.292395
0.30187
0.306835
0.287693
0.299381
0.299381
0.305593
0.290415
0.309949
0.298757
0.303111
0.290415
0.294973
0.285572
0.308702
0.288384
0.288384
0.300004
0.293691
0.300627
0.290415
0.296243
0.304352
0.286288
0.309326
0.293045
0.30808
0.303111
0.289068
0.294973
0.305593
0.293691
0.30187
0.287693
0.30187
0.29561
0.30249
0.30808
0.300627
0.307457
0.38454
0.286995
0.383976
0.383981
0.292395
0.300004
0.384309
0.293691
0.376655
0.384389
0.285572
0.384336
0.342376
0.29561
0.290415
0.292395
0.294973
0.384064
0.364649
0.34517
0.384609
0.30187
0.365798
0.356755
0.335388
0.356224
0.383911
0.29174
0.309326
0.310587
0.336905
0.38391
0.383887
0.313524
0.313724
0.384104
0.384365
0.363845
0.343204
0.357639
0.309326
0.360087
0.310759
0.310333
0.313882
0.297504
0.300627
0.30998
0.309833
0.31412
0.288384
0.333494
0.314392
0.308985
0.363852
0.343553
0.31007
0.307462
0.309393
0.310266
0.308985
0.318212
0.370779
0.328766
0.306245
0.306219
0.309509
0.307492
0.305598
0.307682
0.342635
0.312448
0.313392
0.383864
0.322137
0.304988
0.299381
0.305055
0.304385
0.326799
0.361105
0.3814
0.383909
0.314137
0.380347
0.335322
0.364694
0.304116
0.379364
0.306712
0.315578
0.325345
0.315544
0.318766
0.314858
0.298757
0.366414
0.319137
0.294973
0.302148
0.35102
0.331252
0.301254
0.319907
0.304359
0.300723
0.362691
0.355942
0.304942
0.300024
0.313748
0.311977
0.300024
0.300793
0.312627
0.303482
0.301377
0.321721
0.299824
0.293045
0.32924
0.35343
0.315625
0.331562
0.299683
0.38457
0.305972
0.326395
0.298849
0.311866
0.314737
0.353458
0.384474
0.362683
0.336551
0.297788
0.314002
0.30775
0.35076
0.326877
0.296635
0.308407
0.296285
0.368214
0.369649
0.384275
0.306855
0.312083
0.307213
0.298049
0.310981
0.295092
0.29252
0.29174
0.301156
0.292893
0.294667
0.295936
0.293187
0.301371
0.326219
0.322539
0.337385
0.295007
0.359433
0.293645
0.297519
0.340468
0.342045
0.288384
0.306552
0.294916
0.32416
0.322057
0.326275
0.293497
0.368789
0.294052
0.290317
0.297804
0.30732
0.288327
0.293217
0.312012
0.379376
0.341856
0.285673
0.358674
0.332112
0.313084
0.321968
0.334727
0.314975
0.336695
0.311827
0.333408
0.313084
0.32834
0.316878
0.314975
0.329601
0.318778
0.316241
0.322595
0.327069
0.326413
0.321968
0.327069
0.332112
0.318148
0.330854
0.311827
0.316878
0.323869
0.32514
0.325793
0.314346
0.330854
0.325793
0.327681
0.32514
0.319419
0.326413
0.330193
0.32834
0.323869
0.327681
0.322595
0.326413
0.336135
0.326413
0.318778
0.313084
0.314975
0.314346
0.313713
0.312453
0.326413
0.312453
0.320693
0.314975
0.317509
0.334003
0.332701
0.324518
0.335332
0.315611
0.330193
0.318778
0.325793
0.318148
0.314975
0.313084
0.315611
0.312453
0.329601
0.32514
0.318148
0.334727
0.332112
0.313084
0.332112
0.330854
0.312453
0.321968
0.313084
0.317509
0.329601
0.330854
0.316241
0.327069
0.324518
0.336135
0.314346
0.323244
0.334003
0.316878
0.325793
0.321968
0.331438
0.333408
0.326413
0.327069
0.316878
0.313084
0.335332
0.327681
0.332701
0.313713
0.334727
0.312453
0.323869
0.331438
0.316241
0.327069
0.331438
0.323869
0.322595
0.313084
0.329601
0.330193
0.313713
0.314346
0.326413
0.330193
0.319419
0.327069
0.32514
0.311199
0.329601
0.313084
0.311199
0.323244
0.328944
0.311199
0.327069
0.330193
0.322595
0.328944
0.316878
0.325793
0.314346
0.329601
0.334067
0.336135
0.334003
0.320693
0.323244
0.335332
0.313713
0.332701
0.319419
0.316878
0.384637
0.323869
0.384641
0.332112
0.332701
0.384698
0.336695
0.384582
0.32834
0.321968
0.384264
0.384626
0.384726
0.384671
0.364325
0.317509
0.384627
0.32834
0.316878
0.384661
0.384712
0.367661
0.384647
0.325793
0.314346
0.384684
0.384727
0.350353
0.344163
0.345383
0.354491
0.365233
0.348569
0.375625
0.375625
0.356789
0.384263
0.32514
0.351036
0.384641
0.33963
0.362986
0.360496
0.384268
0.34458
0.338395
0.350183
0.336739
0.384594
0.338254
0.374515
0.338542
0.33684
0.330854
0.341176
0.346619
0.384077
0.339941
0.337733
0.338863
0.358042
0.3421
0.316241
0.38449
0.344205
0.3421
0.336208
0.313084
0.337451
0.371813
0.34352
0.344727
0.336352
0.336512
0.352536
0.342553
0.384598
0.341301
0.352122
0.338395
0.336705
0.384706
0.331554
0.320693
0.335697
0.336426
0.337618
0.3847
0.384652
0.338061
0.355341
0.336138
0.343762
0.360452
0.362133
0.316878
0.338228
0.345832
0.335129
0.337253
0.351527
0.384683
0.368401
0.346642
0.384293
0.33438
0.349148
0.380935
0.380805
0.341595
0.37093
0.321968
0.352917
0.334585
0.342758
0.333408
0.33772
0.334903
0.359648
0.355991
0.334143
0.368918
0.311827
0.371288
0.312453
0.384613
0.336178
0.334646
0.33341
0.336607
0.33346
0.330928
0.35087
0.335894
0.339401
0.332874
0.347296
0.33347
0.340454
0.322595
0.350667
0.367108
0.342839
0.352801
0.38452
0.336866
0.337351
0.330854
0.334646
0.327681
0.356658
0.355588
0.358826
0.38431
0.335466
0.332703
0.384362
0.355588
0.343921
0.331595
0.367662
0.369594
0.332559
0.351788
0.331621
0.377079
0.384613
0.331015
0.38431
0.33773
0.333951
0.378227
0.384629
0.330252
0.330779
0.345313
0.323869
0.331521
0.354274
0.330224
0.354455
0.384597
0.340355
0.342152
0.331448
0.320693
0.314346
0.384536
0.358845
0.352356
0.371024
0.336675
0.341794
0.339986
0.334705
0.384661
0.343663
0.332647
0.361186
0.335944
0.356878
0.360715
0.330639
0.384729
0.329831
0.384337
0.329983
0.342545
0.383946
0.333363
0.382225
0.351065
0.384119
0.347058
0.344834
0.324518
0.343994
0.331214
0.332035
0.329478
0.384116
0.329328
0.348958
0.377387
0.363783
0.338317
0.336077
0.38459
0.329508
0.32845
0.329162
0.339683
0.372722
0.339158
0.336041
0.384019
0.38446
0.384567
0.327105
0.361827
0.328054
0.344363
0.384156
0.328062
0.329983
0.334787
0.348192
0.329235
0.384092
0.32699
0.345908
0.357351
0.327798
0.343898
0.341588
0.337016
0.330753
0.327869
0.33469
0.325886
0.338484
0.384312
0.33651
0.349195
0.311199
0.383783
0.353449
0.335005
0.342256
0.331395
0.362744
0.378357
0.32514
0.35874
0.326786
0.325195
0.311827
0.3266
0.32978
0.32464
0.324575
0.326206
0.32464
0.323877
0.384707
0.32958
0.384568
0.326685
0.350723
0.331798
0.384615
0.335713
0.360755
0.328903
0.370452
0.326513
0.384609
0.323681
0.354131
0.322595
0.335237
0.324506
0.318148
0.326794
0.327556
0.313713
0.327556
0.326372
0.322428
0.384556
0.323098
0.375902
0.384636
0.384236
0.353759
0.330737
0.384184
0.323134
0.320696
0.366513
0.321387
0.348654
0.323033
0.321408
0.384594
0.32336
0.384369
0.375902
0.320082
0.329457
0.325053
0.332329
0.320098
0.333156
0.329675
0.329675
0.384623
0.336185
0.322064
0.335154
0.378666
0.33939
0.320667
0.321954
0.331115
0.384035
0.335926
0.325568
0.321483
0.340214
0.352206
0.357923
0.344318
0.384645
0.384586
0.340674
0.318901
0.321964
0.314346
0.322505
0.31834
0.329641
0.342573
0.365318
0.332673
0.319969
0.318305
0.325548
0.338176
0.322594
0.35035
0.323326
0.318332
0.317509
0.326651
0.319539
0.321723
0.323024
0.348922
0.317043
0.345734
0.332085
0.384022
0.349608
0.340919
0.348894
0.322931
0.363341
0.35934
0.316409
0.384576
0.316071
0.367304
0.320498
0.315799
0.346239
0.316782
0.325956
0.329981
0.325204
0.313084
0.316316
0.3317
0.321066
0.32128
0.329953
0.315255
0.321021
0.314087
0.364594
0.384327
0.314145
0.322452
0.315547
0.31645
0.313236
0.31297
0.314067
0.384453
0.312453
0.367382
0.350368
0.312662
0.319618
0.329037
0.32034
0.355262
0.384406
0.312579
0.311212
0.312053
)


// ************************************************************************* //
