/*--------------------------------*- C++ -*----------------------------------*\
  =========                 |
  \\      /  F ield         | OpenFOAM: The Open Source CFD Toolbox
   \\    /   O peration     | Website:  https://openfoam.org
    \\  /    A nd           | Version:  7
     \\/     M anipulation  |
\*---------------------------------------------------------------------------*/
FoamFile
{
    version     2.0;
    format      ascii;
    class       vectorField;
    location    "0.7/lagrangian/reactingCloud1";
    object      coordinates;
}
// * * * * * * * * * * * * * * * * * * * * * * * * * * * * * * * * * * * * * //


2545
(
(-0.947377 0.348131 9.89748e-12)
(-0.963981 0.405091 2.07132e-07)
(-0.975444 0.290707 4.07202e-10)
(-0.992857 0.0607662 1.25028e-11)
(-1.00182 0.28731 1.94678e-10)
(-1.01057 0.379032 2.58898e-10)
(-1.03084 0.263823 5.71928e-11)
(-1.04387 0.264267 -3.34068e-11)
(-1.05004 0.372909 5.52687e-10)
(-1.07456 0.172785 -3.43327e-11)
(-1.08122 0.308838 -1.9298e-10)
(-1.10674 0.13917 -1.18862e-10)
(-1.12081 0.119202 -1.25702e-10)
(-1.12483 0.311943 -2.33533e-10)
(-1.14855 0.208855 -1.50368e-11)
(-1.1538 0.358727 -1.94448e-09)
(-1.1714 0.311013 -7.3799e-10)
(-1.18408 0.350594 -6.7804e-10)
(-1.19859 0.366927 -1.57051e-10)
(-1.22617 0.169012 -3.1249e-12)
(-1.23419 0.36137 -1.62281e-09)
(-1.25291 0.320461 -2.15288e-09)
(-1.26556 0.356303 -4.99253e-10)
(-1.28909 0.180658 4.06094e-12)
(-1.39122 0.387212 8.81874e-07)
(-1.3172 0.334701 1.33054e-10)
(-1.33431 0.287994 8.88542e-11)
(-1.34772 0.356697 2.05625e-10)
(-1.36716 0.308118 -4.37204e-10)
(-1.38525 0.101465 -9.07134e-11)
(-1.39707 0.311803 -1.78295e-10)
(-1.41544 0.274804 -1.25063e-10)
(-1.43296 0.250027 -1.27695e-10)
(-1.44693 0.375509 -4.16926e-11)
(-1.46297 0.368414 3.46552e-11)
(-1.48133 0.161535 8.81433e-12)
(-1.49439 0.319774 -2.20429e-11)
(-1.51052 0.184109 2.25335e-12)
(-1.5283 0.20546 -2.04348e-11)
(-1.54339 0.218818 1.56694e-11)
(-1.56133 0.111944 3.42247e-12)
(-1.57529 0.172796 4.14296e-12)
(-1.59187 0.218018 4.76533e-12)
(-1.6096 0.334303 1.43736e-11)
(-1.62506 0.117557 2.25637e-12)
(-1.64215 0.317183 9.70653e-12)
(-1.65574 0.354833 -3.29533e-13)
(-1.67378 0.0920941 -1.63642e-13)
(-0.929654 0.463195 -8.3035e-07)
(-0.814163 0.490209 1.54912e-06)
(-0.299131 0.359938 1.41387e-06)
(-0.114021 0.264887 1.64847e-11)
(-0.146107 0.283085 4.74714e-12)
(-0.600542 0.456385 -1.91506e-06)
(-0.106829 0.168403 2.50071e-10)
(-0.265494 0.33261 -6.2901e-07)
(-0.221134 0.279854 -6.73212e-12)
(-0.374716 0.387356 7.5821e-07)
(-0.280629 0.31129 -2.05461e-06)
(-0.241832 0.262574 2.7026e-10)
(-0.326721 0.361837 1.48035e-07)
(-0.390996 0.334491 9.43878e-07)
(-0.257278 0.106972 4.8167e-10)
(-0.318839 0.26867 -4.47521e-12)
(-0.278348 0.132117 2.52832e-10)
(-0.367411 0.374178 1.38461e-07)
(-0.446284 0.405825 1.57515e-06)
(-0.448522 0.341546 1.05989e-07)
(-0.371166 0.302748 -1.70394e-11)
(-0.451795 0.395758 9.83635e-07)
(-0.390069 0.289691 -3.83924e-12)
(-0.435212 0.374449 -1.83707e-07)
(-0.404364 0.243023 -1.56223e-12)
(-0.39543 0.128635 2.35793e-10)
(-0.408861 0.106945 5.13117e-10)
(-0.539745 0.417408 6.8572e-07)
(-0.506224 0.375509 -2.90845e-07)
(-0.506035 0.394841 -6.1331e-08)
(-0.513695 0.394078 1.55953e-06)
(-0.577369 0.419372 -1.95704e-07)
(-0.503295 0.252355 8.76024e-10)
(-0.498376 0.082837 -1.43029e-12)
(-0.547307 0.373109 1.40698e-09)
(-0.52954 0.162287 3.51087e-10)
(-0.551825 0.276832 -1.70012e-11)
(-0.627568 0.421255 -1.68683e-06)
(-0.576829 0.286854 1.41203e-09)
(-0.584179 0.250126 -6.53428e-11)
(-0.59011 0.202569 -1.4461e-11)
(-0.608743 0.276602 9.77275e-10)
(-0.635118 0.393299 2.09445e-09)
(-0.622325 0.144781 2.49771e-10)
(-0.645309 0.294864 -7.04698e-15)
(-0.655287 0.295185 1.72512e-10)
(-0.658626 0.149308 9.19565e-11)
(-0.677035 0.272833 -2.8041e-11)
(-0.692068 0.32488 -2.21569e-11)
(-0.700611 0.288688 -2.49826e-11)
(-0.706817 0.207101 4.4734e-11)
(-0.721036 0.271996 -6.96005e-12)
(-0.758714 0.414209 1.85548e-06)
(-0.750442 0.363972 7.74909e-10)
(-0.757916 0.31099 -3.48045e-11)
(-0.766502 0.192542 -1.24814e-12)
(-0.783833 0.371881 -1.34066e-11)
(-0.790005 0.214009 -2.20963e-12)
(-0.801191 0.214035 -7.31258e-12)
(-0.815486 0.34801 8.2888e-10)
(-0.82439 0.295597 1.62367e-10)
(-0.836437 0.171442 -4.08951e-12)
(-0.849568 0.172336 8.78251e-11)
(-0.855714 0.397853 9.86683e-11)
(-0.864178 0.39243 9.38102e-10)
(-0.877895 0.402238 8.07969e-10)
(-0.886267 0.351662 3.34494e-10)
(-0.902636 0.402393 6.47156e-10)
(-0.911612 0.202236 -4.05511e-12)
(-0.92338 0.305061 1.96886e-11)
(-0.935742 0.376771 1.57598e-10)
(0.280038 0.197264 -3.75548e-06)
(0.216561 0.27372 -5.77628e-06)
(0.205241 0.266582 -5.32495e-07)
(0.177746 0.197906 2.35495e-07)
(0.193185 0.244949 -1.09975e-06)
(0.102853 0.205848 7.60015e-07)
(0.0886776 0.19124 -1.3826e-06)
(0.0788276 0.0939438 -6.66091e-10)
(0.054597 0.171503 1.09312e-11)
(0.0478383 0.285189 7.40488e-07)
(0.0198143 0.154111 7.0921e-11)
(-0.0521838 0.27291 -4.52101e-07)
(-0.0968867 0.26543 9.39603e-10)
(-0.102768 0.327349 -5.8708e-08)
(0.913575 0.0728365 3.68662e-12)
(0.879598 0.236225 3.97395e-07)
(0.802743 0.217632 -5.95208e-08)
(0.780471 0.0808579 -4.19751e-11)
(0.727545 0.160116 -1.47028e-06)
(0.496744 0.216639 -3.57314e-08)
(0.475005 0.209112 -4.11419e-07)
(0.456907 0.106672 -6.95462e-11)
(0.437333 0.238964 -5.57481e-06)
(0.427195 0.0980716 -1.90238e-12)
(0.373508 0.207191 7.02731e-07)
(0.361401 0.0763836 -1.79551e-11)
(0.33921 0.241632 1.48408e-06)
(1.81643 0.237537 -6.66528e-06)
(1.83837 0.158242 -1.24562e-13)
(1.82551 0.237975 5.80587e-06)
(1.80491 0.144549 4.86739e-12)
(1.71748 0.227009 -4.6302e-07)
(1.63716 0.242457 1.16049e-06)
(1.66376 0.204313 -8.26118e-07)
(1.57864 0.249405 -1.17447e-06)
(1.60067 0.214112 -1.96603e-06)
(1.5944 0.0945083 2.04621e-11)
(1.54325 0.0234656 2.00488e-12)
(1.5017 0.234546 -6.54159e-07)
(1.41038 0.139624 1.43727e-11)
(1.31121 0.262025 -8.05815e-06)
(1.27254 0.210759 2.17633e-06)
(1.23953 0.237835 -6.955e-06)
(1.1507 0.194999 -1.25993e-06)
(1.11275 0.180635 4.73488e-06)
(1.11206 0.228532 4.35533e-07)
(1.06238 0.220671 3.07329e-07)
(1.04799 0.16791 -2.87404e-06)
(0.978057 0.203339 -3.48639e-07)
(0.974091 0.156287 3.52998e-11)
(0.9428 0.189968 -2.31699e-06)
(3.148 -2.09052e-33 1.82437e-35)
(2.8756 -2.1136e-33 1.84451e-35)
(3.1094 -2.09379e-33 1.82722e-35)
(2.31736 -2.16091e-33 1.8858e-35)
(3.09669 0.272083 -1.43109e-06)
(3.15639 0.138299 1.13721e-06)
(2.98691 0.402865 -6.38827e-06)
(3.0537 0.183526 1.74037e-06)
(2.99735 0.169317 5.1521e-07)
(2.90476 0.21026 -1.8143e-06)
(2.90008 0.124669 -1.41913e-12)
(2.89676 0.175104 1.43055e-06)
(2.79544 0.2229 5.4078e-06)
(2.77779 0.236173 9.84591e-07)
(2.7782 0.202429 2.37811e-06)
(2.74269 0.0758192 3.5745e-06)
(2.69546 0.181305 2.7541e-06)
(2.68321 0.201165 -5.11023e-07)
(2.6503 0.185501 8.3595e-07)
(2.63606 0.118726 -9.26846e-15)
(2.62849 0.150324 -3.72312e-06)
(2.47348 0.108672 1.91933e-14)
(2.42577 0.188643 -3.88837e-07)
(2.43441 0.156833 -7.15968e-07)
(2.42834 0.21429 1.02847e-08)
(2.3797 0.146555 1.46963e-14)
(2.3145 0.0878024 1.47013e-13)
(2.22488 0.133117 -5.73001e-15)
(2.17266 0.136219 -9.23473e-15)
(2.15881 0.0537712 -2.10668e-13)
(2.08761 0.204509 -2.60172e-06)
(1.94327 0.190665 2.3651e-06)
(1.90881 0.217902 -3.67899e-06)
(1.88189 0.187648 -4.59868e-06)
(4.75555 -1.95427e-33 1.70547e-35)
(4.79352 -1.95105e-33 1.70266e-35)
(4.58308 -1.96889e-33 1.71822e-35)
(5.12725 -1.92277e-33 1.67798e-35)
(3.86129 -2.03006e-33 1.77161e-35)
(5.13502 -1.92211e-33 1.6774e-35)
(4.03178 -2.01561e-33 1.759e-35)
(4.89295 -1.94263e-33 1.69531e-35)
(3.27384 -2.07985e-33 1.81506e-35)
(3.64384 -2.04849e-33 1.78769e-35)
(4.75557 -1.95427e-33 1.70547e-35)
(4.32042 -1.99115e-33 1.73765e-35)
(3.67695 -2.04569e-33 1.78524e-35)
(4.94114 0.448942 -1.72253e-06)
(4.93136 0.443226 1.7309e-06)
(5.21675 0.222672 1.07368e-06)
(5.16967 0.158753 -1.27057e-06)
(5.11248 0.0872158 1.94857e-13)
(5.08274 0.203491 1.7071e-06)
(4.90571 0.140143 -7.88856e-07)
(4.89445 0.116169 3.72976e-13)
(4.75786 0.245768 1.66242e-06)
(4.7667 0.208068 1.83527e-07)
(4.78872 0.12955 -6.35084e-13)
(4.71791 0.169202 -1.32361e-06)
(4.70639 0.0667347 1.72581e-13)
(4.61949 0.239111 -4.96175e-06)
(4.70448 0.0307903 -3.62194e-06)
(4.58926 0.203185 -9.21118e-07)
(4.49745 0.220562 3.83071e-06)
(4.5458 0.173428 1.05363e-06)
(4.48237 0.0358926 2.02433e-13)
(4.20736 0.339491 -1.18728e-06)
(4.32126 0.151622 4.03331e-08)
(4.24885 0.146904 -1.00803e-06)
(4.14784 0.245255 6.82491e-07)
(4.18705 0.122859 -1.06257e-13)
(4.14489 0.210188 -2.33825e-07)
(4.03865 0.259506 7.38236e-07)
(4.10894 0.0266017 8.52156e-13)
(3.90511 0.287091 -1.13416e-05)
(3.98016 0.207023 -9.94943e-07)
(3.81629 0.328399 -5.52167e-06)
(3.96412 0.219076 2.35765e-06)
(3.91274 0.148037 1.77677e-07)
(3.82252 0.220271 -2.41126e-07)
(3.81031 0.0650789 1.50197e-14)
(3.66481 0.205627 3.39646e-07)
(3.66015 0.167163 1.86019e-06)
(3.62558 0.112325 -1.39815e-06)
(3.50098 0.28824 -4.62418e-06)
(3.52413 0.48187 -4.54518e-07)
(3.415 0.096215 -3.19804e-15)
(3.39296 0.063422 -5.68594e-15)
(3.37999 0.209067 -9.52847e-07)
(3.24199 0.137219 -5.30531e-14)
(3.23621 0.102229 -7.29727e-14)
(6.16196 -1.83508e-33 1.60145e-35)
(8.15878 -1.66584e-33 1.45376e-35)
(7.07211 -1.75794e-33 1.53413e-35)
(8.16119 -1.66564e-33 1.45358e-35)
(6.27695 -1.82533e-33 1.59294e-35)
(7.58484 -1.71448e-33 1.49621e-35)
(5.70356 -1.87393e-33 1.63535e-35)
(7.48242 -1.72316e-33 1.50378e-35)
(7.40194 -1.72998e-33 1.50973e-35)
(8.12536 -1.66867e-33 1.45623e-35)
(5.51727 -1.88972e-33 1.64913e-35)
(7.22647 -1.74486e-33 1.52271e-35)
(7.90504 -1.68735e-33 1.47252e-35)
(8.03717 -1.67615e-33 1.46275e-35)
(5.96786 -1.85153e-33 1.6158e-35)
(7.71022 -1.70386e-33 1.48693e-35)
(8.19234 -1.663e-33 1.45127e-35)
(5.94418 -1.85353e-33 1.61755e-35)
(5.82778 -1.8634e-33 1.62616e-35)
(7.98491 -1.68058e-33 1.46662e-35)
(5.77267 -1.86807e-33 1.63024e-35)
(6.58122 -1.79954e-33 1.57044e-35)
(6.95866 -1.76755e-33 1.54252e-35)
(6.7556 -1.78476e-33 1.55754e-35)
(6.1707 -1.83433e-33 1.6008e-35)
(6.81559 -1.77968e-33 1.5531e-35)
(7.8059 -1.69575e-33 1.47986e-35)
(6.4717 -1.80882e-33 1.57854e-35)
(7.79555 -1.69663e-33 1.48062e-35)
(5.53009 -1.88863e-33 1.64818e-35)
(6.67211 -1.79184e-33 1.56371e-35)
(6.01264 -1.84773e-33 1.61249e-35)
(5.27532 -1.91022e-33 1.66702e-35)
(6.64569 -1.79408e-33 1.56567e-35)
(6.38031 -1.81657e-33 1.5853e-35)
(6.36619 -1.81777e-33 1.58634e-35)
(6.96362 -1.76713e-33 1.54215e-35)
(5.59202 -1.88338e-33 1.6436e-35)
(6.71221 -1.78844e-33 1.56075e-35)
(7.82864 -1.69382e-33 1.47818e-35)
(8.16846 0.190542 4.61227e-06)
(8.08529 0.235575 2.88345e-06)
(7.6571 0.373462 2.8053e-08)
(7.8274 0.278497 5.70757e-07)
(7.89095 0.237399 -1.70714e-07)
(7.72267 0.295059 -1.75485e-06)
(8.04807 0.154552 2.59365e-06)
(8.0244 0.171898 6.093e-07)
(7.75963 0.223118 -3.3093e-06)
(7.83421 0.241983 -2.17336e-06)
(7.93409 0.00178338 2.004e-06)
(7.97554 0.156015 2.54793e-08)
(7.86423 0.0664449 7.52408e-14)
(7.89379 0.164739 -1.50406e-07)
(7.93069 0.111641 1.35288e-06)
(7.29559 0.377291 -2.71303e-06)
(7.57304 0.170195 -4.21818e-06)
(7.34841 0.229965 -1.03466e-06)
(7.49414 0.106921 1.12232e-06)
(7.59864 0.0890274 4.09409e-07)
(7.4769 0.187582 -9.97886e-09)
(7.3602 0.206691 2.09686e-07)
(7.44032 0.0724352 -2.56993e-08)
(7.27288 0.20174 -2.03923e-06)
(7.28605 0.0411182 4.55194e-15)
(7.1754 0.208518 -1.70845e-06)
(7.3277 0.120745 -1.27386e-06)
(7.2599 0.0760235 -3.14619e-06)
(7.10668 0.213993 3.4576e-06)
(7.1043 0.0621555 -1.32336e-13)
(7.14304 0.164423 -1.76986e-06)
(6.81396 0.239742 5.89711e-09)
(6.68415 0.330365 -4.03647e-06)
(6.84393 0.00707896 -1.83134e-07)
(6.90016 0.161164 -7.56835e-07)
(6.6023 0.358853 1.39343e-05)
(6.81148 0.181557 6.38699e-08)
(6.82185 0.141814 -2.16306e-06)
(6.74378 0.192367 -6.52419e-07)
(6.62282 0.222882 -3.35488e-06)
(6.63183 0.183077 1.73511e-06)
(6.50402 0.199657 5.12677e-08)
(6.4859 0.218698 9.73335e-07)
(6.52091 0.11286 3.00991e-07)
(6.39917 0.145141 4.24045e-06)
(6.13734 0.381017 6.34719e-06)
(6.30996 0.213743 -3.10524e-07)
(6.26712 0.212896 1.2802e-06)
(6.25029 0.199875 4.3903e-06)
(6.26148 0.141987 1.00539e-06)
(6.20697 0.17258 2.42614e-06)
(6.19784 0.0731747 1.82623e-13)
(6.10045 0.166948 -2.23266e-06)
(6.06061 0.198208 8.27475e-07)
(5.87932 0.059193 -1.98162e-15)
(5.94169 0.172058 -7.69555e-09)
(5.85073 0.240932 6.24612e-07)
(5.84886 0.205669 -4.87453e-07)
(5.79084 0.233082 -2.81405e-06)
(5.83375 0.176177 -5.11232e-07)
(5.70628 0.031068 5.40884e-14)
(5.75143 0.16246 -3.66047e-06)
(5.66664 0.202177 2.59519e-07)
(5.60572 0.051621 -1.27672e-14)
(5.65725 0.148141 -7.21024e-08)
(5.63321 0.219435 5.16375e-07)
(5.58933 0.243654 7.96984e-07)
(5.58819 0.0757478 -8.17238e-13)
(5.46203 0.493621 -2.5076e-06)
(5.50666 0.116397 5.78652e-13)
(5.4995 0.0766945 2.26051e-15)
(5.33556 0.223284 2.79525e-06)
(5.29514 0.355533 -1.38758e-06)
(5.30132 0.158694 -5.3763e-06)
(5.29791 0.132319 2.6772e-07)
(5.21198 0.0523666 1.57855e-06)
(9.13261 -1.58331e-33 1.38173e-35)
(10.5614 -1.46221e-33 1.27605e-35)
(10.8081 -1.4413e-33 1.2578e-35)
(9.75384 -1.53066e-33 1.33578e-35)
(9.00179 -1.59439e-33 1.39141e-35)
(9.88204 -1.51979e-33 1.3263e-35)
(9.04363 -1.59085e-33 1.38831e-35)
(11.743 -1.36207e-33 1.18866e-35)
(10.8624 -1.43671e-33 1.25379e-35)
(9.31588 -1.56777e-33 1.36818e-35)
(11.1793 -1.40985e-33 1.23035e-35)
(9.79633 -1.52705e-33 1.33264e-35)
(9.41684 -1.55922e-33 1.36071e-35)
(10.7732 -1.44426e-33 1.26039e-35)
(10.2261 -1.49063e-33 1.30086e-35)
(11.2593 -1.40307e-33 1.22444e-35)
(11.752 -1.36131e-33 1.18799e-35)
(8.69835 -1.62011e-33 1.41385e-35)
(8.78655 -1.61264e-33 1.40733e-35)
(10.677 -1.45242e-33 1.26751e-35)
(9.42219 -1.55876e-33 1.36031e-35)
(9.06243 -1.58925e-33 1.38692e-35)
(11.681 -1.36732e-33 1.19325e-35)
(10.1739 -1.49505e-33 1.30471e-35)
(9.00645 -1.594e-33 1.39106e-35)
(10.16 -1.49623e-33 1.30574e-35)
(8.6597 -1.62339e-33 1.41671e-35)
(9.28566 -1.57033e-33 1.37041e-35)
(11.1601 -1.41147e-33 1.23177e-35)
(11.2683 -1.4023e-33 1.22377e-35)
(11.4031 -1.39087e-33 1.2138e-35)
(10.9945 -1.42551e-33 1.24402e-35)
(8.69731 -1.6202e-33 1.41393e-35)
(11.4738 -1.38488e-33 1.20857e-35)
(9.45878 -1.55566e-33 1.35761e-35)
(11.6413 -1.37069e-33 1.19618e-35)
(10.9962 -1.42536e-33 1.24389e-35)
(8.64591 -1.62456e-33 1.41773e-35)
(8.57536 -1.63053e-33 1.42295e-35)
(10.2166 -1.49143e-33 1.30155e-35)
(11.4814 -1.38424e-33 1.20801e-35)
(8.36049 -1.64875e-33 1.43884e-35)
(10.9667 -1.42787e-33 1.24608e-35)
(11.044 -1.42131e-33 1.24036e-35)
(9.52438 -1.5501e-33 1.35275e-35)
(10.6075 -1.45831e-33 1.27265e-35)
(10.1758 -1.4949e-33 1.30458e-35)
(8.69611 -1.6203e-33 1.41402e-35)
(10.3858 -1.4771e-33 1.28904e-35)
(11.0826 -1.41804e-33 1.2375e-35)
(11.3596 -1.39456e-33 1.21702e-35)
(11.2167 -1.40667e-33 1.22758e-35)
(9.16219 -1.5808e-33 1.37954e-35)
(11.757 -1.36089e-33 1.18763e-35)
(11.1479 -1.41251e-33 1.23268e-35)
(9.29581 -1.56947e-33 1.36966e-35)
(11.1611 -1.41138e-33 1.2317e-35)
(8.38319 -1.64682e-33 1.43716e-35)
(9.13951 -1.58272e-33 1.38122e-35)
(9.9839 -1.51116e-33 1.31877e-35)
(9.96524 -1.51274e-33 1.32015e-35)
(10.3364 -1.48129e-33 1.2927e-35)
(11.4366 -1.38804e-33 1.21132e-35)
(11.3657 -1.39405e-33 1.21657e-35)
(11.2225 -1.40618e-33 1.22716e-35)
(9.97695 -1.51175e-33 1.31928e-35)
(9.99702 -1.51005e-33 1.3178e-35)
(9.89466 -1.51872e-33 1.32537e-35)
(10.782 -1.44352e-33 1.25974e-35)
(9.99754 -1.51e-33 1.31776e-35)
(11.2009 -1.40801e-33 1.22875e-35)
(10.847 -1.43801e-33 1.25493e-35)
(11.031 -1.42241e-33 1.24132e-35)
(10.561 -1.46225e-33 1.27608e-35)
(11.31 -1.39877e-33 1.22068e-35)
(11.0378 -1.42183e-33 1.24082e-35)
(9.71692 -1.53378e-33 1.33851e-35)
(9.80603 -1.52623e-33 1.33192e-35)
(10.6244 -1.45687e-33 1.27139e-35)
(8.89789 -1.6032e-33 1.39909e-35)
(11.3279 -1.39725e-33 1.21936e-35)
(9.83254 -1.52399e-33 1.32996e-35)
(11.6663 2.95725e-05 -2.80352e-08)
(10.0855 -1.50254e-33 1.31125e-35)
(9.65402 2.48215e-29 -2.16614e-31)
(10.9923 -1.4243e-33 1.24297e-35)
(11.6715 0.324137 2.69645e-07)
(11.6938 0.357908 6.75005e-07)
(11.7178 0.160725 -2.84042e-06)
(11.7427 0.191851 2.41869e-07)
(11.5763 0.261463 5.89057e-06)
(11.8277 0.0576605 -7.72202e-07)
(11.6751 0.13571 -2.54111e-06)
(11.524 0.247114 -9.63031e-06)
(11.5448 0.16709 2.17325e-07)
(11.4738 0.189525 -3.46836e-07)
(11.6812 0.0699557 -1.37203e-07)
(10.7389 0.437356 -2.99713e-06)
(10.9464 0.363699 -2.88567e-06)
(11.3946 0.142952 -2.07321e-07)
(11.1204 0.253315 -1.85136e-06)
(11.3716 0.00705789 1.1727e-06)
(10.8229 0.429741 -3.5713e-06)
(10.7861 0.370854 -3.31659e-08)
(10.442 0.464213 -1.21223e-07)
(11.0113 0.170421 -5.65102e-07)
(11.0552 0.13422 3.71371e-06)
(10.9656 0.156898 6.02956e-06)
(11.0018 0.155249 -3.69573e-07)
(11.048 0.0334233 -6.00643e-08)
(10.9522 0.0823826 1.96321e-06)
(10.0807 0.572586 6.30605e-07)
(10.4996 0.341568 -7.9415e-07)
(10.6022 0.257394 3.87164e-06)
(10.5737 0.314886 -1.87052e-05)
(10.8571 0.0239619 3.95925e-06)
(10.759 0.057154 -6.35864e-07)
(10.6741 0.0547606 -2.02975e-06)
(10.6881 0.0646401 1.19671e-06)
(10.1574 0.33961 -1.47868e-06)
(10.3325 0.193206 -2.11477e-07)
(10.4117 0.0155569 -1.13622e-06)
(10.3656 0.164822 -1.35914e-06)
(10.4019 0.121083 -1.43382e-06)
(10.3881 0.10301 -4.24596e-07)
(10.3618 0.108481 7.09931e-07)
(9.45485 -1.556e-33 1.3579e-35)
(10.2203 0.176415 -9.6373e-07)
(10.3211 0.00443317 -5.22116e-06)
(9.74662 0.497313 -1.28211e-05)
(10.0374 0.240044 -3.82925e-08)
(10.1576 0.0889003 -2.83924e-06)
(10.059 0.0725895 4.90222e-07)
(9.96849 0.093313 1.60475e-06)
(9.94416 0.0738075 4.18644e-07)
(9.55235 0.343094 1.1544e-05)
(9.7901 0.147812 8.06023e-07)
(9.84004 0.0857753 1.27616e-06)
(9.71486 0.114824 -3.68424e-06)
(9.48621 0.165774 2.96453e-07)
(9.44319 0.138063 -7.65577e-07)
(9.08062 0.460713 2.37209e-07)
(9.34567 0.0842811 4.03068e-08)
(9.2864 0.183653 -2.1169e-07)
(9.27338 0.185039 9.58808e-07)
(9.29246 0.138227 3.1704e-06)
(9.27044 0.0966905 1.39298e-06)
(9.03408 0.233216 -1.99751e-06)
(9.0854 0.168506 -8.12037e-08)
(9.01075 0.133312 -1.43586e-06)
(8.82978 0.266295 8.65482e-06)
(8.82963 0.251123 -4.50324e-08)
(8.80892 0.176782 2.58422e-06)
(8.78931 0.138079 -2.84539e-06)
(8.76469 0.170462 4.34612e-07)
(8.70411 0.115136 -1.72407e-06)
(8.68588 0.00706032 4.006e-07)
(8.66402 0.102594 4.35301e-07)
(8.62902 0.0754318 3.21312e-06)
(8.5296 0.407157 1.56177e-07)
(8.52131 0.0723487 -6.80753e-07)
(8.37338 0.606296 2.88951e-06)
(8.43341 0.170005 -1.50767e-06)
(8.36066 0.471832 -6.39559e-06)
(8.37764 0.20472 6.27077e-06)
(8.37281 0.204169 -3.02199e-06)
(8.37447 0.0568325 1.9861e-13)
(8.28745 0.112403 3.29607e-06)
(15.0794 -1.07931e-33 9.41896e-36)
(14.0606 -1.16564e-33 1.01724e-35)
(13.6449 -1.20088e-33 1.04799e-35)
(15.7865 -1.01937e-33 8.89592e-36)
(13.5764 -1.20668e-33 1.05306e-35)
(12.8859 -1.2652e-33 1.10413e-35)
(14.2027 -1.1536e-33 1.00673e-35)
(13.4882 -1.21416e-33 1.05958e-35)
(12.3389 -1.31157e-33 1.14459e-35)
(15.3805 -1.05378e-33 9.1962e-36)
(11.9722 -1.34264e-33 1.17171e-35)
(13.6842 -1.19755e-33 1.04508e-35)
(12.0906 -1.33261e-33 1.16295e-35)
(15.1903 -1.06991e-33 9.33693e-36)
(12.8674 -1.26677e-33 1.10549e-35)
(14.2468 -1.14987e-33 1.00347e-35)
(13.3152 -1.22882e-33 1.07238e-35)
(14.0462 -1.16686e-33 1.01831e-35)
(12.5601 -1.29282e-33 1.12823e-35)
(15.8827 -1.01122e-33 8.82478e-36)
(15.1136 -1.0764e-33 9.39363e-36)
(15.0418 -1.08249e-33 9.44676e-36)
(15.1237 -1.07555e-33 9.38614e-36)
(15.8662 -1.01262e-33 8.83699e-36)
(12.446 -1.30249e-33 1.13667e-35)
(14.6083 -1.11923e-33 9.76734e-36)
(12.5887 -1.2904e-33 1.12611e-35)
(16.1362 -9.89738e-34 8.63731e-36)
(16.1405 -9.89373e-34 8.63413e-36)
(12.1488 -1.32767e-33 1.15864e-35)
(14.533 -1.12561e-33 9.82303e-36)
(13.743 -1.19257e-33 1.04074e-35)
(15.5394 -1.04031e-33 9.07866e-36)
(11.8942 -1.34926e-33 1.17748e-35)
(13.9402 -1.17585e-33 1.02615e-35)
(12.9301 -1.26146e-33 1.10086e-35)
(12.8491 -1.26833e-33 1.10685e-35)
(13.5614 -1.20796e-33 1.05417e-35)
(12.2275 -1.32101e-33 1.15283e-35)
(13.1506 -1.24277e-33 1.08455e-35)
(14.3936 -1.13742e-33 9.92614e-36)
(15.6004 -1.03515e-33 9.03359e-36)
(13.7119 -1.1952e-33 1.04303e-35)
(15.4046 -1.05174e-33 9.17843e-36)
(12.5045 -1.29753e-33 1.13234e-35)
(15.926 -1.00755e-33 8.79275e-36)
(15.8546 -1.0136e-33 8.84556e-36)
(14.2654 -1.14829e-33 1.0021e-35)
(15.2884 -1.06159e-33 9.26432e-36)
(15.5361 -1.04059e-33 9.08113e-36)
(13.2076 -1.23794e-33 1.08033e-35)
(15.9209 -1.00798e-33 8.79654e-36)
(14.2836 -1.14675e-33 1.00075e-35)
(16.0431 -9.97629e-34 8.70618e-36)
(16.1387 -9.89525e-34 8.63546e-36)
(15.4829 -1.04511e-33 9.1205e-36)
(14.7034 -1.11117e-33 9.69704e-36)
(12.076 -1.33384e-33 1.16403e-35)
(14.991 -1.0868e-33 9.48434e-36)
(15.5348 -1.04071e-33 9.08214e-36)
(15.6202 -1.03347e-33 9.01894e-36)
(12.6038 -1.28911e-33 1.12499e-35)
(15.7108 -1.02579e-33 8.95191e-36)
(13.4822 -1.21467e-33 1.06003e-35)
(15.1893 -1.06999e-33 9.33764e-36)
(13.0261 -1.25333e-33 1.09376e-35)
(12.4872 -1.299e-33 1.13362e-35)
(12.8411 -1.269e-33 1.10744e-35)
(13.4497 -1.21742e-33 1.06243e-35)
(13.3146 -1.22887e-33 1.07242e-35)
(15.0872 -1.07864e-33 9.41317e-36)
(15.3876 -1.05318e-33 9.19097e-36)
(15.3232 -1.05864e-33 9.23863e-36)
(13.3985 -1.22176e-33 1.06621e-35)
(13.1376 -1.24388e-33 1.08552e-35)
(12.0294 -1.3378e-33 1.16748e-35)
(11.8653 -1.3517e-33 1.17961e-35)
(14.2191 -1.15221e-33 1.00552e-35)
(12.0383 -1.33705e-33 1.16682e-35)
(14.5814 -1.12151e-33 9.78726e-36)
(12.3814 -1.30797e-33 1.14145e-35)
(15.5895 -1.03607e-33 9.04162e-36)
(13.53 -1.21062e-33 1.05649e-35)
(14.4571 -1.13204e-33 9.87921e-36)
(13.6836 -1.1976e-33 1.04513e-35)
(11.8822 -1.35027e-33 1.17837e-35)
(15.8331 -1.01542e-33 8.86144e-36)
(13.0851 -1.24832e-33 1.0894e-35)
(12.6194 -1.2878e-33 1.12384e-35)
(14.764 -1.10603e-33 9.65221e-36)
(15.8376 -1.01505e-33 8.85817e-36)
(12.7016 -1.28082e-33 1.11776e-35)
(14.757 -1.10662e-33 9.65737e-36)
(15.3238 -1.05859e-33 9.23817e-36)
(14.6626 -1.11462e-33 9.72717e-36)
(11.9153 -1.34747e-33 1.17592e-35)
(15.1127 -1.07648e-33 9.39429e-36)
(12.4635 -1.301e-33 1.13537e-35)
(13.4305 -1.21905e-33 1.06385e-35)
(16.0684 -9.95483e-34 8.68745e-36)
(12.5939 -1.28995e-33 1.12572e-35)
(13.0714 -1.24949e-33 1.09041e-35)
(14.226 -1.15163e-33 1.00501e-35)
(14.6874 -1.11253e-33 9.70889e-36)
(12.1097 -1.33099e-33 1.16153e-35)
(12.4135 -1.30524e-33 1.13907e-35)
(13.4251 -1.2195e-33 1.06425e-35)
(15.329 -1.05815e-33 9.2343e-36)
(14.3756 -1.13895e-33 9.93946e-36)
(14.868 -1.09722e-33 9.57525e-36)
(15.4893 -1.04456e-33 9.11578e-36)
(12.0347 -1.33734e-33 1.16708e-35)
(13.1356 -1.24404e-33 1.08566e-35)
(14.3861 -1.13806e-33 9.93173e-36)
(11.9184 -1.3472e-33 1.17569e-35)
(15.9107 -1.00885e-33 8.80408e-36)
(15.5538 -1.03909e-33 9.06803e-36)
(13.459 -1.21663e-33 1.06174e-35)
(16.0629 -9.95949e-34 8.69152e-36)
(13.6736 -1.19845e-33 1.04587e-35)
(11.975 -1.34241e-33 1.1715e-35)
(14.045 -1.16697e-33 1.0184e-35)
(12.9662 -1.2584e-33 1.09819e-35)
(14.4098 -1.13605e-33 9.91414e-36)
(14.9378 -1.0913e-33 9.52365e-36)
(14.8613 -1.09778e-33 9.58021e-36)
(13.4697 -1.21573e-33 1.06095e-35)
(14.4111 -1.13594e-33 9.91322e-36)
(14.0695 -1.1649e-33 1.01659e-35)
(16.1331 -9.89998e-34 8.63959e-36)
(15.1862 -1.07025e-33 9.3399e-36)
(15.7964 -1.01854e-33 8.88863e-36)
(11.8737 -1.351e-33 1.179e-35)
(12.9698 -1.25809e-33 1.09792e-35)
(16.0847 -9.941e-34 8.67538e-36)
(14.1983 -1.15398e-33 1.00706e-35)
(12.6182 -1.28789e-33 1.12393e-35)
(12.693 -1.28156e-33 1.1184e-35)
(13.2141 -1.23739e-33 1.07986e-35)
(12.9902 -1.25637e-33 1.09642e-35)
(13.4164 -1.22025e-33 1.06489e-35)
(13.752 -1.1918e-33 1.04007e-35)
(12.4764 -1.29991e-33 1.13442e-35)
(15.8595 -1.01319e-33 8.84194e-36)
(13.5436 -1.20946e-33 1.05548e-35)
(15.3654 -1.05506e-33 9.20739e-36)
(15.8636 -1.01284e-33 8.83894e-36)
(15.6504 -1.03091e-33 8.99662e-36)
(14.6857 -1.11267e-33 9.71009e-36)
(15.1698 -1.07164e-33 9.35207e-36)
(12.7882 -1.27349e-33 1.11136e-35)
(14.7487 -1.10733e-33 9.66355e-36)
(15.9653 0.448296 3.50142e-06)
(15.3827 1.12436 2.85648e-06)
(15.6891 0.591997 4.56752e-07)
(15.5158 0.509339 2.56102e-06)
(15.953 0.193274 -3.59001e-06)
(15.7302 0.231162 -1.04301e-06)
(16.1073 0.0934423 -1.28689e-06)
(16.0098 0.1129 4.74499e-07)
(15.746 0.275186 -4.8819e-06)
(14.2625 -1.14853e-33 1.00231e-35)
(15.7138 0.0799463 9.05636e-06)
(16.0126 0.0473892 -3.09808e-06)
(15.8356 0.032197 -3.97817e-07)
(14.7261 -6.95755e-34 6.07176e-36)
(15.4003 0.167124 -5.03382e-06)
(15.1429 0.279677 1.75742e-06)
(15.5882 0.132126 -9.37434e-07)
(15.7016 0.00159052 4.08955e-07)
(15.5049 0.108226 -5.19664e-06)
(15.2803 0.17026 3.23078e-07)
(15.1044 0.215482 1.82369e-06)
(14.886 0.252998 -3.87285e-06)
(14.9284 0.294663 -3.1943e-06)
(14.5147 0.352203 4.877e-06)
(15.1611 0.12053 -4.08657e-07)
(14.582 0.316019 -1.93582e-06)
(15.1037 0.147462 2.88963e-06)
(14.3758 0.390208 8.79204e-07)
(14.5195 0.299219 1.1867e-06)
(14.7546 0.1777 3.20766e-07)
(15.0112 0.0408401 1.41809e-08)
(14.4611 0.285577 1.09015e-05)
(14.9553 0.000806814 -4.29407e-08)
(14.8959 0.00315127 -5.67278e-07)
(14.3958 -1.13724e-33 9.92456e-36)
(14.7569 0.0595628 -2.40486e-07)
(14.7734 0.00548025 -1.29128e-06)
(14.6257 0.0982524 -1.6406e-06)
(14.5556 0.152548 7.10801e-06)
(14.3458 0.252325 1.97701e-06)
(13.9065 0.420768 -1.12543e-05)
(14.1589 0.208357 -5.59126e-06)
(14.202 0.257172 -3.42901e-07)
(14.308 0.264058 -1.20767e-05)
(14.347 0.166788 -6.40836e-07)
(14.4504 0.120396 1.0279e-07)
(14.3108 0.124766 -5.77294e-07)
(14.4228 0.0112843 -4.33554e-06)
(14.1814 0.178879 -3.72761e-06)
(14.3684 0.0367507 4.7453e-07)
(14.2093 0.159712 3.11749e-06)
(14.0511 0.218564 -2.03722e-06)
(14.2104 0.107658 5.95266e-06)
(13.7986 0.332599 -5.91723e-06)
(14.1666 0.0893221 -5.72852e-07)
(14.0569 0.0372824 2.17593e-06)
(13.7312 0.302961 3.83017e-06)
(13.9683 0.111239 -5.43487e-07)
(13.5259 0.376484 4.58816e-06)
(14.0302 0.0015979 3.03174e-08)
(13.8277 0.143239 -3.17228e-06)
(13.8388 0.0136213 -6.21868e-07)
(13.7574 0.110379 -2.01936e-07)
(13.6873 0.00140682 -1.11672e-06)
(13.4159 0.199853 -9.77368e-07)
(13.5433 0.10314 6.82002e-07)
(13.0974 0.437028 -5.29926e-07)
(13.1684 0.376434 -2.30652e-06)
(13.2193 0.259058 -1.00893e-06)
(13.3146 0.162753 -1.22253e-06)
(13.2717 0.135159 -6.70052e-07)
(13.3558 0.0268214 3.71174e-07)
(13.17 0.227674 -4.865e-06)
(13.2261 0.00305348 -3.02888e-08)
(12.8153 0.289622 6.95562e-07)
(12.9207 0.0498761 6.09442e-07)
(12.8701 0.137714 -1.0341e-06)
(12.5899 0.704837 8.75995e-06)
(12.7411 0.217571 -6.25641e-06)
(12.8685 0.0302614 5.85716e-07)
(12.8406 0.0164982 1.69077e-07)
(12.643 0.325566 5.87679e-07)
(12.8122 0.0867089 -1.74571e-07)
(12.6893 0.0543272 -8.68378e-07)
(12.6374 0.11462 3.1074e-06)
(12.6446 0.00431398 2.80996e-08)
(12.5334 0.000570506 -3.75576e-08)
(12.447 0.229452 -9.73069e-08)
(12.5025 0.110187 1.8021e-06)
(12.4826 0.11354 3.68942e-07)
(12.2598 0.356427 -4.24595e-07)
(12.2945 0.00183874 2.1619e-07)
(12.2044 0.000155136 6.41249e-07)
(12.2022 0.125736 7.43933e-07)
(12.0699 0.446014 -4.61636e-06)
(12.0053 0.431803 9.46049e-07)
(11.9114 0.00818071 -7.20806e-07)
(11.8923 0.273666 4.81198e-06)
(11.8876 0.119942 5.56006e-06)
(11.8508 0.105758 2.14201e-06)
(11.8431 0.182393 4.77124e-07)
(11.8408 0.22942 -4.09792e-06)
(11.8367 0.257305 5.23505e-06)
(17.9213 -8.38448e-34 7.31703e-36)
(16.8235 -9.31483e-34 8.12893e-36)
(19.3719 -7.15505e-34 6.24412e-36)
(19.724 -6.85661e-34 5.98368e-36)
(18.2653 -8.09287e-34 7.06254e-36)
(20.7166 -6.01538e-34 5.24954e-36)
(18.3757 -7.99935e-34 6.98093e-36)
(20.6284 -6.09008e-34 5.31473e-36)
(18.9749 -7.49153e-34 6.53776e-36)
(18.5829 -7.82376e-34 6.82769e-36)
(16.7338 -9.39092e-34 8.19533e-36)
(21.3769 -5.4557e-34 4.76112e-36)
(18.5427 -7.85782e-34 6.85742e-36)
(21.754 -5.1361e-34 4.48221e-36)
(21.592 -5.2734e-34 4.60203e-36)
(16.8394 -9.3014e-34 8.11721e-36)
(17.7151 -8.55922e-34 7.46952e-36)
(20.2102 -6.44457e-34 5.62409e-36)
(18.8185 -7.62406e-34 6.65341e-36)
(16.3095 -9.75048e-34 8.50911e-36)
(19.4331 -7.10319e-34 6.19886e-36)
(20.0844 -6.55115e-34 5.7171e-36)
(19.9244 -6.68674e-34 5.83543e-36)
(19.9506 -6.6646e-34 5.81611e-36)
(21.0923 -5.69693e-34 4.97164e-36)
(18.5235 -7.87406e-34 6.87159e-36)
(20.3616 -6.31623e-34 5.51209e-36)
(16.2845 -9.7717e-34 8.52764e-36)
(19.6484 -6.9207e-34 6.0396e-36)
(17.8348 -8.45772e-34 7.38094e-36)
(22.0355 -4.89756e-34 4.27404e-36)
(17.4288 -8.80182e-34 7.68123e-36)
(18.8145 -7.62742e-34 6.65635e-36)
(18.2569 -8.10004e-34 7.0688e-36)
(21.608 -5.25987e-34 4.59022e-36)
(21.2743 -5.54268e-34 4.83703e-36)
(20.3764 -6.30373e-34 5.50118e-36)
(17.0694 -9.10647e-34 7.94709e-36)
(19.4491 -7.08959e-34 6.18699e-36)
(17.0336 -9.13678e-34 7.97355e-36)
(20.5003 -6.19871e-34 5.40953e-36)
(18.5522 -7.84974e-34 6.85037e-36)
(21.4128 -5.42528e-34 4.73457e-36)
(20.4613 -6.23176e-34 5.43837e-36)
(16.7699 -9.36031e-34 8.16862e-36)
(17.4858 -8.75351e-34 7.63907e-36)
(19.3149 -7.20333e-34 6.28625e-36)
(20.9232 -5.84023e-34 5.09669e-36)
(17.0871 -9.09148e-34 7.93402e-36)
(17.8848 -8.41536e-34 7.34397e-36)
(21.2978 -5.52279e-34 4.81967e-36)
(19.405 -7.12701e-34 6.21965e-36)
(18.7076 -7.71802e-34 6.73541e-36)
(18.585 -7.82194e-34 6.8261e-36)
(17.7777 -8.50619e-34 7.42324e-36)
(17.338 -8.87879e-34 7.7484e-36)
(21.752 -5.13783e-34 4.48372e-36)
(21.951 -4.96915e-34 4.33651e-36)
(19.2184 -7.28509e-34 6.3576e-36)
(16.1894 -9.85223e-34 8.59791e-36)
(21.405 -5.43196e-34 4.7404e-36)
(21.8771 -5.03178e-34 4.39117e-36)
(20.3339 -6.33967e-34 5.53255e-36)
(19.1915 -7.30792e-34 6.37753e-36)
(21.417 -5.42179e-34 4.73153e-36)
(19.1602 -7.33442e-34 6.40065e-36)
(17.0644 -9.11072e-34 7.9508e-36)
(20.629 -6.08961e-34 5.31433e-36)
(18.5723 -7.83271e-34 6.8355e-36)
(21.2999 -5.52101e-34 4.81811e-36)
(17.4389 -8.79326e-34 7.67376e-36)
(18.8761 -7.57523e-34 6.6108e-36)
(18.9268 -7.53224e-34 6.57328e-36)
(17.1898 -9.00443e-34 7.85805e-36)
(22.203 -4.75563e-34 4.15018e-36)
(21.972 -4.95142e-34 4.32104e-36)
(21.3706 -5.46111e-34 4.76584e-36)
(20.2035 -6.45023e-34 5.62903e-36)
(21.7826 -5.11188e-34 4.46107e-36)
(17.1033 -9.07771e-34 7.922e-36)
(17.1283 -9.05652e-34 7.90351e-36)
(18.3925 -7.98512e-34 6.9685e-36)
(18.6213 -7.79121e-34 6.79929e-36)
(21.6843 -5.19521e-34 4.53379e-36)
(18.3768 -7.99839e-34 6.98009e-36)
(20.7544 -5.98329e-34 5.22154e-36)
(19.9348 -6.67799e-34 5.82779e-36)
(20.1493 -6.49619e-34 5.66914e-36)