/*--------------------------------*- C++ -*----------------------------------*\
  =========                 |
  \\      /  F ield         | OpenFOAM: The Open Source CFD Toolbox
   \\    /   O peration     | Website:  https://openfoam.org
    \\  /    A nd           | Version:  7
     \\/     M anipulation  |
\*---------------------------------------------------------------------------*/
FoamFile
{
    version     2.0;
    format      ascii;
    class       labelField;
    location    "0.7/lagrangian/reactingCloud1";
    object      origId;
}
// * * * * * * * * * * * * * * * * * * * * * * * * * * * * * * * * * * * * * //


2545
(
3932
3933
3934
3935
3936
3937
3938
3939
3940
3941
3942
3943
3944
3945
3946
3947
3948
3949
3950
3951
3952
3953
3954
3955
3956
3957
3958
3959
3960
3961
3962
3963
3964
3965
3966
3967
3968
3969
3970
3971
3972
3973
3974
3975
3976
3977
3978
3979
3324
3364
3848
3864
3865
3866
3867
3868
3870
3869
3871
3872
3873
3874
3876
3877
3878
3879
3880
3875
3881
3882
3883
3884
3885
3886
3887
3889
3888
3890
3891
3892
3893
3894
3895
3896
3897
3898
3899
3900
3901
3902
3903
3904
3905
3906
3907
3908
3909
3910
3911
3912
3913
3914
3915
3916
3917
3918
3919
3920
3921
3922
3923
3924
3925
3926
3927
3928
3929
3930
3931
3852
3839
3844
3855
3856
3857
3858
3861
3860
3854
3862
3859
3863
3841
3840
3834
3838
3843
3842
3845
3846
3850
3815
3851
3849
3853
3847
3808
3818
3797
3819
3817
3798
3820
3814
3821
3825
3827
3822
3828
3823
3824
3826
3831
3833
3830
3832
3835
3829
3837
3836
867
1106
1910
2825
3773
3786
3759
3789
3791
3790
3795
3794
3778
3777
3781
3792
3779
3793
3799
3801
3800
3805
3803
3804
3802
3806
3809
3810
3811
3813
3812
3807
3796
3816
484
504
943
1206
910
1722
1845
1909
2205
2285
3015
3242
3624
3693
3721
3732
3744
3747
3743
3746
3751
3748
3753
3754
3750
3757
3752
3740
3755
3756
3758
3762
3709
3763
3765
3760
3767
3764
3766
3770
3761
3769
3735
3768
3772
3771
3776
3775
3783
3782
3774
3749
3784
3785
3780
3787
3788
20
40
60
132
149
204
303
462
519
788
814
830
854
886
970
988
1034
942
1169
1179
1329
1596
1619
1729
1785
1923
2105
2247
1982
2307
2321
2361
2463
2742
2744
2550
3033
3171
3339
3424
3654
3636
3642
3645
3668
3639
3673
3679
3666
3669
3653
3680
3685
3681
3683
3671
3677
3674
3678
3688
3691
3687
3692
3690
3698
3689
3682
3675
3695
3702
3694
3701
3696
3684
3703
3697
3705
3704
3700
3699
3710
3711
3707
3714
3708
3686
3617
3713
3706
3719
3715
3722
3717
3720
3729
3725
3718
3724
3712
3726
3734
3728
3727
3737
3733
3730
3723
3736
3676
3738
3739
3731
3716
3741
3742
3745
13
21
48
129
186
136
233
298
315
348
354
409
580
618
644
680
691
787
789
856
831
905
1009
1020
1061
1172
1200
1202
1275
1293
1257
1352
1527
1531
1532
1630
1616
1670
1698
1718
1728
1908
1931
1949
2133
2204
2298
2340
2432
2559
2570
2583
2632
2671
2679
2669
2708
2767
2766
2711
2842
2957
2958
3037
3047
3043
3069
3057
3092
3098
2905
3112
3147
3149
3243
3315
3310
3342
3387
3395
3397
3430
3456
3465
2604
3552
3544
3570
3576
3591
3583
3597
3595
3590
3585
3584
3600
3520
3560
3604
3598
3608
3569
3579
3564
3601
3602
3606
3611
3615
3616
3586
3603
3607
3605
3619
3620
3613
3623
3609
3622
3612
3625
3628
3627
3629
3610
3626
3618
3594
3593
3633
3634
3637
3638
3630
3621
3640
3641
3643
3648
3588
3651
3646
3644
3650
3647
3631
3652
3657
3599
3649
3656
3662
3660
3661
3663
3665
3659
3635
3655
3614
3667
3632
3664
3658
3672
3670
5
16
14
50
95
101
131
116
118
128
168
247
284
307
340
356
385
394
330
448
467
426
431
518
525
554
557
571
633
682
686
685
674
724
734
728
762
775
806
811
845
793
851
875
857
917
918
898
977
1001
1029
1126
710
1214
1314
1365
1369
1387
1408
1428
1507
1492
1479
1528
1546
1556
1566
1581
1584
1600
1628
1636
1672
1662
1696
1716
1779
1787
1781
1773
1791
1836
1914
1940
1959
1946
1962
2012
2040
2038
2065
2090
2074
2145
2147
2139
2156
2161
2094
2211
2240
2261
2269
2278
2291
2332
2382
2394
2403
2442
2438
2451
2481
2479
2484
2543
2556
2560
2532
2608
2660
2656
2677
2670
2690
2703
2727
2714
2739
2778
2811
2843
2913
2921
2965
3002
3003
2996
3064
3087
3094
3089
3066
3158
3188
3177
3207
3238
3288
3302
3305
3323
3418
3294
3414
3381
3471
3470
3495
3494
3497
3476
3492
3501
3505
3499
3500
3483
3506
3510
3508
3491
3503
3466
3427
3450
3514
3487
3516
3480
3502
3468
3525
3469
3512
3515
3523
3531
3526
3517
3522
3484
3493
3507
3509
3524
3518
3534
3536
3537
3535
3541
3538
3533
3542
3504
3530
3532
3540
3547
3496
3527
3548
3543
3551
3555
3546
3554
3519
3513
3550
3561
3529
3563
3521
3511
3549
3565
3562
3459
3566
3573
3558
3559
3574
3578
3572
3557
3582
3568
3556
3581
3539
3567
3553
3587
3545
3528
3589
3571
3577
3596
3592
3575
3580
9
15
4
2
18
44
31
41
69
64
53
89
81
67
97
107
114
55
125
86
122
130
126
151
144
166
173
187
170
217
219
239
229
213
253
262
260
281
290
287
270
295
296
331
332
384
381
397
412
405
434
458
438
477
483
496
509
527
529
523
532
578
607
617
615
596
576
620
646
662
684
687
681
722
652
749
766
783
797
801
833
836
859
876
885
879
907
926
933
956
1000
938
1017
1024
1042
1054
1062
1067
1085
1077
1125
1129
1144
1151
1093
1165
1204
1241
1246
1243
1255
1294
1311
1306
1316
1332
1379
1378
1394
1348
1412
1419
1426
1404
1445
1453
1464
1494
1513
1524
1462
1534
1526
1562
1567
1572
1591
1597
1625
1627
1613
1646
1631
1659
1680
1673
1689
1668
1685
1699
1724
1714
1742
1744
1782
1472
1795
1476
1800
1817
1810
1745
1842
1839
1863
1867
1857
1797
1907
1944
1851
1939
1961
1972
1950
1986
1993
2046
2027
2096
2106
2116
2103
2123
2126
2152
2100
2213
2210
2216
2190
2206
2055
2230
2257
2274
2262
2275
2297
2328
2232
2348
2360
2380
2409
2392
2381
2426
2452
2447
2454
2427
2455
2538
2562
2577
2578
2633
2643
2597
2638
2667
2646
2654
2691
2676
2619
2724
2722
2733
2737
2798
2807
2802
2793
2816
2831
2835
2838
2765
2863
2879
2847
2899
2903
2880
2915
2909
2919
2918
2938
2931
2926
2948
2954
2925
2977
2978
2955
3007
3008
3038
3036
3065
3074
3103
3097
3114
3101
3143
3180
3184
3200
3201
3222
3241
3266
3265
3273
3170
3296
3272
3308
3319
3322
3325
3271
3278
3290
3277
3246
3251
3332
3306
3301
3330
3311
2860
3338
3269
3297
3345
3309
2544
3295
3352
3335
3341
3344
3340
3349
3362
3366
3283
3365
3361
3347
3370
3373
3356
3372
3312
3336
3371
3331
3337
3378
3383
3376
3380
3357
3351
3384
3379
3360
3354
3348
3287
3359
3355
3385
3346
3375
3363
3390
3389
3398
3386
3399
3391
3404
3407
3374
3406
3401
3408
3394
3410
3358
3382
3409
3411
3396
3400
3388
3253
3417
3413
3369
3368
3334
3415
3425
3405
3393
3426
3431
3343
3434
3327
3403
3377
3433
3420
3422
3441
3350
3442
3436
3402
3451
3392
3452
3455
3454
3445
3458
3423
3435
3461
3447
3448
3353
3110
3446
3457
1362
3437
3453
3440
3443
3444
3429
3438
3460
3463
3472
3474
3467
3481
3479
3416
3464
3449
3477
3478
3428
3419
3475
3421
3486
3482
3473
3485
3367
3462
3432
3489
3439
3412
3490
3488
3498
17
23
30
22
38
43
33
47
49
28
93
7
85
94
108
135
145
190
250
238
216
237
267
285
322
133
304
208
300
378
396
380
408
389
185
452
454
471
465
500
520
415
516
542
536
473
587
570
609
577
550
588
642
650
656
666
703
715
711
730
735
743
774
772
747
752
795
848
843
815
849
887
922
959
1008
1053
1092
1104
1064
1130
1124
1145
1167
1189
1186
1148
1224
1233
1230
1234
1287
1283
1298
1302
1217
1300
1299
1313
1309
1297
1325
1381
1267
1392
1423
1416
1431
1440
1402
1435
1473
1483
1510
1545
1553
1564
1543
1615
1569
1648
1671
1660
1684
1655
1612
1702
1614
1749
1339
1805
1835
1823
1868
1847
1874
1885
1813
1933
1889
1920
2004
2033
2082
2034
2064
2112
2063
2134
2081
2146
2127
2167
2188
2182
2236
2228
2199
2287
2284
2254
2293
2315
2318
2288
2330
2302
2362
2259
2405
2393
2343
2398
2423
2456
2471
2459
2476
2492
2514
2516
2513
2547
2520
2535
2595
2563
2598
2601
2511
2618
2617
2546
2645
2615
2628
2661
2673
2705
2699
2683
2685
2721
2717
2732
2734
2791
2787
2808
2839
2779
2885
2882
2888
2878
2896
2911
2920
2945
2979
2984
2968
3009
3046
3032
3119
3061
2990
3163
3167
3123
3152
3124
2986
3137
3109
3165
3154
2987
3113
3102
3156
3176
3059
3086
3138
3135
3068
3160
3189
3144
3179
3169
3175
3168
3183
3172
3127
3132
3196
3016
3195
3088
3140
3155
3185
3198
3166
3107
3182
3118
3192
3191
3173
3096
3130
3220
3214
3104
3039
3162
3216
3206
3139
3210
3187
3186
3142
3197
3205
3228
3225
3227
3231
3204
3209
3229
3218
3217
3212
3199
3234
3083
3230
3215
3141
3161
3255
3150
3245
3240
3258
3174
3252
3263
3254
3257
3250
3247
3264
3208
3237
3226
3274
3267
3221
3268
3193
3280
3178
3190
3260
3262
3282
3239
3224
3279
3293
3261
3281
3291
3286
3203
3289
3202
3235
3292
3299
3148
3259
2751
3300
3236
3298
3194
3270
3248
3151
3285
3316
3153
3303
3276
3284
3233
3307
3219
3313
3326
3329
3063
3256
3211
3164
3333
3232
3318
3304
3328
3223
3321
3317
3314
3275
3244
3320
3213
3249
10
58
65
61
120
123
152
184
84
197
202
224
225
227
268
324
223
309
312
357
406
515
579
566
573
634
610
584
591
514
631
667
659
663
624
714
702
713
751
769
748
799
780
727
896
877
899
778
925
932
975
994
1027
1040
1043
1049
1072
1094
1098
1120
1006
1108
1187
1149
1193
1285
1292
1289
1164
1380
1349
1327
1373
1324
1377
1450
1461
1444
1500
1512
1517
1455
1493
1548
1522
1551
1611
1595
1617
1694
1708
1733
1734
1771
1814
1695
1757
1834
1826
1768
1855
1926
1899
1911
1983
2000
2013
1997
2045
2056
2047
2052
2078
2129
2061
2157
2168
2231
2208
2260
1951
2312
2319
2222
2375
2408
2420
2450
2458
2373
2480
2485
2536
2495
2548
2499
2574
2589
2606
2651
2652
2664
2644
2750
2715
2763
2780
2795
2818
2837
2792
2639
2891
2612
2753
2856
2884
2799
2876
2812
2890
2857
2657
2834
2852
2858
2924
2937
2832
2702
2861
2564
2936
2823
2927
2833
2901
2865
2946
2943
2910
2874
2674
2953
2952
2963
2886
2867
2740
2769
2942
2973
2785
2849
2956
2970
2976
2933
2122
2962
2914
2983
2960
3000
2988
2887
2998
2871
2980
2997
2972
2772
2869
2935
2907
2940
2993
2985
3010
2971
3020
2941
3001
3017
2894
2959
3028
3021
2991
2773
2999
3026
2844
2969
2994
2974
2995
3019
2992
3014
2981
3048
3029
3025
2975
2964
3052
2877
3011
3045
3041
2851
2873
3054
3035
3062
3024
2967
3013
2950
3030
3050
3040
3056
2989
2982
3053
3070
2961
3075
3079
3060
2966
3067
3031
3018
2904
3058
2898
3044
3076
3023
3051
2949
3004
3078
3022
3091
3085
3049
3090
3105
3071
3095
2923
3006
2932
3080
3111
3027
3108
3012
3082
3072
3116
3131
2908
3034
3136
3133
3093
2939
2850
3005
3077
2947
3115
3126
3120
3081
3125
3100
3146
3128
3134
3106
3122
3099
3117
3159
3121
3145
3073
3157
3129
3055
3084
3181
3042
25
26
27
19
39
137
76
102
92
155
183
310
200
195
289
235
241
299
161
318
345
342
399
401
368
442
443
453
428
541
534
598
627
649
688
616
676
528
657
301
683
632
606
826
813
850
784
842
840
756
835
819
860
955
924
946
961
954
1004
966
985
1048
935
1056
951
1057
969
904
1097
1109
950
1135
1139
1181
1116
1210
1219
1245
1178
1228
1334
1248
1345
1342
1335
1270
1337
1388
1424
1338
1414
1415
1429
1385
1343
1406
1515
1529
1511
1557
1422
1477
1525
1574
1516
1599
1576
1601
1558
1623
1622
1649
1711
1703
1712
1762
1717
1747
1799
1809
1652
1651
1850
1871
1884
1831
1964
1955
1953
1990
1977
1988
2031
2028
2066
2067
2121
2119
2149
2170
2171
2203
2108
2197
2179
1896
2217
2115
2187
2158
2098
2243
2069
2246
2276
2235
2130
1958
2166
2191
2292
2248
2241
2326
2091
2281
2223
2163
2337
2346
2060
1985
2320
2355
2071
2331
2109
2327
2279
2102
2165
2388
2253
2391
2313
2290
2329
2200
2245
2371
2365
2400
2367
2229
2376
2396
2402
2385
2386
1766
2238
2226
2395
2124
2414
2411
2363
2428
2267
2350
2354
2407
2358
2416
2364
2418
2342
2404
2270
2083
2422
2424
2007
2419
2306
2347
2265
2443
2435
2032
2224
2383
2172
2148
2378
2444
2448
2377
2258
2300
2441
2352
2470
2453
2436
2372
2201
2387
2462
2413
2468
2345
2410
2338
2357
2369
2399
2433
2457
2465
2370
2440
2475
2491
2493
2325
2434
2425
2353
2449
2349
2473
2483
2374
2508
2496
2464
2509
2526
2505
2461
2488
2510
2522
2489
2503
2478
2528
2474
2401
2469
2430
2477
2502
2498
2504
2296
2305
2359
2304
2487
2351
2390
2540
2545
2534
2316
2486
2482
2567
2521
2379
2524
2460
2554
2533
2417
2552
2527
2519
2467
2555
2571
2582
2512
2263
2415
2579
2490
2568
2590
2575
2466
2529
2341
2549
2551
2566
2594
2421
2286
2561
2607
2446
2603
2600
2531
2626
2282
2523
2537
2614
2584
2517
2599
2437
2609
2576
2515
2565
2501
2621
2622
2227
2631
2553
2623
2573
2445
2506
2611
2596
2335
2592
2647
2569
2572
2672
2658
2637
2642
2472
2406
2648
2620
2588
2593
2557
2680
2653
2500
2630
2558
2602
2695
2431
2541
2324
2692
2663
2634
2662
2641
2709
2675
2707
2655
2688
2613
2712
2698
2689
2635
1160
2684
2591
2704
2687
2605
2713
2723
2706
2735
2678
2696
2745
2729
2731
2610
2397
2649
2525
2494
2650
2736
2518
2725
2581
2741
2640
2668
2412
2718
2730
2585
2719
2720
2761
2759
2752
2777
2757
2770
2755
2693
2768
2665
2497
2539
2726
2666
2754
2788
2697
2429
2747
2784
1858
2804
2625
2716
2624
2728
2805
2743
2738
2587
2760
2629
2824
2764
2542
2681
2789
2616
2586
2781
2790
2774
2826
2748
2796
2813
2800
2819
2797
2746
2507
2384
2580
2686
2303
2846
2841
2828
2794
2814
2821
2710
2830
2820
2810
2659
2776
2700
2853
2845
2840
2859
2786
2848
2868
2782
2815
2875
2854
2756
2801
2872
2758
2809
2829
2866
2817
2862
2530
2870
2627
2775
2895
2771
2889
1052
2900
2892
2749
2883
2836
2917
2922
2694
2912
2897
2439
2806
2636
2916
2881
2928
2944
2893
2930
2822
2682
2906
2783
2701
2929
2934
2902
2827
2803
2762
2951
2864
2855
)


// ************************************************************************* //
