/*--------------------------------*- C++ -*----------------------------------*\
  =========                 |
  \\      /  F ield         | OpenFOAM: The Open Source CFD Toolbox
   \\    /   O peration     | Website:  https://openfoam.org
    \\  /    A nd           | Version:  7
     \\/     M anipulation  |
\*---------------------------------------------------------------------------*/
FoamFile
{
    version     2.0;
    format      ascii;
    class       Cloud<passiveParticle>;
    location    "0.7/lagrangian/reactingCloud1";
    object      positions;
}
// * * * * * * * * * * * * * * * * * * * * * * * * * * * * * * * * * * * * * //

2545
(
(0.37615 0.311457 0.263691 0.0487023) 3416 6848 1
(0.296476 0.208219 0.352863 0.142442) 3338 6561 2
(0.427572 0.285345 0.112488 0.174594) 3287 6460 1
(0.656155 0.17166 0.117941 0.0542437) 3254 6395 1
(0.787382 0.103052 0.00276571 0.1068) 3151 6188 2
(0.6653 0.167139 0.121434 0.0461275) 3068 6025 1
(0.362457 0.0586118 0.259896 0.319035) 3018 5924 2
(0.429251 0.0495026 0.235283 0.285964) 2949 5786 2
(0.000830983 0.497528 0.494722 0.00691903) 2864 5618 1
(0.0443823 0.115798 0.359943 0.479877) 2827 5544 2
(0.432213 0.282162 0.176654 0.108972) 2737 5365 1
(0.142694 0.427607 0.130142 0.299557) 2628 5152 1
(0.199564 0.399237 0.296597 0.104602) 2564 5023 1
(0.236772 0.209041 0.383624 0.170563) 2463 4956 2
(0.642432 0.0459541 0.132173 0.17944) 2412 4720 2
(0.0146237 0.491654 0.381599 0.112123) 2319 4536 1
(0.425062 0.194903 0.287957 0.0920776) 2258 4417 2
(0.547177 0.119768 0.226685 0.10637) 2183 4268 2
(0.603714 0.0748177 0.122732 0.198737) 2112 4124 2
(0.622576 0.051913 0.189607 0.135904) 2010 4057 2
(0.0680724 0.465672 0.217638 0.248618) 1909 3722 1
(0.0255532 0.477013 0.487745 0.0096884) 1847 3601 2
(0.784309 0.107783 0.0324988 0.0754096) 1773 3454 1
(0.340834 0.327448 0.136625 0.195093) 1736 3378 1
(0.00679965 0.110094 0.386637 0.49647) 1156 313964 1
(0.0610013 0.467849 0.276358 0.194792) 1505 3054 1
(0.279742 0.357312 0.0755831 0.287363) 1445 2935 1
(0.30048 0.348075 0.139126 0.212319) 1365 2776 1
(0.213794 0.393103 0.095234 0.297869) 1305 2525 1
(0.367818 0.316091 0.193296 0.122796) 1274 2462 1
(0.493059 0.253471 0.171282 0.0821889) 1169 2253 1
(0.51248 0.144241 0.24376 0.0995193) 1107 2132 2
(0.18865 0.173081 0.232594 0.405675) 1044 2005 2
(0.117419 0.178313 0.262977 0.44129) 954 1826 2
(0.411441 0.293515 0.0993392 0.195704) 887 1692 1
(0.368614 0.181108 0.131351 0.318927) 855 1629 2
(0.307027 0.0763628 0.346487 0.270124) 759 1441 2
(0.586982 0.0354749 0.17048 0.207063) 715 1351 2
(0.159171 0.0735325 0.420414 0.346882) 643 1211 2
(0.395747 0.226931 0.0722091 0.305112) 573 1069 2
(0.256698 0.366281 0.214819 0.162203) 524 972 1
(0.474824 0.105204 0.15563 0.264341) 445 815 2
(0.408625 0.0798614 0.214775 0.296738) 369 664 2
(0.197563 0.399557 0.196133 0.206747) 281 489 1
(0.434285 0.2795 0.141032 0.145183) 251 430 1
(0.330287 0.33364 0.136235 0.199838) 148 225 1
(0.619391 0.0537278 0.190305 0.136577) 73 79 2
(0.340968 0.148674 0.329516 0.180841) 51 51 2
(0.141289 0.429535 0.055699 0.373477) 3536 313929 2
(0.623119 0.188784 0.125622 0.0624751) 4148 313920 2
(0.0551017 0.47167 0.404528 0.0686994) 6534 13038 1
(0.181264 0.0388284 0.370173 0.409734) 7630 15079 2
(0.339336 0.0218007 0.308333 0.33053) 7424 14670 2
(0.164648 0.418538 0.214512 0.202302) 5170 10196 1
(0.0302169 0.485646 0.326584 0.157554) 7649 15120 1
(0.532921 0.211562 0.0231899 0.232327) 6741 13315 2
(0.135381 0.163139 0.433909 0.267572) 6952 13868 2
(0.0893755 0.456899 0.319909 0.133816) 6193 12227 1
(0.673977 0.042841 0.162408 0.120774) 6677 13190 2
(0.561704 0.0632105 0.218821 0.156265) 6888 13609 2
(0.00217534 0.498425 0.442853 0.0565466) 6399 12770 1
(0.458568 0.271467 0.17242 0.0975448) 6134 12110 1
(0.120739 0.275863 0.438195 0.165203) 6848 13530 2
(0.656796 0.170526 0.0736538 0.0990247) 6482 12935 1
(0.299905 0.350595 0.246146 0.103354) 6708 13252 1
(0.295 0.00554903 0.352492 0.346959) 6262 12366 2
(0.408682 0.294667 0.199605 0.0970456) 5853 11686 1
(0.520522 0.239697 0.237231 0.00255013) 5863 11706 1
(0.0256427 0.375381 0.491009 0.107967) 6206 12387 2
(0.153674 0.367479 0.0574181 0.421429) 5855 11556 2
(0.558868 0.21959 0.12983 0.0917121) 6141 12258 1
(0.638905 0.181116 0.0764052 0.103573) 5925 11697 1
(0.361173 0.318501 0.249135 0.0711911) 6081 12139 1
(0.658505 0.171266 0.0979614 0.0722677) 6167 12176 1
(0.0604333 0.471199 0.199842 0.268525) 6102 12049 1
(0.527485 0.236234 0.0233918 0.212889) 5446 10744 1
(0.134498 0.228238 0.434744 0.20252) 5587 11158 2
(0.163395 0.106645 0.419197 0.310762) 5584 11152 2
(0.208535 0.321215 0.075272 0.394978) 5585 11020 2
(0.256596 0.139832 0.371263 0.232309) 5310 10476 2
(0.168215 0.208702 0.207831 0.415252) 5674 11197 2
(0.300602 0.33575 0.000988318 0.362659) 5699 11381 1
(0.0830438 0.240405 0.457756 0.218795) 5452 10758 2
(0.296851 0.351986 0.216254 0.13491) 5551 10955 1
(0.232964 0.382467 0.0862273 0.298342) 5467 10785 1
(0.0841313 0.196266 0.45934 0.260263) 5039 10070 2
(0.274578 0.336772 0.026931 0.361719) 5330 10514 2
(0.0810918 0.369272 0.0850533 0.464583) 5335 10523 2
(0.57555 0.140914 0.214655 0.0688811) 5274 10537 2
(0.244457 0.266344 0.112194 0.377004) 5196 10248 2
(0.183125 0.39542 0.407329 0.0141261) 5043 9946 2
(0.432724 0.284015 0.131801 0.151461) 5147 10151 1
(0.152864 0.423531 0.420474 0.0031316) 4990 9973 1
(0.38413 0.0551439 0.252943 0.307783) 4990 9839 2
(0.282054 0.0575662 0.358814 0.301566) 5010 9881 2
(0.429861 0.120027 0.286649 0.163462) 4857 9709 2
(0.644044 0.0588524 0.178632 0.118472) 4782 9560 2
(0.245011 0.0890516 0.28733 0.378608) 4787 9435 2
(0.399438 0.300323 0.0185811 0.281658) 4731 9325 1
(0.616372 0.191292 0.152702 0.0396336) 4654 9306 1
(0.0802789 0.459656 0.174179 0.285885) 4431 8729 1
(0.185822 0.359005 0.406811 0.0483624) 4505 8878 2
(0.0810539 0.457271 0.272299 0.189376) 4445 8891 1
(0.890675 0.0238023 0.0304023 0.0551201) 4461 8788 2
(0.128689 0.0669446 0.436312 0.368054) 4300 8603 2
(0.757298 0.0539813 0.122282 0.0664391) 4322 8647 2
(0.514709 0.212664 0.246312 0.0263149) 4254 8512 2
(0.0990566 0.422081 0.45102 0.027843) 4167 8207 2
(0.223953 0.3879 0.0730527 0.315094) 4107 8086 1
(0.0541219 0.468973 0.286544 0.190361) 4056 8119 1
(0.0256926 0.486995 0.423349 0.0639625) 3987 7850 1
(0.447232 0.275059 0.148397 0.129312) 3956 7785 1
(0.151565 0.423126 0.0521737 0.373136) 3888 7653 1
(0.303248 0.287158 0.0602517 0.349342) 3819 7514 2
(0.16506 0.417074 0.105337 0.312529) 3758 7393 1
(0.511441 0.175121 0.0684203 0.245018) 3682 7242 2
(0.165391 0.0665138 0.418451 0.349644) 3642 7297 2
(0.3122 0.258813 0.346841 0.0821458) 3559 7132 2
(0.532646 0.213551 0.235619 0.0181849) 3480 6975 2
(0.113801 0.168142 0.442007 0.27605) 26648 52787 2
(0.264738 0.368843 0.166668 0.199752) 24957 49411 1
(0.712445 0.143007 0.0384523 0.106096) 24680 49412 1
(0.225431 0.0873539 0.298869 0.388345) 24137 47771 2
(0.587631 0.20644 0.164769 0.0411598) 24406 48309 1
(0.05192 0.473829 0.0996371 0.374614) 21904 43314 1
(0.579068 0.153494 0.0573832 0.210055) 21628 42763 2
(0.0374007 0.418063 0.0632369 0.481299) 21371 42250 2
(0.163048 0.221777 0.421394 0.193781) 20516 41099 2
(0.407923 0.295092 0.102266 0.19472) 20491 40492 1
(0.375624 0.230583 0.0782138 0.315579) 19683 38879 2
(0.125653 0.147469 0.290458 0.43642) 8034 15882 2
(0.129612 0.436238 0.213853 0.220297) 7697 15215 1
(0.224553 0.186967 0.19935 0.38913) 7685 15188 2
(0.529335 0.149909 0.235332 0.0854236) 38673 76794 2
(0.484411 0.257699 0.24393 0.0139605) 38079 75606 1
(0.155993 0.418792 0.316232 0.108982) 36967 73385 1
(0.116612 0.441694 0.254225 0.187469) 36439 72334 1
(0.481307 0.259869 0.221534 0.0372897) 35585 70627 1
(0.338253 0.21448 0.114169 0.333098) 31387 62245 2
(0.595782 0.202221 0.109941 0.0920557) 30831 61136 1
(0.354334 0.0836719 0.239161 0.322833) 30575 60625 2
(0.398589 0.170368 0.300967 0.130076) 29987 60007 2
(0.0731216 0.462068 0.0603407 0.40447) 30019 59514 1
(0.227254 0.160078 0.388309 0.22436) 28599 57236 2
(0.118025 0.440987 0.426546 0.0144416) 28349 56183 1
(0.0676772 0.108633 0.357176 0.466513) 28034 55552 2
(0.038647 0.0323246 0.449656 0.479372) 50075 99554 2
(0.34558 0.168247 0.329614 0.156559) 50093 100147 2
(0.297808 0.204665 0.352498 0.145029) 50075 99557 2
(0.564398 0.217801 0.0908323 0.126969) 49817 99042 1
(0.578229 0.210889 0.0114704 0.199411) 48962 97332 1
(0.300061 0.00735272 0.350245 0.342342) 48121 95656 2
(0.410559 0.293166 0.164163 0.132112) 48409 96228 1
(0.376344 0.311112 0.202316 0.110228) 47283 94537 1
(0.361387 0.319831 0.118241 0.200542) 47570 94554 1
(0.213377 0.341765 0.393312 0.0515463) 47596 94608 2
(0.467468 0.132726 0.266266 0.133541) 47054 93526 2
(0.715024 0.025015 0.142568 0.117393) 46449 92872 2
(0.365489 0.317256 0.246835 0.0704211) 45354 90132 1
(0.675149 0.162964 0.142692 0.0191949) 44211 87847 1
(0.14154 0.428638 0.0649648 0.364858) 43664 86758 1
(0.0536923 0.0912843 0.382688 0.472336) 43379 86186 2
(0.4713 0.262283 0.0522348 0.214183) 41994 83978 1
(0.225284 0.230077 0.391749 0.15289) 41439 82870 2
(0.0807454 0.459518 0.352885 0.106852) 41428 82294 1
(0.567638 0.0559436 0.216261 0.160157) 40872 81184 2
(0.799712 0.0994215 0.100493 0.000372783) 40605 81205 2
(0.14663 0.340266 0.430367 0.0827374) 39481 78961 2
(0.190691 0.404654 0.191094 0.21356) 39492 78427 1
(0.044525 0.405098 0.0685232 0.481854) 39205 77853 2
(0 0.891617 0.108383 3.267e-151) 61288 533873 1
(0 0.892733 0.107267 2.98493e-150) 59335 531920 1
(0 0.854544 0.145456 4.01474e-150) 61009 533594 1
(0 2.52909e-150 0.0279237 0.972076) 54871 370064 2
(0.347752 0.325936 0.266755 0.0595569) 60670 121263 1
(0.225856 0.203074 0.183528 0.387541) 61258 121881 2
(0.0554001 0.473051 0.0281839 0.443365) 60083 119534 1
(0.0225293 0.488192 0.249664 0.239614) 60411 120190 1
(0.37096 0.110741 0.203606 0.314694) 60135 119639 2
(0.0813712 0.459808 0.0788517 0.379969) 59289 117950 1
(0.314848 0.342576 0.0862983 0.256278) 59308 117988 1
(0.214686 0.392188 0.168868 0.224258) 59296 117966 1
(0.0985487 0.44766 0.285581 0.168211) 58449 116829 1
(0.507774 0.214811 0.0310641 0.246351) 58446 116267 2
(0.419515 0.270118 0.290919 0.0194479) 58453 116283 2
(0.134347 0.430136 0.427951 0.007566) 58203 115782 1
(0.387826 0.298029 0.0034523 0.310694) 57900 115176 2
(0.143864 0.428213 0.0770287 0.350894) 57617 114612 1
(0.152148 0.353542 0.428498 0.0658112) 57341 114617 2
(0.96163 0.0190779 0.0135018 0.00579055) 57356 114647 1
(0.607918 0.195618 0.124063 0.0724007) 57349 114076 1
(0.42144 0.0586065 0.290501 0.229452) 55963 111866 2
(0.26207 0.226384 0.368846 0.142699) 55666 110719 2
(0.0542429 0.47314 0.118006 0.354611) 55673 110733 1
(0.281712 0.29423 0.0649115 0.359147) 55661 110707 2
(0.0867286 0.453223 0.234831 0.225217) 55118 110179 1
(0.123329 0.43011 0.117531 0.329031) 54573 109091 1
(0.193049 0.400581 0.17365 0.23272) 54005 107400 1
(0.804314 0.0188494 0.0786796 0.0981573) 53446 106284 2
(0.0183205 0.49084 0.44919 0.0416495) 53185 105766 1
(0.652072 0.174688 0.0928767 0.0803634) 52594 104584 1
(0.790771 0.103643 0.0825548 0.0230314) 51202 102361 1
(0.669832 0.0440847 0.12196 0.164123) 50917 101236 2
(0.181929 0.32036 0.0900767 0.407634) 50645 100693 2
(0 8.33689e-151 0.716295 0.283705) 70495 385688 2
(0 0.61148 0.38852 7.58397e-150) 70774 543359 1
(0 2.09623e-150 0.603559 0.396441) 69658 384851 2
(0 1.11326e-150 0.113811 0.886189) 72448 387641 2
(0 4.40849e-152 0.418348 0.581652) 65752 380945 2
(0 1.48003e-150 0.242942 0.757058) 72448 387641 2
(0 2.60367e-150 0.954928 0.0450718) 66589 381782 2
(0 6.29761e-150 0.129109 0.870891) 71332 386525 2
(0 0.815184 0.184816 1.60858e-150) 62125 534710 1
(0 2.00834e-150 0.720564 0.279436) 64357 379550 2
(0 0.283433 0.716567 4.47416e-150) 70495 543080 1
(0 0.329741 0.670259 2.43871e-141) 68263 540848 1
(0 0.550023 0.449977 4.40873e-123) 64636 537221 1
(0.0757559 0.182216 0.462814 0.279214) 71232 142349 2
(0.109268 0.445142 0.15241 0.29318) 71234 141797 1
(0.538317 0.230567 0.136217 0.0948993) 72678 144680 1
(0.363076 0.273621 0.321906 0.0413966) 72413 144707 2
(0.265476 0.344946 0.376339 0.0132388) 72150 144182 2
(0.736756 0.0780238 0.0522459 0.132974) 72124 143573 2
(0.595967 0.0516651 0.201691 0.150677) 71301 141933 2
(0.110246 0.0999192 0.344958 0.444877) 71307 141943 2
(0.220827 0.3892 0.132177 0.257797) 70441 140214 1
(0.170453 0.384533 0.419004 0.0260095) 70449 140786 2
(0.133128 0.237269 0.196167 0.433436) 70746 140823 2
(0.0917263 0.452414 0.164775 0.291084) 70458 140247 1
(0.193098 0.403451 0.06417 0.339281) 70202 139737 1
(0.53791 0.133374 0.0976105 0.231106) 69884 139101 2
(0.253054 0.380094 0.0686645 0.298187) 70210 139753 1
(0.566044 0.0954468 0.217776 0.120732) 69613 139117 2
(0.0454467 0.237601 0.236251 0.480702) 69330 137995 2
(0.162529 0.41601 0.235864 0.185596) 69341 138574 1
(0.0319147 0.484043 0.240724 0.243319) 69092 137523 1
(0.379455 0.27994 0.030532 0.310073) 67630 134602 2
(0.274529 0.362721 0.176207 0.186544) 68230 135800 1
(0.382847 0.0915055 0.217462 0.308186) 67952 135245 2
(0.450515 0.0665626 0.208021 0.274901) 67372 134087 2
(0.140253 0.368904 0.0541376 0.436705) 67678 134697 2
(0.113456 0.176487 0.266849 0.443208) 67380 134103 2
(0.0840145 0.0527181 0.405112 0.458156) 66811 132967 2
(0.121185 0.439408 0.425359 0.0140487) 67142 133628 1
(0.237424 0.220339 0.379021 0.163217) 65967 131284 2
(0.205635 0.133381 0.398356 0.262629) 66264 132431 2
(0.672507 0.127686 0.162779 0.037029) 65400 130152 2
(0.143612 0.427578 0.362588 0.0662221) 66262 131871 1
(0.124489 0.436244 0.437824 0.00144287) 65998 131346 2
(0.389586 0.30527 0.0964229 0.208721) 65424 130200 1
(0.673181 0.158992 0.132521 0.0353061) 65459 130267 1
(0.151 0.108013 0.316393 0.424594) 64591 128535 2
(0.162473 0.252688 0.162018 0.422822) 64599 128550 2
(0.172285 0.229613 0.413142 0.18496) 64332 128020 2
(0.749494 0.126177 0.00891054 0.115418) 63456 126271 1
(0.076425 0.459996 0.398295 0.0652846) 63692 126739 1
(0.946245 0.0119061 0.0271608 0.0146877) 62941 125797 2
(0.0268463 0.151115 0.330064 0.491974) 62948 125254 2
(0.582951 0.20861 0.19207 0.0163693) 62637 125190 1
(0.71098 0.058909 0.0856009 0.14451) 61816 122995 2
(0.338883 0.104884 0.225674 0.330558) 61824 123011 2
(0 4.76801e-150 0.0365043 0.963496) 76912 392105 2
(0 0.93753 0.0624703 7.27663e-151) 83887 556472 1
(0 0.78099 0.21901 1.00757e-149) 80260 552845 1
(0 0.910692 0.0893082 7.23892e-151) 83887 556472 1
(0 0.341194 0.658806 2.69515e-150) 77191 549776 1
(0 0.517096 0.482904 2.14789e-151) 81934 554519 1
(0 8.7423e-150 0.29068 0.70932) 74959 390152 2
(0 1.36566e-150 0.262698 0.737302) 81655 396848 2
(0 0.706935 0.293065 7.36927e-152) 81376 553961 1
(0 1.59753e-151 0.689655 0.310345) 83608 398801 2
(0 0.5854 0.4146 2.07501e-150) 74122 546707 1
(0 0.853532 0.146468 3.86998e-150) 80818 553403 1
(0 0.793841 0.206159 1.71705e-150) 83050 555635 1
(0 0.297219 0.702781 1.83563e-151) 83329 555914 1
(0 0.765108 0.234892 1.40618e-150) 76075 548660 1
(0 3.7101e-151 0.958129 0.0418711) 82213 397406 2
(0 1.2018e-150 0.436875 0.563125) 83887 399080 2
(0 4.90083e-150 0.888057 0.111943) 75796 390989 2
(0 5.09347e-150 0.164064 0.835936) 75517 390710 2
(0 0.886007 0.113993 1.23773e-150) 83329 555914 1
(0 0.663021 0.336979 4.81225e-151) 75238 547823 1
(0 0.167993 0.832007 3.10014e-152) 78307 550892 1
(0 0.221484 0.778516 5.33143e-151) 79702 552287 1
(0 0.852147 0.147853 4.96241e-150) 79144 551729 1
(0 0.839693 0.160307 1.45168e-150) 76912 549497 1
(0 0.0675049 0.932495 1.2588e-150) 79144 551729 1
(0 0.931353 0.0686473 1.44123e-150) 82771 555356 1
(0 0.650444 0.349556 6.78975e-152) 78028 550613 1
(0 0.0508315 0.949168 4.37061e-151) 82492 555077 1
(0 1.1674e-150 0.615207 0.384793) 74122 389315 2
(0 1.36557e-150 0.0461608 0.953839) 78865 394058 2
(0 0.111555 0.888445 1.63931e-151) 76075 548660 1
(0 9.0173e-150 0.552333 0.447667) 73006 388199 2
(0 6.53369e-150 0.694033 0.305967) 78586 393779 2
(0 5.14556e-151 0.0965038 0.903496) 77749 392942 2
(0 0.0986589 0.901341 6.97173e-151) 77470 550055 1
(0 1.31411e-150 0.842127 0.157873) 79702 394895 2
(0 3.8624e-41 0.578514 0.421486) 74401 389594 2
(0 0.424043 0.575957 5.10318e-151) 78865 551450 1
(0 2.88949e-150 0.33 0.67) 82771 397964 2
(0.340845 0.325013 0.274486 0.0596554) 83845 166973 1
(0.485078 0.255399 0.144794 0.114729) 83556 166396 1
(0.670417 0.051118 0.113361 0.165104) 82130 163549 2
(0.398279 0.116618 0.300978 0.184125) 82709 164708 2
(0.0416199 0.0249475 0.479149 0.454284) 82997 165283 2
(0.203256 0.00141287 0.397299 0.398032) 82427 164143 2
(0.348751 0.320265 0.0221569 0.308828) 83295 166432 1
(0.780265 0.109662 0.0590783 0.0509945) 83291 165870 1
(0.338565 0.331565 0.298562 0.0313091) 82443 164175 1
(0.0889223 0.349611 0.455024 0.106443) 82717 164724 2
(0.520521 0.203047 0.225145 0.051287) 83050 555635 1
(0.0167107 0.489532 0.147265 0.346492) 83295 165875 1
(0.324034 0.337983 0.0989247 0.239058) 82757 164802 1
(0.156141 0.420232 0.129429 0.294198) 83014 165314 1
(0.133167 0.431474 0.00125032 0.434109) 83026 165339 2
(0.003413 0.239054 0.499305 0.258228) 80734 161319 2
(0.022947 0.331628 0.487106 0.158319) 81896 163085 2
(0.714449 0.00203569 0.142536 0.140979) 81046 161942 2
(0.241962 0.281798 0.0966226 0.379617) 81632 162556 2
(0.235137 0.38217 0.236152 0.146542) 81915 163121 1
(0.211545 0.0908212 0.303409 0.394224) 81614 162520 2
(0.323723 0.33808 0.286725 0.0514713) 81051 161398 1
(0.351869 0.324086 0.256648 0.0673964) 81360 162015 1
(0.112957 0.444101 0.217841 0.225101) 80773 160843 1
(0.238487 0.0620391 0.384203 0.315271) 80809 161469 2
(0.862083 0.0694235 0.0566369 0.0118563) 80493 160282 1
(0.065851 0.357233 0.110446 0.466471) 81071 161436 2
(0.042143 0.481297 0.420416 0.0561444) 80802 160899 1
(0.414925 0.291616 0.139027 0.154432) 80213 159723 1
(0.239258 0.380371 0.256746 0.123625) 80247 159791 1
(0.218968 0.388848 0.168687 0.223496) 80503 160301 1
(0.17766 0.407767 0.0471614 0.367412) 79091 158039 1
(0.410594 0.295268 0.019677 0.274461) 78792 156885 1
(0.600542 0.162882 0.152074 0.084502) 79422 158143 1
(0.0112035 0.0227414 0.471926 0.494129) 79667 158633 2
(0.230007 0.0135076 0.369176 0.38731) 78506 156314 2
(0.242495 0.374706 0.05257 0.33023) 79104 158065 1
(0.0285195 0.481715 0.312966 0.176799) 79392 158083 1
(0.0137242 0.492985 0.463449 0.0298414) 78823 157504 1
(0.444158 0.16682 0.111959 0.277062) 78537 156377 2
(0.223822 0.387547 0.378945 0.00968584) 78546 156395 1
(0.421135 0.287211 0.0930082 0.198646) 77984 155829 1
(0.312799 0.343346 0.300802 0.0430528) 77980 155265 1
(0.038458 0.186893 0.289986 0.484663) 78282 155867 2
(0.711677 0.05829 0.0832651 0.146768) 77717 154739 2
(0.143109 0.42749 0.185525 0.243876) 76548 152408 1
(0.241097 0.378051 0.142412 0.23844) 77423 154152 1
(0.906691 0.0463133 0.0257545 0.0212413) 77144 153596 1
(0.569716 0.213049 0.0760087 0.141227) 77147 153601 1
(0.580335 0.151639 0.0577914 0.210234) 77160 153628 2
(0.651823 0.171608 0.0451915 0.131377) 76874 153613 1
(0.678895 0.160552 0.0447242 0.115828) 76896 153103 1
(0.313732 0.128733 0.213434 0.344102) 76596 152501 2
(0.533756 0.232881 0.0829218 0.150441) 76310 151933 1
(0.137199 0.150746 0.437199 0.274857) 75504 150878 2
(0.297069 0.278438 0.355127 0.0693663) 75758 151385 2
(0.38143 0.309137 0.303615 0.00581854) 75464 150242 1
(0.13188 0.411941 0.0222546 0.433924) 75472 150258 2
(0.112787 0.444299 0.109533 0.333381) 75186 149689 1
(0.50577 0.0936059 0.152477 0.248147) 75478 150269 2
(0.125747 0.269188 0.167938 0.437127) 74953 149222 2
(0.035126 0.266224 0.213816 0.484833) 75202 149718 2
(0.307553 0.34615 0.227377 0.11892) 74635 148589 1
(0.418419 0.279759 0.0370643 0.264758) 74390 148654 1
(0.170975 0.41454 0.0832655 0.331219) 74647 148613 1
(0.0172331 0.205903 0.491518 0.285346) 74631 148581 2
(0.832943 0.0833398 0.0370137 0.0467038) 74347 148014 1
(0.16657 0.416715 0.397538 0.0191772) 74385 148088 1
(0.367884 0.316349 0.0454976 0.270269) 73733 146788 1
(0.00784632 0.244771 0.251305 0.496077) 74097 147513 2
(0.255564 0.00885281 0.372218 0.363365) 74105 147531 2
(0.264312 0.367129 0.339992 0.0285672) 73236 145794 1
(0.249988 0.263198 0.376449 0.110365) 72927 145733 2
(0.0488221 0.418361 0.4796 0.0532172) 72971 145821 2
(0.159954 0.413769 0.057893 0.368384) 72977 145833 1
(0.61779 0.189422 0.175026 0.0177619) 72716 144756 1
(0 0.0741135 0.925887 4.64054e-151) 86677 559262 1
(0 0.146957 0.853043 4.83484e-150) 91141 563726 1
(0 8.98437e-152 0.600589 0.399411) 91978 407171 2
(0 2.84958e-151 0.853205 0.146795) 88630 403823 2
(0 4.9677e-150 0.46668 0.53332) 86398 401591 2
(0 0.717579 0.282421 9.26801e-151) 89188 561773 1
(0 1.84695e-151 0.933373 0.0666268) 86398 401591 2
(0 0.997817 0.00218348 2.19359e-151) 95047 567632 1
(0 5.82115e-151 0.204174 0.795826) 92257 407450 2
(0 2.62911e-150 0.969818 0.0301816) 87235 402428 2
(0 0.268038 0.731962 2.25686e-150) 93094 565679 1
(0 1.00591e-150 0.326975 0.673025) 88909 404102 2
(0 6.63007e-151 0.0956868 0.904313) 87793 402986 2
(0 1.58705e-150 0.211533 0.788467) 91978 407171 2
(0 7.42941e-150 0.116713 0.883287) 90304 405497 2
(0 0.377919 0.622081 3.36657e-150) 93373 565958 1
(0 0.897759 0.102241 3.06871e-150) 95047 567632 1
(0 0.918143 0.0818573 7.21533e-150) 85561 558146 1
(0 0.934193 0.0658071 2.02533e-150) 85840 558425 1
(0 0.860336 0.139664 1.22099e-151) 91699 564284 1
(0 2.07194e-150 0.155399 0.844601) 87793 402986 2
(0 0.856897 0.143103 2.86956e-150) 86677 559262 1
(0 1.05688e-150 0.312773 0.687227) 94768 409961 2
(0 0.464633 0.535367 1.2956e-150) 90025 562610 1
(0 2.82781e-150 0.5187 0.4813) 86398 401591 2
(0 0.619049 0.380951 8.18933e-151) 90025 562610 1
(0 0.349224 0.650776 9.85214e-150) 85282 557867 1
(0 0.367194 0.632806 2.93842e-151) 87235 559820 1
(0 3.19119e-150 0.518158 0.481842) 93094 408287 2
(0 0.277569 0.722431 4.79567e-151) 93373 565958 1
(0 4.05828e-150 0.22268 0.77732) 93931 409124 2
(0 0.324555 0.675445 2.98303e-151) 92536 565121 1
(0 1.89608e-150 0.0702774 0.929723) 85561 400754 2
(0 0.991319 0.008681 4.63967e-150) 94210 566795 1
(0 2.81278e-150 0.563343 0.436657) 87793 402986 2
(0 0.128715 0.871285 8.30396e-151) 94489 567074 1
(0 2.26334e-150 0.694253 0.305747) 92536 407729 2
(0 0.503113 0.496887 1.11618e-149) 85282 557867 1
(0 7.36559e-150 0.709836 0.290164) 85003 400196 2
(0 6.35838e-151 0.0113814 0.988619) 90304 405497 2
(0 3.95745e-150 0.0931036 0.906896) 94210 409403 2
(0 1.02444e-150 0.312773 0.687227) 84445 399638 2
(0 1.12608e-150 0.365391 0.634609) 92536 407729 2
(0 0.773206 0.226794 1.60129e-150) 92815 565400 1
(0 0.705123 0.294877 7.56643e-150) 88072 560657 1
(0 0.634167 0.365833 6.18339e-150) 91420 564005 1
(0 2.95537e-150 0.556194 0.443806) 90025 405218 2
(0 2.47251e-150 0.0569053 0.943095) 85561 400754 2
(0 2.50282e-150 0.8961 0.1039) 90583 405776 2
(0 1.04669e-150 0.656378 0.343622) 92815 408008 2
(0 1.86725e-151 0.738596 0.261404) 93652 408845 2
(0 1.62947e-150 0.148842 0.851158) 93373 408566 2
(0 5.4562e-150 0.255777 0.744223) 86956 402149 2
(0 2.50836e-152 0.157378 0.842622) 95047 410240 2
(0 0.617517 0.382483 4.9347e-150) 93094 565679 1
(0 5.80942e-150 0.745965 0.254035) 87235 402428 2
(0 0.470081 0.529919 8.75511e-150) 93094 565679 1
(0 0.433942 0.566058 5.2249e-150) 84445 557030 1
(0 0.997241 0.00275927 1.04208e-152) 86956 559541 1
(0 5.41107e-151 0.41783 0.58217) 89467 404660 2
(0 3.23138e-151 0.209766 0.790234) 89467 404660 2
(0 0.654366 0.345634 3.98929e-150) 90583 563168 1
(0 0.404925 0.595075 3.76671e-150) 93931 566516 1
(0 1.12614e-151 0.80618 0.19382) 93652 408845 2
(0 0.787155 0.212845 1.48863e-150) 93373 565958 1
(0 0.659721 0.340279 3.46481e-151) 89467 562052 1
(0 3.5161e-150 0.564009 0.435991) 89467 404660 2
(0 7.20844e-152 0.423117 0.576883) 89188 404381 2
(0 1.54317e-150 0.309076 0.690924) 91978 407171 2
(0 2.90377e-152 0.56987 0.43013) 89467 404660 2
(0 0.0271988 0.972801 3.19608e-152) 93094 565679 1
(0 6.91767e-151 0.0327971 0.967203) 92257 407450 2
(0 6.45867e-151 0.0819606 0.918039) 92815 408008 2
(0 6.94791e-151 0.847988 0.152012) 91141 406334 2
(0 0.813409 0.186591 1.61239e-150) 93652 566237 1
(0 1.64897e-150 0.157785 0.842215) 92815 408008 2
(0 4.75085e-151 0.441599 0.558401) 88630 403823 2
(0 1.82695e-150 0.435031 0.564969) 88909 404102 2
(0 7.0404e-150 0.55442 0.44558) 91420 406613 2
(0 0.692281 0.307719 1.70618e-150) 86119 558704 1
(0 5.1716e-150 0.385858 0.614142) 93652 408845 2
(0 0.269424 0.730576 2.0962e-150) 88909 561494 1
(0.00883089 0.000717486 0.144668 0.845784) 94768 409961 2
(0 0.449553 0.550447 1.26508e-120) 89746 562331 1
(0 5.54399e-27 0.740352 0.259648) 88351 403544 2
(0 3.0932e-34 0.651292 0.348708) 92536 407729 2
(0.413406 0.179502 0.112498 0.294593) 94696 188636 2
(0.164214 0.372504 0.0452808 0.418001) 94689 188623 2
(0.20789 0.397064 0.174432 0.220613) 94733 188711 1
(0.00178377 0.49728 0.349927 0.151009) 94726 189253 1
(0.296318 0.246722 0.101692 0.355268) 94431 188107 2
(0.111819 0.442277 0.378997 0.0669075) 95035 189870 1
(0.49463 0.0609328 0.191821 0.252617) 94738 188720 2
(0.379962 0.31226 0.0643015 0.243477) 94155 187559 1
(0.4031 0.115523 0.300086 0.181291) 94173 188149 2
(0.0167085 0.320284 0.167654 0.495353) 94168 187582 2
(0.630337 0.182933 0.0642609 0.122469) 94753 188750 1
(0.342148 0.328332 0.136629 0.192891) 91602 183016 1
(0.278571 0.070118 0.290619 0.360692) 92455 184162 2
(0.146768 0.0540518 0.372647 0.426533) 93900 187048 2
(0.153999 0.420366 0.347746 0.0778893) 93038 185326 1
(0.25634 0.286888 0.147015 0.309757) 93651 187107 1
(0.123824 0.438564 0.173771 0.263841) 91883 183021 1
(0.390341 0.159883 0.144951 0.304824) 91896 183047 2
(0.749326 0.125352 0.102904 0.0224183) 90759 180777 1
(0.123231 0.438575 0.362309 0.0758847) 92498 184251 1
(0.0468228 0.327423 0.147582 0.478173) 92786 184824 2
(0.082955 0.311939 0.460727 0.144379) 92501 184257 2
(0.487639 0.255118 0.173417 0.0838263) 92502 184813 1
(0.541606 0.187968 0.0279132 0.242514) 92808 184867 2
(0.407708 0.193698 0.0956718 0.302922) 92518 184288 2
(0.41064 0.291837 0.00277997 0.294743) 89619 178501 2
(0.327845 0.109808 0.22568 0.336667) 91065 181387 2
(0.613384 0.179087 0.0117814 0.195748) 91363 181982 2
(0.0200845 0.313331 0.48878 0.177804) 91071 181956 2
(0.291773 0.201362 0.122482 0.384382) 92252 183757 2
(0.107238 0.439996 0.18229 0.270476) 91966 183186 1
(0.215238 0.121211 0.268284 0.395267) 91687 182629 2
(0.527552 0.169966 0.059094 0.243388) 91685 182625 2
(0.325799 0.188447 0.148903 0.336852) 89950 179162 2
(0.300527 0.1526 0.349673 0.197199) 90540 180342 2
(0.36894 0.275437 0.34982 0.0058023) 90859 180976 1
(0.378784 0.311078 0.139514 0.170624) 90547 180354 1
(0.0848968 0.0331663 0.456872 0.425065) 90835 180931 2
(0.0124269 0.494023 0.421616 0.0719344) 90560 180382 1
(0.45344 0.272901 0.129121 0.144537) 90559 180380 1
(0 2.56692e-109 0.519503 0.480497) 87793 402986 2
(0.103961 0.348477 0.0953908 0.452171) 90265 179790 2
(0.0296811 0.160287 0.391684 0.418349) 90583 180426 2
(0.0153076 0.493823 0.271299 0.21957) 88519 176307 1
(0.0272218 0.482927 0.374854 0.114997) 89693 178648 1
(0.292388 0.20704 0.148583 0.351989) 90006 179274 2
(0.420133 0.0444109 0.290326 0.245131) 89730 178725 2
(0.321443 0.0852614 0.253039 0.340256) 89447 178158 2
(0.0502837 0.458826 0.489531 0.00135877) 89172 178165 2
(0.772876 0.111644 0.00680464 0.108675) 87996 175261 1
(0.0249232 0.245003 0.487851 0.242223) 88876 177020 2
(0.311585 0.343348 0.315045 0.0300219) 88890 177048 1
(0.715066 0.0611538 0.0831265 0.140654) 88605 176477 2
(0.048131 0.475832 0.369297 0.10674) 87756 174784 1
(0.331643 0.223688 0.110807 0.333863) 87763 174796 2
(0.310009 0.191 0.153966 0.345025) 86575 172424 2
(0.356402 0.123779 0.197993 0.321826) 87496 174263 2
(0.0342937 0.482919 0.140967 0.34182) 87194 173662 1
(0.650688 0.170453 0.174955 0.00390403) 87194 173662 2
(0.258137 0.369623 0.162314 0.209926) 87205 173682 1
(0.816491 0.054759 0.0361852 0.0925646) 87214 173700 2
(0.172557 0.414213 0.326355 0.0868746) 86346 171969 1
(0.734633 0.03198 0.100731 0.132656) 86640 172554 2
(0.454805 0.27321 0.205905 0.0660802) 86369 172013 1
(0.903902 0.0213043 0.0501066 0.0246871) 85781 171395 2
(0.171495 0.414263 0.0463516 0.36789) 85784 170847 1
(0.630542 0.165978 0.0157754 0.187705) 85801 170878 2
(0.193195 0.403524 0.0652658 0.338015) 85810 170896 1
(0.141507 0.4291 0.32203 0.107363) 85523 170326 1
(0.292236 0.352031 0.14038 0.215353) 85536 170349 1
(0.114459 0.347139 0.166129 0.372273) 85281 170397 1
(0.174294 0.412611 0.21393 0.199165) 85260 169799 1
(0.309137 0.153949 0.189064 0.34785) 85266 169811 2
(0.197361 0.100706 0.300591 0.401341) 84913 169106 2
(0.213807 0.0504203 0.341645 0.394127) 84987 169253 2
(0.62501 0.144122 0.187768 0.0430995) 84310 167904 2
(0.0622493 0.0951292 0.374254 0.468368) 84687 168655 2
(0.629455 0.00978152 0.176223 0.18454) 84340 167961 2
(0.557289 0.219611 0.217297 0.00580313) 84400 168082 1
(0.80467 0.0478581 0.0506477 0.0968245) 84400 168082 2
(0.62229 0.157618 0.0312371 0.188855) 84433 168148 2
(0.207069 0.394389 0.398152 0.000388834) 84141 167567 2
(0 1.36965e-150 0.68638 0.31362) 104254 419447 2
(0 0.347001 0.652999 5.74438e-150) 102022 574607 1
(0 3.58118e-150 0.099842 0.900158) 100906 416099 2
(0 0.461355 0.538645 5.02484e-151) 105649 578234 1
(0 0.658116 0.341884 1.01898e-150) 100627 573212 1
(0 0.30752 0.69248 6.48373e-150) 98395 570980 1
(0 0.954525 0.0454753 8.36246e-150) 102580 575165 1
(0 0.634572 0.365428 5.36581e-151) 100348 572933 1
(0 5.36356e-151 0.622273 0.377727) 96721 411914 2
(0 1.0625e-149 0.756076 0.243924) 104812 420005 2
(0 1.65294e-150 0.549631 0.450369) 95605 410798 2
(0 0.465007 0.534993 1.13085e-153) 100906 573491 1
(0 4.31213e-150 0.864901 0.135099) 95884 411077 2
(0 0.550986 0.449014 1.32146e-152) 104533 577118 1
(0 7.35284e-151 0.487506 0.512494) 98395 413588 2
(0 6.72842e-150 0.443689 0.556311) 102580 417773 2
(0 0.550409 0.449591 2.27066e-150) 99790 572375 1
(0 1.07974e-150 0.50415 0.49585) 102022 417215 2
(0 7.40778e-150 0.0780345 0.921965) 97558 412751 2
(0 3.76104e-151 0.196712 0.803288) 105928 421121 2
(0 0.078015 0.921985 6.90792e-151) 104254 576839 1
(0 1.13989e-150 0.427671 0.572329) 104254 419447 2