/*--------------------------------*- C++ -*----------------------------------*\
  =========                 |
  \\      /  F ield         | OpenFOAM: The Open Source CFD Toolbox
   \\    /   O peration     | Website:  https://openfoam.org
    \\  /    A nd           | Version:  7
     \\/     M anipulation  |
\*---------------------------------------------------------------------------*/
FoamFile
{
    version     2.0;
    format      ascii;
    class       scalarField;
    location    "0.7/lagrangian/reactingCloud1";
    object      pressure;
}
// * * * * * * * * * * * * * * * * * * * * * * * * * * * * * * * * * * * * * //


2545
(
598.617
600.623
596.364
594.034
595.107
596.691
593.538
592.899
593.119
591.43
590.677
589.895
589.473
587.018
587.893
583.813
584.604
582.21
580.56
585.702
580.052
581.723
580.123
584.471
582.012
581.622
582.516
581.592
582.282
583.873
582.416
582.724
582.921
582.38
582.494
583.233
582.725
583.121
583.057
583.032
583.18
583.093
583.042
582.98
583.097
583.029
583.048
583.062
601.866
601.982
588.648
549.098
558.802
605.754
547.249
582.83
575.399
596.126
583.805
576.724
591.537
595.374
575.307
587.069
579.249
594.582
601.839
599.168
593.335
601.273
593.932
599.81
593.583
590.31
591.148
604.39
602.565
603.26
603.03
604.948
598.266
595.658
603.125
597.627
600.199
605.112
601.01
600.236
599.594
601.122
604.258
599.159
601.695
601.695
599.499
601.318
602.181
601.538
600.199
601.072
602.577
602.272
601.301
599.732
601.889
599.723
599.56
601.308
600.272
598.491
598.327
601.554
601.421
601.399
600.2
601.207
597.195
598.398
599.934
424.753
333.891
411.142
449.103
443.76
471.544
475.999
485.689
490.588
446.363
501.761
526.765
545.909
549.462
341.622
338.881
346.473
349.746
353.376
380.126
385.259
390.368
387.643
395.534
405.582
411.404
407.49
300.37
332.224
300.37
332.294
327.945
293.891
332.332
280.197
332.114
332.818
332.93
323.336
333.553
230.526
334.122
322.794
335.9
336.519
333.601
336.399
337.642
339.684
339.661
340.336
328.739
329.312
328.815
330.826
157.567
328.731
0.959361
328.623
328.961
324.788
329.308
329.126
310.072
273.347
327.37
329.675
329.555
328.713
329.666
329.955
329.943
330.437
330.205
330.514
327.197
330.717
330.917
331.095
331.274
331.368
330.828
331.798
329.801
332.012
327.279
327.255
327.353
327.128
327.813
327.128
327.694
327.211
328.525
328.048
327.279
327.492
327.997
0.882064
0.961777
242.787
326.074
327.147
281.931
327.064
327.198
203.874
281.449
327.219
325.956
327.303
215.494
327.303
295.024
257.678
325.928
327.406
15.1714
327.363
327.445
213.51
327.547
297.211
182.635
327.622
104.968
302.723
19.7899
282.85
327.706
276.239
327.858
317.122
327.745
328.048
104.186
0.7293
328.33
328.33
317.496
328.587
328.594
326.869
326.657
326.743
326.657
326.857
326.698
326.969
326.705
326.712
326.663
327.018
326.727
326.674
326.668
326.91
326.692
326.657
326.924
326.938
326.668
326.954
326.811
326.761
326.78
326.869
326.78
326.68
326.822
326.686
327.018
326.79
326.91
327.089
326.8
326.833
326.845
326.761
327.001
326.79
326.68
245.308
181.426
12.5206
118.424
176.476
99.013
300.468
274.855
204.674
170.633
326.674
300.468
326.66
289.652
325.94
9.72464
282.875
195.643
326.414
326.62
263.588
230.888
326.69
239.274
326.726
233.311
326.029
326.711
227.247
326.739
303.944
187.079
43.162
326.77
313.471
14.6034
284.595
324.342
271.207
219.027
287.717
260.176
228.946
326.649
324.904
5.89224
239.179
240.407
264.416
325.799
310.175
326.867
316.349
268.713
326.938
314.877
197.649
264.723
206.914
310.7
326.969
322.768
268.958
327.001
326.012
234.55
192.427
327
0.771874
326.982
327.016
240.4
10.9615
325.826
326.975
327.108
326.613
326.555
326.541
326.588
326.617
326.581
326.617
326.454
326.537
326.605
326.519
326.584
326.599
326.541
326.568
326.511
326.454
326.63
326.626
326.547
326.599
326.613
326.466
326.571
326.617
326.571
326.634
326.605
326.519
326.511
326.495
326.531
326.63
326.486
326.599
326.476
326.531
326.634
326.638
326.568
326.486
326.647
326.531
326.525
326.595
326.552
326.571
326.63
326.563
326.525
326.504
326.511
326.61
326.454
326.519
326.605
326.519
326.647
326.61
326.578
326.578
326.563
326.495
326.504
326.511
326.578
326.578
326.581
326.541
326.578
326.519
326.537
326.525
326.555
326.504
326.525
326.588
326.584
326.552
326.621
326.504
326.584
326.466
326.575
326.592
326.531
58.4668
37.1765
237.027
201.815
122.406
325.072
262.595
138.389
229.232
203.917
323.136
8.34671
29.837
261.436
136.449
326.5
9.92904
26.8889
4.98107
230.951
277.484
246.809
252.133
326.416
322.64
1.28229
42.7857
135.397
68.1698
326.498
326.103
326.153
325.79
45.8604
211.816
326.552
250.144
298.146
316.616
313.172
326.599
234.74
326.563
2.26061
160.471
324.483
325.883
324.211
326.024
40.4718
275.36
325.227
316.93
257.514
298.419
3.04604
326.039
236.236
236.236
301.396
325.21
174.06
263.089
310.585
133.91
151.665
254.93
308.576
262.63
323.674
326.634
325.73
326.518
6.93909
326.536
0.793592
273.503
1.86494
223.332
223.332
326.627
324.983
321.283
325.083
325.594
311.335
325.689
326.174
324.668
325.774
326.354
318.555
326.426
325.594
326.409
320.079
326.174
324.668
325.919
325.083
326.277
307.82
321.283
321.283
321.283
307.82
326.33
323.586
326.277
303.698
303.698
326.393
324.038
325.488
316.641
326.44
325.24
326.134
326.174
325.689
326.374
326.037
324.388
314.259
325.594
318.555
326.305
307.82
307.82
324.668
318.555
316.641
325.982
307.82
324.668
303.698
303.698
316.641
322.985
326.409
321.283
316.641
314.259
326.277
311.335
325.774
320.079
326.088
326.305
326.174
325.85
325.919
321.283
318.555
318.555
325.85
326.037
326.409
326.44
324.668
326.409
323.586
326.33
314.259
325.774
324.038
325.594
326.44
311.335
326.088
326.277
322.985
311.335
326.246
322.985
318.555
323.586
326.44
321.283
326.305
325.85
303.698
326.277
326.088
324.668
323.586
326.393
326.33
325.85
318.555
324.388
322.234
316.641
326.409
326.037
324.388
326.44
307.82
316.641
325.774
303.698
325.594
326.426
325.083
326.134
324.388
322.234
322.234
325.774
324.388
325.083
303.698
320.079
311.335
326.44
326.134
303.698
324.668
326.277
326.246
325.982
326.134
325.85
325.488
326.305
307.82
325.774
318.555
307.82
314.259
323.586
320.079
326.213
322.985
22.5366
0.720803
6.46709
13.0065
138.134
112.609
228.36
206.642
83.7365
324.668
249.151
272.834
293.724
322.985
170.034
83.1595
198.746
314.259
224.098
165.874
130.182
102.955
75.8482
46.2217
221.278
63.4967
196.989
31.494
74.0972
171.114
302.502
82.8334
322.234
322.234
324.388
291.294
322.787
256.833
196.039
106.989
22.6444
149.998
104.224
100.61
186.929
235.873
233.59
324.013
181.567
316.897
198.216
142.627
250.071
53.6948
275.965
320.019
72.7613
255.836
33.1795
325.083
224.058
324.952
259.083
325.594
169.649
268.629
16.3816
31.9971
112.525
209.098
239.35
325.279
145.056
325.982
86.544
322.266
245.009
1.09787
159.103
325.591
326.042
58.4556
299.682
322.318
273.832
326.246
326.305
148.91
280.218
275.277
38.8275
326.354
326.374
264.561
11.2574
13.1418
326.435
105.393
280.289
295.233
209.608
154.924
124.993
222.559
275.683
171.865
158.184
210.079
135.149
204.081
135.149
181.874
198.258
282.016
119.669
198.258
114.263
116.915
275.683
235.588
145.993
187.151
293.756
167.132
149.899
153.961
153.961
125.504
198.258
142.236
298.991
162.572
229.015
109.249
248.985
187.151
210.079
116.915
122.531
142.236
262.479
167.132
262.479
138.623
198.258
119.669
138.623
275.683
242.255
171.865
128.595
262.479
229.015
122.531
167.132
192.613
198.258
229.015
248.985
114.263
109.249
176.779
298.991
119.669
111.709
142.236
176.779
119.669
176.779
262.479
135.149
198.258
122.531
248.985
187.151
187.151
255.741
106.879
109.249
119.669
145.993
114.263
262.479
262.479
204.081
198.258
114.263
204.081
131.809
153.961
145.993
142.236
222.559
269.147
111.709
145.993
111.709
222.559
248.985
122.531
298.991
181.874
262.479
171.865
288.07
153.961
116.915
158.184
181.874
229.015
181.874
198.258
181.874
153.961
293.756
216.242
106.879
145.993
262.479
192.613
114.263
235.588
142.236
210.079
138.623
192.613
262.479
158.184
282.016
145.993
135.149
162.572
181.874
210.079
210.079
158.184
262.479
229.015
288.07
210.079
171.865
262.479
142.236
149.899
142.236
181.874
210.079
187.151
192.613
145.993
138.623
128.595
235.588
125.504
210.079
204.081
198.258
119.669
128.595
122.531
176.779
204.081
192.613
162.572
109.249
111.709
131.809
298.991
192.613
204.081
142.236
122.531
216.242
171.865
282.016
122.531
167.132
142.236
149.899
109.249
181.874
138.623
216.242
162.572
269.147
106.879
162.572
106.879
181.874
142.236
109.249
142.236
262.479
119.669
149.899
288.07
119.669
275.683
111.709
210.079
171.865
125.504
171.865
116.915
242.255
142.236
282.016
298.991
282.016
125.504
158.184
181.874
138.623
275.683
192.613
125.504
262.479
222.559
122.531
210.079
282.016
235.588
222.559
122.531
106.879
131.809
269.147
128.595
216.242
210.079
116.915
138.623
255.741
204.081
282.016
192.613
149.899
288.07
153.961
109.249
106.879
153.961
171.865
114.263
158.184
125.504
135.149
145.993
128.595
204.081
262.479
275.683
162.572
275.683
119.669
162.572
181.874
293.756
111.709
210.079
248.985
176.779
262.479
176.779
158.184
262.479
275.683
153.961
187.151
171.865
248.985
255.741
216.242
216.242
288.07
293.756
288.07
293.756
248.985
269.147
138.623
187.151
4.11085
275.683
3.10915
145.993
162.572
135.149
6.03224
44.2876
20.4567
181.874
64.7488
8.88145
37.5268
64.1476
26.7552
69.7456
87.9182
29.3735
38.259
55.3952
74.1611
81.361
248.985
97.1166
104.319
75.016
181.874
86.8637
110.481
111.583
229.015
56.6596
115.145
114.222
51.1827
116.623
93.4792
70.1172
122.531
120.975
119.534
142.236
31.5969
37.9141
105.057
110.266
114.471
122.293
125.504
255.741
128.539
128.17
27.7433
114.238
132.582
171.865
34.4152
103.748
84.8544
85.3275
73.2386
127.02
118.099
131.956
110.341
125.702
118.099
187.151
107.353
88.8176
114.181
282.016
148.481
88.1721
125.115
222.559
153.357
67.1332
147.499
107.16
130.241
147.499
123.697
114.413
167.132
118.216
24.1207
146.644
155.13
48.9017
51.238
8.80754
164.364
137.349
171.539
181.874
117.423
181.874
3.72043
216.242
15.7903
14.4465
104.349
132.828
192.585
114.785
166.222
18.2074
176.496
196.272
64.4444
197.946
56.8501
176.843
200.133
207.941
124.595
216.508
48.5355
220.379
220.379
123.593
146.331
81.3459
228.714
117.113
121.314
242.255
229.101
229.101
134.585
87.3793
114.536
83.0089
239.576
168.807
202.289
206.15
248.319
251.807
257.167
182.714
38.5711
263.972
278.087
166.933
234.234
97.6765
7.10052
140.969
95.1015
278.228
147.837
288.07
160.895
11.815
216.103
113.804
291.646
298.261
58.8411
255.452
298.261
272.772
94.3294
73.3483
75.8002
96.239
56.6409
90.7038
63.0498
104.594
78.4089
64.8804
98.2171
84.1522
90.7038
85.7088
63.9523
65.8347
67.8271
104.594
82.6459
56.6409
59.6761
57.371
63.9523
69.938
85.7088
71.041
69.938
96.239
58.1196
92.4853
77.0841
58.1196
98.2171
82.6459
63.0498
90.7038
62.1718
58.1196
79.7762
87.3181
84.1522
82.6459
60.4858
88.9823
100.267
88.9823
104.594
72.1773
88.9823
84.1522
71.041
72.1773
74.5554
65.8347
69.938
74.5554
56.6409
94.3294
59.6761
59.6761
102.391
98.2171
60.4858
55.2329
63.0498
68.8671
90.7038
66.8166
102.391
61.3174
60.4858
73.3483
79.7762
62.1718
55.2329
77.0841
67.8271
81.1879
57.371
65.8347
84.1522
62.1718
64.8804
59.6761
56.6409
68.8671
104.594
82.6459
78.4089
61.3174
67.8271
104.594
92.4853
81.1879
58.8876
82.6459
78.4089
94.3294
64.8804
88.9823
59.6761
58.1196
60.4858
63.9523
88.9823
65.8347
64.8804
102.391
62.1718
75.8002
81.1879
73.3483
63.0498
92.4853
104.594
84.1522
66.8166
98.2171
55.9286
56.6409
62.1718
94.3294
102.391
98.2171
85.7088
75.8002
62.1718
67.8271
87.3181
87.3181
78.4089
63.9523
66.8166
74.5554
96.239
66.8166
82.6459
69.938
94.3294
94.3294
100.267
61.3174
69.938
92.4853
64.8804
90.7038
55.2329
66.8166
77.0841
65.8347
65.8347
82.6459
81.1879
82.6459
92.4853
104.594
71.041
85.7088
63.0498
69.938
73.3483
92.4853
63.0498
69.938
92.4853
79.7762
81.1879
66.8166
88.9823
96.239
57.371
73.3483
64.8804
96.239
96.239
104.594
74.5554
81.1879
69.938
92.4853
85.7088
58.8876
71.041
58.8876
100.267
87.3181
85.7088
67.8271
59.6761
100.267
60.4858
104.594
88.9823
78.4089
87.3181
78.4089
73.3483
84.1522
96.239
84.1522
96.239
68.8671
67.8271
67.8271
98.2171
71.041
74.5554
84.1522
59.6761
66.8166
87.3181
68.8671
90.7038
66.8166
79.7762
79.7762
58.8876
56.6409
60.4858
56.6409
92.4853
87.3181
77.0841
53.4875
56.6409
15.7557
72.1773
73.3483
94.3294
74.5554
22.5925
20.5064
0.733383
23.1656
18.079
54.6405
48.9513
0.720671
24.0904
30.756
55.0735
81.1879
35.9638
54.9361
48.7667
56.3749
5.86214
55.8826
56.2766
51.6741
24.7235
34.6998
49.764
57.2463
52.9637
40.4735
46.7879
58.1385
44.2239
27.0745
58.0343
29.649
41.7237
54.5703
61.8364
58.7547
1.3719
57.303
61.3174
6.28128
60.0574
59.3521
64.8804
14.2366
9.02077
58.3361
46.5204
26.4756
6.34108
46.9374
45.3375
55.2922
63.6506
63.9523
6.28128
48.8721
27.9905
96.239
48.1995
72.1773
62.7546
62.7546
63.9428
104.594
49.5261
63.8555
62.653
61.2747
25.7333
23.9192
59.0733
55.9806
66.5615
21.9962
23.0624
60.1968
66.4313
57.2798
73.3483
69.3612
71.034
3.67034
44.2507
72.1589
68.5865
73.3044
67.9568
63.3463
90.7038
27.1412
25.9292
8.16874
64.6448
59.5148
84.1522
77.0689
22.9321
76.9124
49.7502
6.54709
77.596
55.5204
73.6567
48.9625
62.6409
30.6978
74.0078
60.9783
74.7323
82.6459
73.9544
1.97342
61.0779
20.0644
74.5548
73.3741
29.1163
34.9451
38.3619
54.6241
72.9292
58.8536
86.7575
10.4953
18.8851
42.7995
8.56126
37.9261
83.4521
6.68037
83.0632
58.697
68.2362
23.7781
85.0128
71.8476
79.9164
91.261
92.2146
0.720719
47.2307
27.8365
47.7116
95.3956
1.93269
93.5429
58.5108
82.2977
34.3869
84.4042
100.171
85.1959
51.2862
41.5855
54.0415
104.594
48.3939
35.3114
46.7911
34.4488
36.6276
39.8104
45.207
53.8874
48.4387
37.5204
46.2565
38.884
40.7517
47.8818
45.7286
48.4387
45.7286
51.9716
39.8104
45.7286
46.7911
39.8104
45.7286
41.7089
38.884
52.5976
53.8874
51.3572
45.7286
47.3328
39.8104
50.1609
39.3454
37.0724
37.9716
37.9716
36.6276
42.194
37.0724
43.1779
47.3328
49.0038
51.3572
39.3454
34.8787
42.6836
40.7517
51.3572
36.6276
49.5777
45.207
38.884
53.8874
37.5204
51.9716
43.1779
52.5976
52.5976
49.0038
45.207
44.1816
43.1779
42.194
37.9716
39.3454
34.4488
45.7286
39.8104
51.3572
48.4387
49.0038
49.0038
48.4387
51.9716
34.4488
49.0038
50.7539
47.3328
41.2282
44.1816
48.4387
34.4488
48.4387
39.3454
50.1609
50.7539
37.5204
41.7089
54.5527
43.1779
50.1609
47.8818
39.3454
50.7539
53.8874
49.5777
37.5204
39.3454
35.3114
34.4488
54.5527
46.2565
42.6836
35.7471
41.7089
38.4261
44.1816
49.5777
41.2282
35.3114
44.6915
38.884
48.4387
40.7517
37.0724
52.5976
42.6836
42.6836
37.9716
50.1609
34.8787
43.1779
39.8104
50.1609
46.2565
54.5527
35.7471
51.9716
51.9716
42.194
47.3328
41.7089
50.1609
45.207
38.884
53.8874
35.3114
47.8818
36.1858
39.8104
51.3572
46.2565
37.9716
47.3328
40.7517
52.5976
40.7517
45.7286
40.2791
36.1858
41.7089
36.6276
0.720581
53.2359
0.812589
0.721111
48.4387
42.194
0.720579
47.3328
5.34457
0.720584
54.5527
0.720581
19.3876
45.7286
50.1609
48.4387
46.2565
0.929458
10.1876
18.2407
0.720583
40.7517
9.72673
13.3871
22.5607
13.6057
0.722247
49.0038
35.3114
34.4421
21.9591
0.721965
0.722965
33.0461
33.0418
0.72059
0.72059
10.5135
19.1792
13.0465
35.3114
12.0442
34.5659
34.787
32.8644
44.1816
41.7089
34.9706
35.1532
32.8401
51.9716
23.6566
32.9787
35.8116
10.5058
19.0524
35.4386
36.6251
35.6989
35.3342
35.8116
31.1852
7.70015
26.0533
37.5033
37.5179
35.7385
36.9317
37.969
36.7227
19.5883
34.2692
33.9461
0.758511
29.3367
38.4172
42.6836
38.38
38.8653
27.1238
11.6302
3.16976
0.720926
33.6348
3.6632
23.1023
10.1432
39.1285
4.1154
38.0817
33.0278
28.0137
33.1235
31.4117
33.492
43.1779
9.42668
31.2168
46.2565
40.5903
15.9479
25.1529
41.225
31.0705
39.5302
41.6524
10.9501
13.8083
39.2968
42.1828
34.2527
35.3098
42.1828
41.7262
35.0307
40.2511
41.3804
30.1683
42.4181
47.8818
26.2378
14.9043
33.4512
25.1858
42.5026
0.720619
39.0921
27.8687
43.356
35.7765
34.2291
14.8942
0.720619
10.9278
22.7685
44.2432
34.7146
38.2346
16.1025
27.7465
45.0828
38.0231
45.4236
8.59728
8.01066
0.720626
39.0298
35.9593
38.9909
44.5416
36.7532
46.5503
48.3567
49.0038
42.802
48.2382
46.9479
46.1243
48.0443
42.7693
28.3001
30.3499
22.5446
46.969
12.2469
47.8672
45.3322
21.0087
20.2456
51.9716
39.8231
47.2689
29.5861
30.7583
28.4242
48.339
8.2719
47.9662
50.4982
45.5918
39.5981
52.1529
48.9009
36.7912
3.91372
20.3874
54.4798
12.5061
21.683
32.7583
27.1817
20.6407
31.5206
19.5651
33.5978
21.1707
32.7583
23.4856
30.3082
31.5206
22.8306
29.1196
30.7096
26.7987
24.184
24.5452
27.1817
24.184
21.683
29.5133
22.2303
33.5978
30.3082
26.0374
25.2842
24.9124
31.9303
22.2303
24.9124
23.8302
25.2842
28.7283
24.5452
22.5232
23.4856
26.0374
23.8302
26.7987
24.5452
19.9804
24.5452
29.1196
32.7583
31.5206
31.9303
32.3428
33.1766
24.5452
33.1766
27.9518
31.5206
29.9094
20.9137
21.4243
25.6595
20.3348
31.1137
22.5232
29.1196
24.9124
29.5133
31.5206
32.7583
31.1137
33.1766
22.8306
25.2842
29.5133
20.6407
21.683
32.7583
21.683
22.2303
33.1766
27.1817
32.7583
29.9094
22.8306
22.2303
30.7096
24.184
25.6595
19.9804
31.9303
26.4173
20.9137
30.3082
24.9124
27.1817
21.9508
21.1707
24.5452
24.184
30.3082
32.7583
20.3348
23.8302
21.4243
32.3428
20.6407
33.1766
26.0374
21.9508
30.7096
24.184
21.9508
26.0374
26.7987
32.7583
22.8306
22.5232
32.3428
31.9303
24.5452
22.5232
28.7283
24.184
25.2842
34.0219
22.8306
32.7583
34.0219
26.4173
23.1517
34.0219
24.184
22.5232
26.7987
23.1517
30.3082
24.9124
31.9303
22.8306
20.8896
19.9804
20.9137
27.9518
26.4173
20.3348
32.3428
21.4243
28.7283
30.3082
0.720976
26.0374
0.720556
21.683
21.4243
0.720542
19.5651
0.724656
23.4856
27.1817
2.17276
0.720545
0.720549
0.72054
9.75131
29.9094
0.721798
23.4856
30.3082
0.720541
0.720545
8.61889
0.720542
24.9124
31.9303
0.720544
0.720551
14.5905
16.8114
16.5528
13.1349
9.44284
15.3974
5.91144
5.91144
12.3358
1.51433
25.2842
14.3488
0.72054
18.4732
10.3538
11.2651
1.22784
16.66
18.931
14.6505
19.5485
0.720538
18.9833
6.26125
18.8765
19.5108
22.2303
18.0981
16.1031
1.9141
18.5559
19.38
18.9574
12.1009
17.829
30.7096
0.723875
17.1349
17.829
19.9528
32.7583
19.5448
7.17687
17.3099
16.8698
20.0336
19.8942
14.1254
17.5897
0.720595
18.1224
14.266
18.931
19.8221
0.720548
22.2202
27.9518
20.2779
20.0059
19.4827
0.720547
0.720543
19.3182
13.1167
20.1131
17.3058
11.2815
10.6774
30.3082
19.3357
16.4683
20.4904
19.698
14.48
0.720545
8.424
16.2564
0.816272
20.7727
15.3668
3.3925
3.37151
18.0995
7.44579
27.1817
14.0041
20.696
17.6983
21.1707
19.5289
20.6098
11.5754
12.9141
20.8613
8.20462
33.5978
7.3129
33.1766
0.720539
20.1332
20.7292
21.1701
19.9422
21.1513
22.2019
14.7427
20.2392
18.9574
21.3592
16.0606
21.1354
18.5463
26.7987
14.816
8.87012
17.6895
14.0656
0.720633
19.867
19.6867
22.2303
20.7292
23.8302
12.6734
13.0637
11.8948
0.722663
20.4221
21.4236
0.722332
13.0637
17.3475
21.8913
8.67749
7.96397
21.5265
14.4545
21.8814
5.0148
0.720542
22.1686
0.722663
19.5868
21.0517
4.55008
0.720542
22.5004
22.2977
16.8731
26.0374
22.0127
13.5528
22.5111
13.5174
0.72054
18.7222
17.9833
22.0406
27.9518
31.9303
0.720539
11.902
14.2832
7.43958
20.0525
18.136
18.861
20.7981
0.720548
17.4857
21.652
11.1065
20.39
12.6843
11.2788
22.3514
0.720554
22.7413
0.720619
22.7449
17.9403
1.31937
21.5144
2.66286
14.8214
0.72874
16.3074
17.1384
25.6595
17.3983
22.3535
22.0323
23.036
0.72631
23.0011
15.6393
4.94062
10.1736
19.6044
20.5271
0.720542
23.1027
23.5233
23.2401
19.1388
6.81756
19.4135
20.6233
1.23699
0.720541
0.720543
24.1694
10.9174
23.7873
17.4728
0.721069
23.8752
23.0139
21.1137
16.0199
23.5053
0.725029
24.3099
16.9965
12.6649
23.89
17.6507
18.6069
20.3935
22.891
24.0612
21.2257
24.8743
19.8166
0.720549
20.7496
15.7393
34.0219
1.56357
14.129
21.266
18.4085
22.8149
10.6766
4.57429
25.2842
12.1783
24.6027
25.2612
33.5978
24.7897
23.3745
25.6084
25.6358
24.9537
25.6084
26.0341
0.720554
23.558
0.720546
24.8519
15.2521
22.8263
0.72055
21.1439
11.4499
23.9283
7.80712
25.0296
0.720549
26.2308
14.0263
26.7987
21.4908
26.0826
29.5133
25.004
24.7782
32.3428
24.7782
25.3722
26.9817
0.72055
26.691
5.66772
0.720555
0.720553
14.2709
23.4359
0.720575
26.773
27.9505
9.36224
27.5377
16.2298
26.8174
27.5282
0.720554
26.7761
0.720551
5.66772
28.3248
24.218
26.0372
22.9237
28.3175
22.6442
24.1244
24.1244
0.720556
21.374
27.442
21.8045
4.49714
20.0481
28.1664
27.4907
23.5845
0.826916
21.4822
25.99
27.8007
19.7099
14.9634
12.7193
18.087
0.720558
0.720558
19.6224
29.0639
27.7734
31.9303
27.4355
29.4251
24.3656
18.8859
9.86133
23.0526
28.6792
29.4411
26.2474
20.7146
27.5769
15.7301
27.2453
29.5278
29.9094
25.7556
29.0696
28.0643
27.4705
16.3635
30.2311
17.6644
23.3699
0.721837
16.0858
19.7039
16.4035
27.5967
10.656
12.2259
30.6299
0.720562
30.8941
9.10994
28.809
31.125
17.5235
30.6543
26.3739
24.5556
26.7176
32.7583
30.9776
23.7901
28.7187
28.6183
24.6333
31.5893
28.8244
32.1593
10.1866
0.720568
32.2348
28.2314
31.5471
31.107
32.6834
32.9189
32.3744
0.720569
33.1766
9.08808
15.9458
33.1781
29.7507
25.2387
29.4024
13.937
0.720573
33.2197
34.0154
33.5889
)


// ************************************************************************* //
