/*--------------------------------*- C++ -*----------------------------------*\
  =========                 |
  \\      /  F ield         | OpenFOAM: The Open Source CFD Toolbox
   \\    /   O peration     | Website:  https://openfoam.org
    \\  /    A nd           | Version:  7
     \\/     M anipulation  |
\*---------------------------------------------------------------------------*/
FoamFile
{
    version     2.0;
    format      ascii;
    class       scalarField;
    location    "0.7/lagrangian/reactingCloud1";
    object      T;
}
// * * * * * * * * * * * * * * * * * * * * * * * * * * * * * * * * * * * * * //


2545
(
592.845
593.864
592.189
591.526
591.84
592.48
591.4
591.223
591.436
590.807
590.612
590.379
590.261
589.587
589.822
588.777
588.908
588.304
588.039
589.209
587.733
588.101
587.731
588.866
590.007
588.078
588.322
588.106
588.258
588.7
588.295
588.38
588.435
588.459
588.394
588.522
588.38
588.491
588.473
588.466
588.508
588.483
588.469
588.451
588.484
588.465
588.469
588.476
598.06
597.84
591.344
579.524
582.264
597.783
578.871
589.046
586.66
593.639
588.976
586.984
591.808
592.037
586.508
589.751
587.584
592.928
595.32
593.034
591.448
594.44
591.59
593.524
591.467
590.556
590.779
595.598
594.058
594.653
594.386
595.781
592.718
591.991
594.164
592.53
593.244
595.633
593.465
593.247
593.065
593.492
594.558
592.94
593.652
593.652
593.033
593.544
593.798
593.608
593.228
593.476
594.278
593.875
593.549
593.099
593.793
593.099
593.054
593.586
593.263
592.758
592.713
593.835
593.786
593.826
593.282
593.8
592.404
592.754
593.297
541.645
481.335
529.089
549.696
548.271
556.844
558.175
560.904
562.563
542.7
565.855
573.553
578.672
581.571
510.625
509.251
513.158
513.92
515.607
526.082
527.893
529.339
528.063
531.167
535.125
536.701
535.596
487.1
507.02
487.1
507
504.957
482.049
507.263
471.454
507.165
507.061
506.914
501.937
507.514
430.127
508.048
500.996
508.722
508.904
507.397
508.961
509.31
510.342
510.092
510.524
505.2
505.435
505.231
506.056
365.944
505.471
226.024
505.614
505.692
503.84
505.668
505.804
494.838
467.386
505.107
505.676
506.003
505.705
506.069
505.927
506.029
506.103
506.313
506.303
504.937
506.338
506.236
506.452
506.542
506.336
506.612
506.984
506.079
507.051
504.625
504.616
504.651
504.57
504.828
504.57
504.782
504.6
505.113
504.921
504.625
504.704
504.901
230.461
229.798
442.463
504.482
504.667
474.788
504.806
504.761
408.102
474.396
504.814
504.46
504.682
418.492
504.641
484.737
455.06
504.46
504.686
238.162
504.959
504.972
416.678
504.93
486.309
388.829
504.759
317.806
490.239
242.278
475.414
505.095
470.166
504.902
499.691
505.191
505.109
317.206
231.06
505.174
505.095
499.85
505.41
505.298
504.484
504.434
504.45
504.434
504.481
504.44
504.516
504.441
504.443
504.435
504.533
504.446
504.436
504.436
504.497
504.439
504.434
504.501
504.506
504.436
504.511
504.467
504.454
504.459
504.484
504.459
504.437
504.47
504.438
504.533
504.461
504.497
504.557
504.464
504.474
504.477
504.454
504.527
504.461
504.437
444.82
388.097
238.257
330.13
383.551
312.307
488.658
469.248
409.099
378.191
504.436
488.658
504.468
480.732
504.286
235.688
475.547
400.91
504.458
504.49
460.106
432.294
504.487
439.568
504.46
434.393
504.342
504.492
429.086
504.481
491.118
393.082
262.029
504.456
497.461
238.12
476.875
503.643
466.292
421.794
479.27
457.245
430.526
504.561
503.922
231.452
439.422
440.479
460.743
504.309
495.363
504.539
499.272
464.253
504.542
498.377
402.58
460.982
410.916
495.717
504.523
502.914
464.441
504.552
504.426
435.363
397.83
504.585
231.526
504.679
504.6
440.414
234.519
504.376
504.737
504.59
504.432
504.435
504.435
504.433
504.432
504.433
504.432
504.422
504.434
504.432
504.433
504.433
504.433
504.435
504.435
504.432
504.422
504.433
504.432
504.435
504.433
504.432
504.424
504.434
504.432
504.434
504.433
504.432
504.433
504.432
504.43
504.434
504.433
504.428
504.433
504.426
504.434
504.433
504.433
504.435
504.428
504.434
504.434
504.433
504.433
504.435
504.434
504.433
504.435
504.433
504.431
504.432
504.432
504.422
504.433
504.432
504.433
504.434
504.432
504.434
504.434
504.435
504.43
504.431
504.432
504.434
504.434
504.433
504.435
504.434
504.433
504.434
504.433
504.435
504.431
504.433
504.433
504.433
504.435
504.432
504.431
504.433
504.424
504.434
504.433
504.434
281.134
262.967
438.4
407.711
336.763
503.881
459.765
350.864
431.63
409.457
502.962
237.836
256.228
458.757
348.667
504.43
239.31
253.654
234.387
432.928
471.552
446.492
450.966
504.406
502.706
226.184
266.321
347.115
287.611
504.426
504.301
504.318
504.181
268.275
415.961
504.434
449.18
487.041
499.326
497.21
504.433
436.025
504.435
230.963
369.503
503.614
504.221
503.488
504.276
262.793
469.75
503.954
499.515
455.222
487.204
233.358
504.287
437.151
437.151
489.315
503.954
381.541
459.791
495.553
344.625
360.957
453.007
494.233
459.387
503.252
504.433
504.184
504.444
236.529
504.449
223.593
468.188
232.199
425.774
425.774
504.453
503.88
502.242
503.947
504.142
497.04
504.177
504.344
503.78
504.208
504.397
500.891
504.416
504.142
504.412
501.654
504.344
503.78
504.259
503.947
504.376
495.053
502.242
502.242
502.242
495.053
504.391
503.315
504.376
492.647
492.647
504.407
503.514
504.103
499.905
504.419
504.008
504.331
504.344
504.177
504.403
504.299
503.664
498.641
504.142
500.891
504.384
495.053
495.053
503.78
500.891
499.905
504.281
495.053
503.78
492.647
492.647
499.905
503.043
504.412
502.242
499.905
498.641
504.376
497.04
504.208
501.654
504.316
504.384
504.344
504.235
504.259
502.242
500.891
500.891
504.235
504.299
504.412
504.419
503.78
504.412
503.315
504.391
498.641
504.208
503.514
504.142
504.419
497.04
504.316
504.376
503.043
497.04
504.366
503.043
500.891
503.315
504.419
502.242
504.384
504.235
492.647
504.376
504.316
503.78
503.315
504.407
504.391
504.235
500.891
503.664
502.695
499.905
504.412
504.299
503.664
504.419
495.053
499.905
504.208
492.647
504.142
504.416
503.947
504.331
503.664
502.695
502.695
504.208
503.664
503.947
492.647
501.654
497.04
504.419
504.331
492.647
503.78
504.376
504.366
504.281
504.331
504.235
504.103
504.384
495.053
504.208
500.891
495.053
498.641
503.315
501.654
504.356
503.043
248.429
215.835
228.962
238.033
357.191
334.004
435.368
417.214
307.584
503.78
451.789
470.622
485.415
503.043
384.496
306.58
409.78
498.641
430.933
380.857
348.855
324.255
299.661
272.171
428.162
288.166
407.371
258.262
297.745
384.535
490.837
305.656
502.695
502.695
503.664
482.939
502.944
456.611
405.925
327.225
249.849
365.074
324.609
321.378
397.7
439.435
437.413
503.489
392.727
499.703
407.289
358.421
450.864
278.786
471.283
501.425
295.929
455.306
259.997
503.947
428.887
503.878
457.795
504.142
381.233
465.247
244.042
258.914
330.563
415.512
441.204
503.997
359.163
504.281
306.995
502.546
445.702
219.388
371.029
504.117
504.295
282.148
488.342
502.565
468.995
504.366
504.384
361.484
473.934
470.101
264.746
504.397
504.403
461.506
239.677
241.667
504.417
322.166
473.857
485.055
414.703
366.096
339.466
436.304
474.724
396.192
384.853
426.709
365.245
422.031
365.245
404.347
417.449
478.968
351.665
417.449
346.836
349.211
474.724
446.114
374.56
408.601
486.562
392.293
377.879
381.309
381.309
356.825
417.449
371.35
489.812
388.514
441.192
342.315
455.961
408.601
426.709
349.211
354.202
371.35
465.604
392.293
465.604
368.247
417.449
351.665
368.247
474.724
451.046
396.192
359.538
465.604
441.192
354.202
392.293
412.97
417.449
441.192
455.961
346.836
342.315
400.21
489.812
351.665
344.539
371.35
400.21
351.665
400.21
465.604
365.245
417.449
354.202
455.961
408.601
408.601
460.826
340.163
342.315
351.665
374.56
346.836
465.604
465.604
422.031
417.449
346.836
422.031
362.344
381.309
374.56
371.35
436.304
470.252
344.539
374.56
344.539
436.304
455.961
354.202
489.812
404.347
465.604
396.192
482.932
381.309
349.211
384.853
404.347
441.192
404.347
417.449
404.347
381.309
486.562
431.471
340.163
374.56
465.604
412.97
346.836
446.114
371.35
426.709
368.247
412.97
465.604
384.853
478.968
374.56
365.245
388.514
404.347
426.709
426.709
384.853
465.604
441.192
482.932
426.709
396.192
465.604
371.35
377.879
371.35
404.347
426.709
408.601
412.97
374.56
368.247
359.538
446.114
356.825
426.709
422.031
417.449
351.665
359.538
354.202
400.21
422.031
412.97
388.514
342.315
344.539
362.344
489.812
412.97
422.031
371.35
354.202
431.471
396.192
478.968
354.202
392.293
371.35
377.879
342.315
404.347
368.247
431.471
388.514
470.252
340.163
388.514
340.163
404.347
371.35
342.315
371.35
465.604
351.665
377.879
482.932
351.665
474.724
344.539
426.709
396.192
356.825
396.192
349.211
451.046
371.35
478.968
489.812
478.968
356.825
384.853
404.347
368.247
474.724
412.97
356.825
465.604
436.304
354.202
426.709
478.968
446.114
436.304
354.202
340.163
362.344
470.252
359.538
431.471
426.709
349.211
368.247
460.826
422.031
478.968
412.97
377.879
482.932
381.309
342.315
340.163
381.309
396.192
346.836
384.853
356.825
365.245
374.56
359.538
422.031
465.604
474.724
388.514
474.724
351.665
388.514
404.347
486.562
344.539
426.709
455.961
400.21
465.604
400.21
384.853
465.604
474.724
381.309
408.601
396.192
455.961
460.826
431.471
431.471
482.932
486.562
482.932
486.562
455.961
470.252
368.247
408.601
219.896
474.724
218.287
374.56
388.514
365.245
223.115
270.58
242.815
404.347
293.441
227.785
262.941
292.937
250.483
299.131
318.26
253.619
263.784
282.895
303.364
311.681
455.961
328.215
337.32
304.083
404.347
317.119
343.191
344.399
441.192
283.899
347.294
346.79
277.857
348.894
323.001
298.139
354.202
352.539
350.496
371.35
256.383
263.369
334.827
339.482
344.69
353.418
356.825
460.826
359.478
358.536
251.967
343.585
362.577
396.192
259.554
332.412
312.77
312.852
300.662
356.808
346.297
361.927
338.448
354.457
346.297
408.601
335.098
315.983
341.605
478.968
376.446
315.146
352.945
436.304
380.702
293.949
374.843
334.001
357.169
374.843
350.301
340.843
392.293
344.242
248.436
372.306
381.185
275.06
277.471
229.607
388.294
361.97
395.176
404.347
342.592
404.347
221.549
431.471
238.98
237.306
329.412
356.624
412.201
339.108
387.31
242.114
396.759
414.881
290.473
415.072
282.928
395.602
416.422
423.356
347.615
430.947
274.616
433.641
433.641
346.468
367.329
306.714
440.928
340.262
343.951
451.046
439.237
439.237
355.899
312.126
337.503
307.987
446.915
386.09
415.198
418.494
453.571
456.394
460.2
398.004
264.651
465.584
475.991
383.915
441.307
321.253
228.765
360.578
318.861
475.618
366.729
482.932
378.099
235.657
425.434
335.781
484.674
489.307
284.516
457.466
489.307
470.828
328.587
308.41
310.832
330.369
291.296
325.181
298.001
338.078
313.388
299.881
332.207
318.947
325.181
320.438
298.93
300.856
302.88
338.078
317.498
291.296
294.496
292.07
298.93
305.007
320.438
306.112
305.007
330.369
292.861
326.858
312.093
292.861
332.207
317.498
298.001
325.181
297.094
292.861
314.72
321.972
318.947
317.498
295.342
323.553
334.103
323.553
338.078
307.246
323.553
318.947
306.112
307.246
309.605
300.856
305.007
309.605
291.296
328.587
294.496
294.496
336.059
332.207
295.342
289.795
298.001
303.93
325.181
301.856
336.059
296.207
295.342
308.41
314.72
297.094
289.795
312.093
302.88
316.089
292.07
300.856
318.947
297.094
299.881
294.496
291.296
303.93
338.078
317.498
313.388
296.207
302.88
338.078
326.858
316.089
293.669
317.498
313.388
328.587
299.881
323.553
294.496
292.861
295.342
298.93
323.553
300.856
299.881
336.059
297.094
310.832
316.089
308.41
298.001
326.858
338.078
318.947
301.856
332.207
290.538
291.296
297.094
328.587
336.059
332.207
320.438
310.832
297.094
302.88
321.972
321.972
313.388
298.93
301.856
309.605
330.369
301.856
317.498
305.007
328.587
328.587
334.103
296.207
305.007
326.858
299.881
325.181
289.795
301.856
312.093
300.856
300.856
317.498
316.089
317.498
326.858
338.078
306.112
320.438
298.001
305.007
308.41
326.858
298.001
305.007
326.858
314.72
316.089
301.856
323.553
330.369
292.07
308.41
299.881
330.369
330.369
338.078
309.605
316.089
305.007
326.858
320.438
293.669
306.112
293.669
334.103
321.972
320.438
302.88
294.496
334.103
295.342
338.078
323.553
313.388
321.972
313.388
308.41
318.947
330.369
318.947
330.369
303.93
302.88
302.88
332.207
306.112
309.605
318.947
294.496
301.856
321.972
303.93
325.181
301.856
314.72
314.72
293.669
291.296
295.342
291.296
326.858
321.972
312.093
286.991
291.296
235.262
307.246
308.41
328.587
309.605
244.883
241.957
215.651
245.629
238.571
288.978
280.984
215.278
246.881
255.93
289.575
316.089
262.856
288.761
280.402
290.715
221.144
290.475
290.798
284.338
247.746
261.388
281.415
291.9
286.085
268.874
277.284
292.212
273.87
250.884
292.745
254.261
270.206
287.662
295.449
293.49
215.315
290.25
296.207
221.905
294.77
293.829
299.881
233.397
225.995
292.475
276.229
249.955
222.07
276.771
274.951
287.828
298.03
298.93
221.905
279.59
251.906
330.369
278.266
307.246
297.612
297.612
298.917
338.078
279.678
298.548
297.23
295.668
248.925
246.533
292.12
287.941
301.526
243.997
245.401
292.904
300.826
289.206
308.41
303.993
305.811
218.253
272.366
306.925
302.744
308.355
301.956
295.961
325.181
250.664
249.122
225.154
297.336
290.611
318.947
312.074
245.295
311.882
278.564
222.938
312.395
285.409
307.593
277.484
293.998
255.078
307.726
291.797
308.308
317.498
307.086
215.99
291.531
241.732
307.235
305.842
253.097
260.144
264.266
283.444
304.789
288.385
320.943
229.043
240.33
269.474
226.251
263.664
316.738
223.431
316.618
288.041
299.097
246.528
318.552
303.279
312.329
325.438
326.543
215.088
274.504
251.561
274.892
329.402
216.049
326.889
287.221
314.143
259.387
316.213
333.993
317.103
278.792
267.729
281.799
338.078
275.434
267.057
280.542
265.991
268.667
272.488
278.75
288.35
282.385
269.749
279.939
271.386
273.599
281.764
279.342
282.385
279.342
286.275
272.488
279.342
280.542
272.488
279.342
274.721
271.386
286.955
288.35
285.604
279.342
281.15
272.488
284.292
271.936
269.207
270.293
270.293
268.667
275.286
269.207
276.425
281.15
283.013
285.604
271.936
266.524
275.854
273.599
285.604
268.667
283.648
278.75
271.386
288.35
269.749
286.275
276.425
286.955
286.955
283.013
278.75
277.579
276.425
275.286
270.293
271.936
265.991
279.342
272.488
285.604
282.385
283.013
283.013
282.385
286.275
265.991
283.013
284.943
281.15
274.158
277.579
282.385
265.991
282.385
271.936
284.292
284.943
269.749
274.721
289.066
276.425
284.292
281.764
271.936
284.943
288.35
283.648
269.749
271.936
267.057
265.991
289.066
279.939
275.854
267.592
274.721
270.839
277.579
283.648
274.158
267.057
278.162
271.386
282.385
273.599
269.207
286.955
275.854
275.854
270.293
284.292
266.524
276.425
272.488
284.292
279.939
289.066
267.592
286.275
286.275
275.286
281.15
274.721
284.292
278.75
271.386
288.35
267.057
281.764
268.129
272.488
285.604
279.939
270.293
281.15
273.599
286.955
273.599
279.342
273.042
268.129
274.721
268.667
215.128
287.647
215.442
215.441
282.385
275.286
215.257
281.15
219.59
215.214
289.066
215.242
241.437
279.342
284.292
282.385
279.939
215.393
226.778
239.496
215.09
273.599
226.069
231.765
246.436
232.109
215.482
283.013
267.057
265.98
245.334
215.483
215.497
263.505
263.338
215.374
215.229
227.278
240.86
231.197
267.057
229.635
265.833
266.196
263.207
277.579
274.721
266.497
266.622
263.009
286.275
247.829
262.782
267.348
227.275
240.617
266.419
268.663
266.998
266.252
267.348
259.649
223.054
251.369
269.722
269.745
266.898
268.635
270.289
268.472
241.26
264.405
263.613
215.512
256.507
270.825
275.854
270.765
271.357
252.872
228.996
216.884
215.488
262.993
217.481
246.488
226.757
271.595
218.039
269.311
261.8
253.995
261.828
259.2
262.394
276.425
225.7
258.901
279.939
273.349
235.536
249.497
274.153
258.282
271.377
274.634
228.004
232.3
270.862
275.268
263.316
264.799
275.268
274.57
264.253
272.155
274.041
256.837
275.45
281.764
251.012
233.943
261.76
249.266
275.578
215.123
269.956
253.185
276.34
264.892
262.493
233.927
215.177
228.012
245.598
277.315
263.103
268.408
235.714
252.815
278.385
267.84
278.71
224.61
223.743
215.29
269.184
264.709
268.872
277.073
265.64
279.827
282.266
283.013
274.237
281.908
280.226
279.034
281.629
274.042
253.323
256.192
244.999
279.905
230.067
281.193
277.561
242.796
241.685
286.275
269.447
279.989
254.921
256.574
253.282
281.331
224.267
280.804
284.387
277.296
268.779
286.33
281.596
264.769
218.048
241.822
288.965
230.555
248.848
263.874
256.645
246.917
262.302
245.533
264.93
247.885
263.874
251.699
260.738
262.302
250.742
259.195
261.26
256.149
252.671
253.174
256.645
252.671
248.848
259.705
249.795
264.93
260.738
255.149
254.158
253.652
262.823
249.795
253.652
252.202
254.158
258.678
253.174
250.294
251.699
255.149
252.202
256.149
253.174
245.929
253.174
259.195
263.874
262.302
262.823
263.35
264.403
253.174
264.403
257.658
262.302
260.224
247.447
248.408
254.642
246.483
261.778
250.294
259.195
253.652
259.705
262.302
263.874
261.778
264.403
250.742
254.158
259.705
246.917
248.848
263.874
248.848
249.795
264.403
256.645
263.874
260.224
250.742
249.795
261.26
252.671
254.642
245.929
262.823
255.639
247.447
260.738
253.652
256.645
249.354
247.885
253.174
252.671
260.738
263.874
246.483
252.202
248.408
263.35
246.917
264.403
255.149
249.354
261.26
252.671
249.354
255.149
256.149
263.874
250.742
250.294
263.35
262.823
253.174
250.294
258.678
252.671
254.158
265.461
250.742
263.874
265.461
255.639
251.24
265.461
252.671
250.294
256.149
251.24
260.738
253.652
262.823
250.742
247.4
245.929
247.447
257.658
255.639
246.483
263.35
248.408
258.678
260.738
215.061
255.149
215.059
248.848
248.408
215.028
245.533
215.091
251.699
256.645
215.253
215.067
215.015
215.043
226.97
260.224
215.066
251.699
260.738
215.049
215.022
224.918
215.057
253.652
262.823
215.037
215.015
235.99
240.221
239.366
233.243
226.408
237.186
220.17
220.17
231.746
215.26
254.158
235.532
215.06
243.417
227.794
229.357
215.26
239.931
244.303
236.104
245.501
215.085
244.404
220.819
244.197
245.428
249.795
242.307
238.515
215.36
243.184
244.769
243.955
230.923
241.63
261.26
215.142
240.154
241.63
245.876
263.874
244.943
222.414
240.637
239.798
245.731
245.623
234.506
241.336
215.082
242.194
234.783
244.303
245.483
215.026
249.273
257.658
246.208
245.678
244.823
215.029
215.055
244.503
232.665
245.886
240.46
229.384
228.325
260.738
244.376
239.035
246.623
245.078
235.178
215.038
224.463
238.472
215.25
247.17
236.769
217.123
217.199
241.977
222.941
256.645
234.255
247.019
241.159
247.885
244.738
246.784
229.894
232.245
247.344
224.152
264.93
222.729
264.403
215.075
245.853
246.974
247.884
245.543
247.847
249.739
235.614
246.06
243.533
248.28
238.027
247.839
242.782
256.149
235.75
225.249
241.104
234.333
215.126
245.354
245.003
249.795
246.974
252.202
231.813
232.507
230.421
215.243
246.374
248.407
215.214
232.507
240.355
249.236
224.916
223.747
248.518
235.007
249.217
219.332
215.076
249.674
215.243
244.734
247.49
218.671
215.067
250.249
249.853
239.393
255.149
249.296
233.368
250.27
233.251
215.084
242.861
241.59
249.351
257.658
262.823
215.118
230.411
234.633
222.891
245.5
241.843
243.124
246.938
215.051
240.536
248.458
228.928
246.033
231.677
229.225
249.957
215.014
250.568
215.229
250.454
241.318
215.442
247.927
216.401
235.492
215.351
238.196
239.724
254.642
240.306
249.528
248.914
250.835
215.353
250.949
236.906
219.155
227.302
244.316
245.935
215.089
250.811
251.614
251.074
243.339
221.881
243.713
245.961
215.403
215.161
215.102
252.643
228.525
251.916
240.048
215.331
251.909
250.451
246.877
237.423
251.015
215.367
252.73
238.982
231.371
252.111
240.372
241.988
245.252
249.87
252.055
246.947
253.581
244.194
215.244
245.618
236.745
265.461
215.533
233.911
246.716
241.518
249.388
227.95
218.597
254.158
230.48
252.885
254.115
264.93
253.028
250.602
254.547
254.598
253.332
254.547
255.143
215.027
250.753
215.102
252.962
235.72
249.086
215.077
246.198
229.2
251.266
223.234
253.094
215.08
255.296
233.463
256.149
246.545
254.649
259.705
252.877
252.292
263.35
252.292
253.202
256.281
215.11
255.753
220.018
215.067
215.289
233.709
249.88
215.319
255.723
257.656
225.621
257.106
237.111
255.803
257.088
215.09
255.546
215.215
220.018
258.147
250.844
254.222
248.689
258.134
248.076
250.679
250.679
215.075
245.853
256.568
246.605
218.424
243.546
257.678
256.655
249.596
215.401
246.042
253.823
257.028
242.959
234.734
231.006
240.08
215.063
215.096
242.634
259.096
256.646
262.823
256.218
259.55
250.705
241.296
226.357
248.434
258.237
259.578
253.838
244.416
256.148
235.971
255.571
259.555
260.224
252.986
258.581
256.837
255.809
236.932
260.604
239.104
248.871
215.413
236.469
242.461
236.951
255.881
227.583
230.102
261.122
215.102
261.399
225.142
257.811
261.623
238.758
260.816
253.522
250.448
254.104
263.874
261.197
249.158
257.358
257.187
250.469
262.07
257.393
263.038
226.807
215.244
262.989
256.258
261.828
261.086
263.747
263.969
263.053
215.174
264.403
225.096
235.962
264.227
258.514
251.162
257.936
232.73
215.201
264.297
265.45
264.739
)


// ************************************************************************* //
