/*--------------------------------*- C++ -*----------------------------------*\
  =========                 |
  \\      /  F ield         | OpenFOAM: The Open Source CFD Toolbox
   \\    /   O peration     | Website:  https://openfoam.org
    \\  /    A nd           | Version:  7
     \\/     M anipulation  |
\*---------------------------------------------------------------------------*/
FoamFile
{
    version     2.0;
    format      ascii;
    class       scalarField;
    location    "0.7/lagrangian/reactingCloud1";
    object      tTurb;
}
// * * * * * * * * * * * * * * * * * * * * * * * * * * * * * * * * * * * * * //


2545
(
0.004955
3.72337e-05
0.004745
0.00464
0.004535
0.00443
0.004325
0.00422
0.004115
0.00401
0.003905
0.0038
0.003695
0.00359
0.003485
0.00338
0.003275
0.00317
0.003065
0.00296
0.002855
0.00275
0.002645
0.00254
1e-05
0.00233
0.002225
0.00212
0.002015
0.00191
0.001805
0.0017
0.001595
0.00149
0.001385
0.00128
0.001175
0.00107
0.000965
0.00086
0.000755
0.00065
0.000545
0.00044
0.000335
0.00023
0.000125
2e-05
0.001482
0.0001835
0.002935
0.01168
0.011575
0.000187
0.011365
0.00667
0.01105
0.003837
0.0059485
0.01084
0.0047355
0.0038505
0.01042
0.010315
0.0103112
0.00258314
0.001527
0.0094585
0.01
0.00152536
0.0098
0.000236448
0.0096
0.0095
0.0094
0.000656214
0.0082355
0.00159209
0.00140696
0.00146199
0.0088
0.0087
0.0086
0.0085
0.0084
0.003705
0.0082
0.0081
0.008
0.0079
0.0078
0.0077
0.0076
0.0075
0.0074
0.0073
0.0072
0.0071
0.007
0.0069
0.00347144
0.0067
0.0066
0.0065
0.0064
0.0063
0.0062
0.0061
0.006
0.0059
0.005795
0.00579125
0.00569
0.005585
0.00548
0.005375
0.00527
0.005165
0.00506
0.000845
0.000705
0.0009185
0.000567249
0.00652775
0.000363281
0.0001085
0.011995
0.0121
0.000225305
0.01189
0.00209835
0.011785
0.0016205
0.0142
0.00695298
0.002545
0.013885
0.0014935
0.00175
0.001575
0.01315
0.00334
0.013045
0.00124
0.012835
0.00396551
0.00239
0.01648
0.000501708
0.01638
0.004847
0.001887
0.0042735
0.001195
0.0110667
0.015775
0.015565
0.004347
0.01546
0.0011435
0.00609003
0.0009885
0.00310568
0.0026835
0.004605
0.00318
0.0017111
0.00781692
0.014515
0.00256745
3.91081e-05
0.00090142
6.40423e-05
0.000268763
0.003732
0.0074285
0.00671554
0.0073735
0.00706754
0.0072755
0.01878
0.0058435
0.00345597
0.0006205
0.0089785
0.0148155
0.0126774
0.00649845
0.006315
0.01818
0.0018305
0.01778
0.00565845
0.005097
0.006152
0.01768
0.01738
0.01728
0.01718
0.01698
0.00458276
0.00477591
0.00471563
0.004575
0.00105546
0.000502932
0.000183076
0.000226761
0.0036983
0.000202601
0.000655365
0.00122009
0.000451058
0.000404461
0.00055362
0.000623314
0.00049345
0.00270662
0.012042
0.005185
0.0114735
0.023655
0.00353541
0.0115085
0.023235
0.0020635
0.0032105
0.023025
0.0114208
0.02271
0.000515
0.0109785
0.00427699
0.00468753
0.0105216
0.022185
0.0081635
0.009285
0.0030035
0.002632
0.02166
0.00263623
0.00372139
0.021345
0.003672
0.00162232
0.0038955
0.0022285
0.0087385
0.0031085
0.020715
0.00031735
0.0166505
0.0190185
0.00437596
0.000606318
0.01988
0.01978
0.000350191
0.01958
0.01948
0.000210268
0.00168147
0.000132398
0.00691665
0.000192134
0.000400712
0.000571558
0.000899695
0.00402754
0.000187504
0.00306114
0.000134733
0.000138596
0.00347893
0.0010757
0.000268923
0.000493003
0.000155492
0.0011958
0.00155802
0.00132519
0.00243582
7.46156e-151
0.000924091
0.000741391
0.00015442
0.00348581
0.000657865
0.00113369
0.00100398
0.00222716
0.00109542
2.41421e-150
5.42478e-05
3.49632e-151
0.000385135
0.00117453
1.66957e-43
0.000449816
0.000791912
0.004577
0.0009455
0.016442
0.004377
0.0015
0.0086955
0.00274753
0.002142
0.0056155
0.0053605
0.00937597
0.001487
0.02976
0.004085
0.003787
0.012825
0.006392
0.006947
0.011747
0.01067
0.0041
0.0057935
0.0166635
0.0026985
0.02846
0.003982
0.010855
0.0165256
0.0019685
0.02806
0.00761147
0.0070755
0.0061935
0.00463592
0.00256295
0.0055855
0.00353132
0.0102952
0.0047655
0.0038505
0.00315223
0.00663839
0.000107
0.0013005
0.0185669
0.012067
0.0062305
0.0064401
0.0032935
0.00559
0.00233
0.02606
0.0106983
0.00575105
0.025335
0.000987382
0.005717
9.2e-05
0.0001735
0.0014682
0.024915
0.0133277
0.001742
0.0247012
0.0051672
0.0053452
0.00538
0.024705
0.00243
0.0246
0.024495
0.001802
0.0090705
0.0117885
0.0016755
0.0108285
0.00175813
0.000740943
0.00064192
0.000182705
0.000295159
0.000421227
0.000123344
0.000748082
1.98055e-150
0.000556392
0.000424316
0.000418581
0.00358957
0.000110535
0.000117354
0.00361797
0.00828321
0.000813192
0.000292182
0.0024471
0.00198726
0.000185995
0.00015215
0.00111282
3.65009e-05
0.000113247
0.000488235
0.00305181
2.20558e-149
0.000198334
0.000969096
0.00443495
0.000548054
0.00017207
0.000217951
0.000294964
0.00100216
0.00115586
0.000119857
0.000771527
0.0020591
0.000124727
0.000487522
0.00116766
0.000537226
0.000276477
0.000125875
1.21463e-05
0.000450888
0.00200497
0.000835667
0.000176526
0.00118965
0.000834468
0.000591676
9.86434e-05
0.000212897
0.000491665
0.00584211
4.15328e-05
1.17157e-149
0.000462904
0.000564269
0.000509905
8.68694e-05
0.000153391
0.000667649
0.000131592
0.000762178
0.00210757
0.00953919
1.81765e-151
0.00177827
0.000938191
0.0012893
0.00121947
0.00064351
5.66902e-06
0.000440057
6.98737e-05
0.000226505
0.000829311
0.000624774
0.000303833
0.00639592
0.000673493
0.006917
0.0148085
0.0068635
0.0109885
0.00528
0.008432
0.000587
0.002227
0.0042735
0.0071905
0.00962072
0.0044085
0.0056755
0.002382
0.0094635
0.004187
0.0067285
0.0032035
0.0096685
0.0030155
0.0097985
0.0017755
0.0077205
0.004062
0.0119055
0.0058205
0.0140155
0.000542
0.006242
0.0028885
0.0239485
0.0276202
0.005437
0.0079305
0.006332
0.0221735
0.0054255
0.0108105
0.0148
0.00999
0.000144875
0.00895738
0.000990653
0.00700135
0.0071655
0.0246
0.01618
0.0072705
0.006652
0.0074185
0.005585
0.0082255
0.0152935
0.007915
0.0094005
0.008275
0.004227
0.0010885
0.008115
0.00647187
0.0105435
0.00272185
0.0082
0.00987
0.004017
0.0078005
0.0018085
0.0085955
0.004255
0.0200219
0.00161648
0.0049755
0.027475
0.00177657
0.0120005
0.001495
0.0059535
0.00506648
0.0032235
0.0065385
0.030905
0.0197007
0.000344867
0.00130399
0.000659211
0.000162938
0.000533216
0.000473119
0.000701467
5.1346e-150
0.000665874
0.00147799
0.00124082
0.000278624
0.00039385
0.00174533
3.11482e-150
0.00112459
0.00307906
0.00101432
0.00104191
0.00353127
1.47912e-150
0.000560487
0.00579426
0.00127928
0.00133985
0.000684856
0.000816457
0.000810137
3.6288e-150
3.91085e-05
0.00202376
0.00275882
0.00184559
0.000119567
7.04564e-05
0.000365941
0.00101753
0.000702535
0.00104761
0.000455484
0.00125776
0.00909541
0.000184248
0.00204222
0.00123244
0.00153338
0.0018608
0.000363006
0.00191429
1.00088e-150
0.00110307
4.38354e-150
0.000107726
0.000892573
0.000314019
1.65794e-150
0.00591718
0.0013253
0.00331188
0.00189228
0.00249763
0.00635626
0.00166429
7.87279e-151
0.00014768
0.000119649
0.000341448
0.000873214
0.0018406
0.000304628
0.00874034
0.00150744
5.41527e-05
0.000920272
0.00040634
0.000359517
0.00018484
5.87959e-05
6.8789e-151
0.000818766
0.000164292
0.000433125
3.99023e-05
0.000112034
5.74322e-151
0.000228805
4.51905e-05
0.000223514
0.000420402
0.000265477
0.000103372
0.000174649
0.000804543
0.00956392
0.00106579
0.00106945
0.00153628
0.0102637
0.000954774
2.11742e-150
0.0017116
0.00181724
0.000514485
6.05338e-05
0.00353748
3.09837e-05
0.000254368
0.00134629
0.000677267
0.00369382
0.0180338
0.00156158
0.000241816
0.00543167
0.000449073
0.00356511
4.01722e-05
0.0164484
0.00104103
0.000137156
0.00166367
0.00124132
0.0012004
0.00439381
0.00505937
0.000191038
0.000222821
0.00268105
4.93573e-151
0.00355128
0.00206071
0.000150672
0.00745967
0.000269216
0.000465791
0.00122723
0.000491965
0.00272899
0.00524583
0.000503544
0.00127284
0.00054794
0.00046753
0.000391119
0.000464636
0.00169828
1.19474e-141
0.000228685
0.000508813
0.000155375
8.0259e-05
0.000377748
0.016602
0.027475
0.014967
0.0162035
0.0071005
0.0055335
0.008567
0.0115
0.00985164
0.00085088
0.0069105
0.0112161
0.014467
0.000409194
0.0016255
0.008872
0.008072
0.00545
0.0038185
0.006282
0.0100705
0.0125035
0.0060305
0.0059105
0.0003685
0.0072085
0.0126385
0.01264
0.0136685
0.0018205
0.0133258
0.0007635
0.00323
0.00383664
0.00214444
0.0128235
0.0336128
0.00682
0.0035455
0.0082605
0.0166005
0.0094585
0.0116185
0.0026035
0.001015
0.007772
0.0075655
0.0092155
0.010702
0.0114785
0.00724106
0.0115135
0.001442
0.0083205
0.00776124
0.0228223
0.013817
0.008765
0.001642
0.00448647
0.007182
0.005025
0.003995
0.000636512
0.002417
0.011945
0.0073005
0.007972
0.0109935
0.0121035
0.0093305
0.0083955
0.001447
0.00735747
0.0085935
0.000217838
0.0032805
0.0075305
0.010305
0.0149505
0.00510091
0.0117405
0.013062
0.0127435
0.0092535
0.0141923
0.00099
0.005222
0.0086905
0.00127799
0.0051705
0.00324705
0.00012
0.0034435
0.0008185
0.000582
0.00474201
0.002625
0.0061705
0.005227
0.0060135
0.0020805
0.0105955
0.00296357
0.000523792
0.000138096
0.000310225
0.00188817
0.00243859
0.0141727
0.000164242
0.0056831
0.000287843
0.00564254
0.000239543
4.49428e-05
7.22785e-05
2.31748e-150
0.000241116
0.000223059
1.18533e-150
1.15649e-150
0.00446418
6.90457e-05
1.33754e-150
0.0124161
0.0128724
1.14872e-150
0.000383616
1.41535e-150
0.0025513
1.23675e-150
0.000137769
0.000104399
1.28786e-50
0.000157446
0.000902934
0.000191388
0.0131998
7.53749e-05
0.00275099
0.000120755
0.00335164
0.00331337
0.00939607
0.00145119
0.000264379
0.00270894
0.00373651
0.0105699
0.000114637
0.000483885
0.00135767
1.51317e-150
0.00622484
0.000355304
0.000975214
1.30962e-150
2.68193e-150
4.223e-05
0.000789755
0.000742919
0.00236018
0.00698004
9.95402e-151
0.00186634
1.086e-150
0.00995784
0.0032493
0.00106981
0.000138297
2.11553e-150
0.000225161
0.000276901
0.0107593
5.61703e-150
0.000680257
0.000126905
0.000241648
1.29952e-150
0.000806783
0.000212435
0.000121391
0.000559761
1.15048e-150
0.00340481
0.000408506
0.0101069
0.000144717
0.000247892
7.54153e-150
0.00109227
9.07055e-05
0.00126241
0.00121864
0.00104633
1.23674e-150
0.00188551
0.00058859
3.39532e-150
0.00922644
1.64702e-31
1.04558e-150
0.00649532
0.00106017
0.00455275
0.0125673
0.0013062
0.0093254
0.000710525
0.000328679
3.00461e-47
0.00108731
0.000256564
0.000101551
0.00498321
0.000533471
5.58163e-150
0.00326734
0.000857525
8.66939e-151
9.47672e-151
0.00100634
0.000330243
3.58276e-05
0.000450341
0.000714309
6.0579e-05
0.00141984
0.000425756
6.81775e-151
9.85905e-151
8.27451e-151
0.00504288
0.000202565
0.000681904
0.00203389
0.000133921
0.000467583
0.00400033
0.00345563
0.00053769
2.75625e-150
0.00130536
0.00981339
0.000387079
2.19922e-150
8.94919e-151
0.000224592
0.00951975
1.64208e-150
9.22361e-106
7.57839e-151
7.50025e-05
0.00257998
6.48096e-151
0.00552247
0.000972273
6.09367e-151
5.28851e-150
0.00495722
0.00649095
1.2733e-150
0.000841735
0.000862666
0.000253824
2.30679e-150
0.000333622
0.00443189
0.000596753
5.51726e-151
2.02733e-150
1.01148e-150
0.00134829
9.87694e-151
0.00254266
1.71973e-150
7.74972e-151
5.34385e-151
0.00014958
0.000127465
0.00122359
0.00134484
0.0107282
0.0079373
0.000280549
0.0023795
6.6196e-151
5.41388e-05
0.000717201
0.000105342
0.00028012
0.00172646
0.00153955
0.0120754
0.00104518
0.00104923
0.00177376
0.0113942
0.00013696
0.00177219
0.000301523
7.616e-151
0.00106822
0.00190511
0.000167226
0.000405685
0.005618
0.00460921
4.15649e-115
0.00026989
6.16619e-05
0.000715564
0.000887424
0.00179107
0.00623821
0.00167667
5.99876e-151
7.65839e-151
0.00123693
7.41268e-05
2.9871e-150
0.00719707
6.07044e-05
0.0148541
0.0124854
0.000109513
0.009743
0.000526844
3.09718e-81
0.000725505
0.000167454
9.56435e-05
0.00511493
2.96167e-150
0.00545469
0.000465406
0.00053971
0.000201933
2.25673e-151
9.58387e-151
3.69915e-151
0.0029186
0.0163422
0.00197062
2.50373e-151
0.000124266
0.00124261
0.000280018
0.00725692
0.000285398
0.00359968
0.0019503
0.000251116
0.000138998
0.000145145
0.000331518
0.000805919
4.66155e-150
5.94388e-151
0.000526405
9.23655e-151
0.000184475
0.000199162
0.00143875
0.000594192
4.7004e-151
0.00130223
0.000159961
2.8427e-151
9.41497e-102
0.00183427
6.00011e-06
0.000420857
0.00018058
1.5995e-22
0.00064952
0.00207865
0.00012723
0.000210538
4.07317e-124
7.68663e-05
0.0012255
3.78662e-05
0.0295205
0.000509309
0.00653463
0.000121743
0.0198155
0.0140805
0.0045235
2.73235e-152
0.0210185
0.0117905
0.007167
0.0171235
0.01821
0.0213485
0.009507
0.0219555
0.0145855
0.012937
0.003952
0.0031335
0.0002907
0.013487
0.0058905
0.0098685
0.0103538
0.020692
0.0139155
0.0121123
0.00146752
0.0135055
0.02024
0.013647
0.0057055
0.0173421
0.0002485
0.0071405
0.00217205
0.015776
0.0157055
0.000273717
0.016762
0.0192485
0.0144905
0.0007805
0.0082205
0.008212
0.010347
4.6441e-152
0.0058
0.0122655
0.016555
0.0158055
0.013652
7.80112e-153
0.0066755
0.0102555
0.018777
0.0075735
0.010225
0.008312
0.016907
0.00336115
0.014657
0.0074755
0.0160135
0.00014514
0.0130585
0.0134885
0.0149605
0.000249534
0.004985
0.016644
0.01168
1.89601e-134
0.0111705
0.0128335
0.009602
0.000205716
0.00252
0.0098905
0.0132735
0.003065
0.000265234
0.00894
0.0155535
0.012712
0.016205
0.0192955
0.0146855
0.00013
0.007657
0.0124285
0.0112185
0.00198702
0.00413547
0.004095
0.0250205
0.00632781
0.0150685
0.000907
0.012957
0.0002905
0.0057865
0.0020105
0.013
0.0206535
0.0114155
0.0136435
0.016647
0.00577089
0.002802
0.009082
0.00513225
0.0091255
0.0041135
0.0028955
0.0127605
0.0010505
0.005302
0.0077535
0.0063635
0.0132285
0.0103355
0.010457
0.0077805
0.00583751
0.0023035
0.003335
0.00988
0.0111785
0.002072
0.0066635
0.00744012
0.0065635
0.000277
0.0078735
0.0061155
0.00469628
0.00305727
0.008942
0.008515
0.0103418
0.00780027
0.0110035
0.004225
0.0086485
0.01185
0.013032
0.00331681
0.00277
0.009842
0.00407639
0.003492
0.0166155
0.009045
0.0098655
0.0037905
0.00159192
0.001767
0.01417
0.001455
0.0003805
0.0215518
9.25254e-150
2.17548e-150
0.00167109
0.000165456
0.000359122
0.0149767
0.00043631
4.54971e-05
1.63559e-05
0.000182388
0.000516916
3.12864e-05
1.43662e-150
0.000205015
1.7649e-150
0.000272094
0.018056
0.0211245
0.000229934
0.000140615
0.000132572
0.000831732
0.00188844
0.00434799
0.000597694
0.000848361
4.13051e-150
8.28101e-63
0.000128537
1.07485e-150
0.000128683
9.72257e-05
0.00114857
0.0174146
4.83367e-05
1.85107e-150
1.43904e-150
0.00206051
0.0129244
0.0203074
2.51242e-149
0.000278394
0.00053166
0.00113909
0.000197067
0.00044163
0.000679691
0.00464238
0.000221876
0.000640889
0.000622137
0.00358725
0.0129529
0.00417938
0.00207161
6.07166e-05
0.000250841
0.000114995
9.04028e-05
0.000612186
1.03626e-149
0.00366436
0.00455937
0.000438884
0.00408278
0.00454214
0.000708796
2.01794e-150
6.06221e-05
0.000213818
9.28935e-151
0.000409753
0.0028804
9.94821e-151
8.03241e-06
1.47933e-49
0.00214937
0.000335151
0.000913326
0.000295348
4.37981e-05
9.91665e-151
0.00017894
6.96442e-05
0.000870033
0.0021261
0.0206093
0.0142134
0.000162544
0.00210403
0.0187846
0.000199322
0.00586693
9.19349e-151
1.10664e-150
0.000106724
8.46164e-06
0.000326266
4.75102e-150
0.000140209
0.0310084
4.63448e-05
0.0159872
0.00122837
0.00798015
8.46212e-151
0.00302068
0.000463962
5.69581e-150
7.9842e-05
0.00635799
0.027969
0.00596907
0.000709222
0.0181171
5.32609e-43
0.00136476
6.03899e-151
0.00407669
0.000649697
2.207e-05
0.0201613
0.0126748
0.000853635
0.000388217
0.000152858
0.00410215
0.00229837
0.000211771
0.0022076
0.000431773
0.00267926
0.00178071
0.0127656
0.000216351
0.000236628
0.00320221
6.34632e-151
7.82455e-151
0.00239372
6.06436e-36
0.00140787
4.60052e-151
4.2972e-151
6.88943e-05
0.00104577
0.000813963
0.00265976
0.00047128
1.87675e-150
6.37657e-05
0.020741
4.27541e-151
0.0208904
0.000155579
7.22386e-151
0.000162593
0.00117759
0.000841985
0.000135827
0.0220341
0.0213253
3.97712e-151
0.00197207
5.73069e-05
0.000744658
0.000448027
8.89723e-05
0.0187944
0.000571889
0.000192203
0.0171971
0.000731133
0.00063345
7.27152e-151
0.000362075
1.28543e-150
0.000702429
6.65458e-05
0.00141668
0.00198786
0.00144794
4.84516e-151
0.0155152
3.71462e-151
2.74934e-151
7.53002e-151
3.73417e-151
8.37427e-05
0.00430661
0.00253532
1.66303e-05
1.36616e-150
0.000125998
0.000551916
5.34471e-151
0.00149135
0.000737937
0.000109463
0.000280954
0.00153826
0.00722951
0.0266166
0.000205328
0.0122512
1.69509e-151
0.00801374
0.029351
0.000648896
0.000828231
3.30706e-05
0.00353034
0.000169107
3.68328e-151
0.0104497
0.0115944
0.000427128
0.000445984
0.00265382
0.000469072
0.00366067
0.000362696
0.00878189
6.11321e-05
0.025965
0.00712766
0.0035295
0.00421584
2.18697e-81
0.0257985
0.0127605
0.0337435
0.0087705
0.0243815
0.0097055
0.031227
0.056407
0.0320935
0.030962
0.0231755
0.0011018
0.0213035
0.005842
0.0314185
0.022767
0.0296205
0.018772
0.0261435
0.0312985
0.020522
0.0199855
0.01837
0.0166155
0.0310055
0.0045985
0.0301985
0.0095905
0.030795
0.0247355
0.0034905
0.0046185
0.0128255
0.0217855
0.00744106
0.013162
0.03843
0.0252805
0.00744692
0.0262705
0.0227305
0.0133455
0.000529937
0.0191355
0.01383
0.0286956
0.0228958
0.0183535
0.0240585
0.003215
0.000532
0.0249515
0.0219105
0.00363468
0.0286085
0.0210605
0.028025
0.00330642
0.0181585
0.0266647
0.029325
0.00277683
0.0172585
8.64486e-05
0.0163135
0.0016185
0.00801204
0.0196705
0.0308805
0.0305485
0.020747
0.0137935
0.0277574
0.0075455
0.024812
0.0169637
0.0031105
0.0146935
0.00161943
0.023722
0.020682
0.0279705
0.0225185
0.00589578
0.0254785
0.0139805
0.0268
0.02534
0.00531578
0.0032585
0.029005
0.0148405
0.022742
0.0235925
1.68965e-152
0.0183555
0.0178055
0.0198435
0.0029105
0.026127
0.022712
0.006332
0.0079205
0.010135
0.0206355
0.00765
0.025422
0.0233855
0.024837
0.0082935
0.0146305
0.0191185
0.02158
0.0005785
0.012217
0.013987
0.0096785
0.0172655
0.018972
0.0170585
0.0127235
0.020967
0.0044885
0.0032905
0.024437
0.0147505
0.0268905
0.0188555
0.0107613
0.0166255
0.0190105
0.0240535
0.003367
0.023625
0.011097
0.0137655
0.0142335
0.019028
0.0044855
0.072412
0.022405
0.00995
0.020502
0.0172913
0.0332805
0.0053735
0.01273
0.0018755
0.020727
0.0067435
0.00068
0.0099305
0.00979
0.0230705
0.0124635
0.00339503
0.0025285
0.00106842
0.000270756
0.00322929
0.000464049
1.4687e-150
2.0671e-150
0.000412984
0.00019762
1.84757e-05
0.000302188
1.03729e-150
0.0067774
0.000148106
0.00237699
0.00156187
1.36006e-150
2.88835e-150
0.000360158
0.00268833
3.33717e-05
0.00552429
6.29422e-05
8.87289e-05
9.10984e-151
0.000367143
0.000726971
5.48265e-05
0.00119633
9.98583e-151
1.4229e-150
0.00205982
0.0131854
0.00016757
0.000514856
0.00111831
0.00728618
0.000459852
0.000697274
0.000344344
0.00023409
0.00122512
0.0020622
0.000103131
0.00591985
0.00477806
0.0110217
0.000552276
0.000125072
0.00502026
8.66567e-151
0.00350645
4.99152e-05
0.000587827
0.0129725
0.0104847
0.00141879
0.00062676
0.000218637
0.0382409
0.00100706
0.000695577
0.00101655
0.000497596
0.000243773
6.45415e-151
7.55773e-151
6.84593e-151
1.00117e-150
0.000910945
0.00185027
6.24329e-151
8.17086e-05
1.3993e-150
0.000855115
0.00022921
9.55158e-151
0.00753492
7.07979e-151
7.76719e-150
0.0371744
1.8083e-05
2.41811e-150
0.000294274
0.00461992
4.61271e-05
3.3472e-150
8.36983e-151
0.000156101
0.0217002
0.00126766
3.67544e-05
0.00243251
0.000967318
0.000456405
0.0315345
0.000419136
0.00395234
0.000312066
2.51732e-150
0.000138773
0.000110817
6.80767e-151
0.00177954
0.000219829
0.0264764
0.00149115
0.000306122
0.000172359
0.0225818
0.00493794
0.000703579
0.000132241
1.46582e-150
0.00143569
4.51019e-151
5.70626e-151
0.00016735
3.90297e-151
0.000359244
0.000321335
0.00666742
0.00190426
0.00112741
7.23695e-05
0.000237615
0.000687439
2.62491e-151
0.00183378
7.75265e-05
0.000653626
0.00330301
0.00882268
0.0230436
0.00361401
0.00120805
0.0021038
0.00348241
0.000108638
0.000866216
6.9629e-05
0.000148874
0.000323926
7.13526e-40
0.00304359
0.00303535
3.18827e-150
1.81856e-150
0.00643135
0.000855261
0.001103
8.52438e-06
0.0834985
1.27346e-151
0.0645385
0.0587285
6.45888e-151
9.63267e-05
0.0685685
7.1589e-152
0.026312
0.0442485
0.0021511
0.081347
0.02647
0.000203527
0.000425869
0.000121965
0.00249671
0.0465805
0.0352
0.031932
0.11481
0.00502831
0.037962
0.0208055
0.032417
0.0336055
0.0550135
0.00776298
0.00741367
0.0178666
0.027415
0.077935
0.039022
0.016032
0.0278055
0.0425482
0.0567185
0.0464985
0.035712
0.007102
0.037842
0.0424735
0.0259255
0.0127471
0.0138455
0.00374793
2.19017e-152
0.0381664
0.026317
0.0065435
5.91428e-05
0.0129505
0.0120785
0.0233835
0.0063205
0.04442
0.0244885
0.0060485
0.039317
0.0412405
0.0416106
0.037937
0.041082
0.009357
0.008702
0.0455955
0.0387605
0.0443955
0.0279685
0.0163685
0.030782
0.028332
0.0417269
0.035185
0.019522
0.0003055
0.0381428
0.0175735
0.0430555
0.0419505
0.0014535
0.0349755
0.0524885
0.0123455
0.0432977
0.010887
0.0160005
0.0008135
0.0473205
0.0189585
0.0220355
0.0017535
0.0140635
0.019745
0.0271285
0.0137341
0.007972
0.023012
1.5596e-95
0.007282
0.022947
0.022717
0.0076585
0.040442
0.0099135
0.00532
0.0147135
0.034307
0.0029585
0.00282605
0.0134267
0.037957
0.0339055
0.023742
0.0328155
0.0243519
0.0012005
0.021602
0.0091985
0.00764859
0.0399155
0.034072
0.0372385
0.017807
0.0354555
0.0512735
0.0359085
0.0300585
0.030597
0.030807
0.0208655
0.031757
0.061045
0.0294885
0.039002
0.0128635
0.0007755
0.0097535
0.0113705
0.0195735
0.02876
0.036745
0.014597
0.024747
0.0054935
0.047212
0.0197435
0.0189235
0.0266485
0.027892
0.0263452
0.017593
0.024665
0.0120248
0.0288636
0.0285802
0.0226235
0.0055105
0.029422
0.0276305
0.012905
0.011207
0.006047
0.0182067
0.012782
0.0037835
0.0315755
0.019392
0.0056035
0.00601862
0.0196455
0.020287
0.002072
0.0296755
0.0356955
0.02873
0.0355455
0.0088335
0.016412
0.0183405
0.0204267
0.0147085
0.0094035
0.0118785
0.0293755
0.009967
0.0002105
0.0326185
0.00303728
1.47434e-150
1.36908e-150
0.000294851
0.000368286
4.45998e-23
0.000152127
1.81535e-150
1.88846e-150
3.87731e-05
0.00584102
1.32805e-150
0.00107385
0.00110914
0.00149225
1.18995e-150
1.49051e-05
1.49963e-150
0.00269456
8.84044e-151
0.000730628
0.00795363
2.27986e-05
0.000613841
1.19778e-150
1.24404e-150
1.31824e-150
9.88891e-05
0.000789662
0.000747951
0.000190001
0.000427958
0.0345636
1.4397e-150
0.0541354
0.000148421
0.0123651
0.000363255
0.000888358
0.000185574
0.00240967
0.000740208
2.22928e-150
0.0347656
0.00350097
0.00356658
0.000158097
0.000149691
7.77332e-05
0.000173675
6.54914e-05
0.000169477
0.000114833
9.88786e-05
0.00349472
0.00010657
9.19117e-151
0.000190421
0.0117703
0.00117608
0.0157845
0.00126994
9.29779e-05
6.86509e-151
0.00105348
0.00010664
0.000416009
0.000305364
0.000766835
0.000281599
0.000140743
0.00404596
0.00489428
6.61451e-151
0.000262792
0.0403546
0.0079156
0.00013629
0.00806297
8.2725e-05
6.84942e-151
0.00048995
1.34862e-150
0.00248262
0.00783074
0.000982678
0.000180781
0.00073437
0.000857484
7.98287e-151
0.0197449
0.000402539
5.29276e-151
0.000364432
0.000177321
0.00397672
0.000345516
0.000487993
4.34112e-151
0.000724253
0.000623251
0.0322129
0.0013901
0.0018849
0.000241186
0.000223989
0.000203714
4.87705e-05
0.00583471
0.000872677
5.11528e-151
1.65086e-26
0.000192219
5.39778e-151
0.00475853
0.00660775
0.0305055
3.72468e-150
0.000979369
0.000833027
0.000227867
4.25242e-151
0.00497231
3.73573e-151
0.0571708
0.0173105
0.00924654
0.00023784
0.000762454
5.65732e-05
6.72213e-05
0.000157587
0.0670535
9.82306e-05
0.000197631
0.0156037
3.24062e-150
0.000206434
0.00562609
0.00847941
0.000183002
0.00124289
5.90093e-05
0.000515956
0.000445097
0.138245
0.051744
0.0825835
0.000990173
0.00134322
0.110333
0.0596433
0.096477
0.00151451
0.000143435
0.088862
0.115565
0.165915
0.131848
0.072227
0.000889957
0.0964585
9.30642e-59
0.00585018
0.145572
0.0910155
0.0434605
0.125192
0.0612116
0.000221092
0.145478
0.170467
0.0198485
0.0067505
0.0662055
0.07716
0.049902
0.065155
0.084207
0.0736155
0.0561985
0.0939305
8.60535e-05
0.0717485
0.076492
0.0662735
0.0686155
0.0552905
0.087292
0.0412835
0.0427312
0.0802305
0.0748755
0.110197
0.0609321
0.054037
0.077825
0.089822
0.0459055
0.0681385
0.025627
0.0928635
0.060755
0.0308355
0.0719285
0.081652
0.050467
0.000610839
0.10284
0.06811
0.044395
0.06873
0.000425364
0.006317
0.0719535
0.061802
0.064307
0.061502
0.0722455
0.051912
0.0640763
0.058837
0.0435605
0.0128285
0.05477
0.0386985
0.117882
0.0239677
0.00285741
0.0106505
0.0350935
0.080087
0.150095
0.141248
0.010152
0.055257
0.029162
0.064717
0.009297
0.02241
0.00210713
0.064577
0.0464912
0.085857
0.0155455
0.066527
0.14309
0.0354705
0.058055
0.0574885
0.0227305
0.0359355
0.070562
0.0585213
0.0732985
0.0348335
0.000201289
0.036482
0.068907
0.070792
0.00273311
0.0322235
0.0587535
0.066345
0.064145
0.004985
0.001455
7.17366e-131
0.0256685
0.000190135
0.117208
0.0280355
0.0656335
0.047547
0.077607
0.080967
0.00478203
0.0210385
0.053492
0.0572955
0.0558435
0.0017105
0.0717805
0.0690105
1.4392e-97
0.0708735
0.0433636
0.0558135
0.037977
0.107482
0.010822
0.0659185
3.53568e-126
0.0648955
0.000459195
0.059662
0.060882
0.0701602
0.084877
0.053827
0.0341216
0.0584755
0.055967
0.045912
0.068015
0.0041335
0.017127
0.0416335
0.003792
0.0337135
0.0420735
0.0989885
0.0398505
0.0643235
0.0596985
0.019122
0.057555
0.0800038
0.0441911
0.0521355
0.0271455
7.55485e-05
0.0225015
0.0222905
0.00955703
0.02943
0.092222
0.063217
0.0635405
0.0197263
0.0153803
9.24818e-72
0.095937
0.006795
0.0560245
0.0682735
0.032682
0.032732
0.0680855
0.0541499
0.11931
0.041332
0.01613
0.0304735
0.045362
0.039622
0.0484735
0.0479335
0.129652
0.032577
0.053592
0.0457385
0.0132485
0.068397
0.0626135
0.031222
0.0138885
0.0482155
0.06198
0.0534485
0.000220738
0.031132
0.0377505
0.0624881
0.037705
0.0716285
0.0674535
0.018047
0.039587
0.046767
0.061347
0.0683635
0.112162
0.055907
0.036197
0.055427
0.0654685
0.042835
0.0342485
0.0631585
0.025747
0.049945
0.104765
0.0452871
0.0607005
0.0245335
0.027912
0.0777505
0.0419185
0.034187
0.0402555
0.0519605
0.0452585
0.059967
0.059267
0.052387
0.0360205
0.027497
0.0028005
0.0421558
0.0576855
0.021392
0.0579705
0.0102585
0.064582
0.0629635
0.0637061
0.050172
0.0564705
1.38772e-151
0.0660185
0.0135585
0.0121655
0.0440855
0.0564285
0.0284235
0.0504621
0.0354
0.0520035
0.057167
0.037137
1.02045e-151
0.0504035
0.015617
0.0542507
0.022017
0.0272435
0.009357
0.000847057
0.132825
0.0244043
0.0813505
0.0570355
0.0607655
0.0628
0.0940855
0.0237055
0.0370205
0.050102
0.04961
0.0416821
0.116648
0.02623
0.0490105
0.0121662
0.0348905
0.0567505
2.22839e-152
0.0403335
0.006977
7.19475e-152
0.0054135
0.053847
0.0578685
0.0692155
0.0485805
0.052162
0.0940805
0.083327
0.05244
0.040137
0.060093
0.0121735
0.0020735
0.012337
0.0154435
0.0387055
0.044752
0.0563206
0.0783955
0.0594655
0.0839005
0.057405
0.0425135
0.0400335
0.022247
0.0427985
0.053812
0.0175235
0.04276
0.043222
0.0997385
0.054335
0.0272205
0.0388555
0.042652
0.013732
0.0375205
0.043812
0.0463351
0.0289755
0.0152215
0.0266985
0.0447435
0.0539905
0.04597
0.0335985
0.046512
0.117017
0.0711
0.0135
0.046549
0.0104855
0.00101356
0.0394405
0.00711201
0.05024
0.002352
0.0379635
0.000313384
0.022442
0.0571235
0.0539355
0.025092
0.046817
0.055412
0.008342
0.0512185
0.0511019
0.01361
0.0533405
0.0263505
0.0532935
0.0142255
0.014035
0.0458105
0.018302
0.056442
0.0315972
0.001937
0.0001135
0.033065
0.051387
0.0368855
0.0371885
0.114891
0.0362655
0.0284835
0.0055305
0.0051135
0.036032
0.0530421
0.0102585
0.052587
0.0320885
0.000409962
0.052547
0.0234605
0.0201305
0.0492614
0.0362111
0.0041835
0.047805
0.0311548
0.0356055
0.0604535
0.000592
0.038892
0.0160835
0.00651
0.0192735
0.043417
0.0170215
0.0755535
0.00166201
0.0389605
0.015877
0.0493285
0.0238555
0.0303596
0.01199
0.0109035
0.0769305
0.0480955
0.00810203
0.0132381
)


// ************************************************************************* //
