/*--------------------------------*- C++ -*----------------------------------*\
  =========                 |
  \\      /  F ield         | OpenFOAM: The Open Source CFD Toolbox
   \\    /   O peration     | Website:  https://openfoam.org
    \\  /    A nd           | Version:  7
     \\/     M anipulation  |
\*---------------------------------------------------------------------------*/
FoamFile
{
    version     2.0;
    format      ascii;
    class       vectorField;
    location    "0.7/lagrangian/reactingCloud1";
    object      U;
}
// * * * * * * * * * * * * * * * * * * * * * * * * * * * * * * * * * * * * * //


2545
(
(118.374 11.569 2.29005e-05)
(112.051 13.7002 0.414343)
(124.507 10.9633 0.000797666)
(130.445 1.996 2.29567e-05)
(127.405 11.9058 0.000404372)
(121.747 19.0282 0.000479188)
(131.447 11.3195 0.000123033)
(132.959 11.5851 -5.93667e-05)
(129.826 21.6489 0.00211544)
(136.68 6.67134 -5.31467e-05)
(137.472 15.38 -0.00037644)
(139.325 5.05847 -0.000233916)
(140.309 4.17384 -0.000246684)
(143.972 14.9522 -0.000478298)
(143.713 7.58674 -2.66686e-05)
(150.413 18.1428 -0.00382982)
(149.784 12.5765 -0.00152204)
(154.099 14.722 -0.00142642)
(156.713 14.5738 -0.000291046)
(147.98 4.30784 -6.95446e-06)
(158.572 9.89998 -0.00316213)
(155.528 6.90319 -0.0043567)
(158.579 6.2488 -0.000930084)
(150.751 3.15764 7.81418e-06)
(70.2428 -1.92634 1.76375)
(156.258 2.84907 0.000273269)
(154.398 2.74916 0.000180872)
(156.22 1.08324 0.000421547)
(154.802 1.70395 -0.000858895)
(151.771 0.94801 -0.000176786)
(154.625 1.08655 -0.000346362)
(153.982 1.1242 -0.000259126)
(153.655 1.00613 -0.000263234)
(153.397 -0.247759 -8.57742e-05)
(154.152 -0.21217 6.60228e-05)
(153.046 0.602542 1.71602e-05)
(153.976 0.14218 -4.71088e-05)
(153.249 0.476122 3.96217e-06)
(153.363 0.394899 -4.37336e-05)
(153.416 0.324287 3.06894e-05)
(153.151 0.244105 6.69613e-06)
(153.302 0.263395 7.92847e-06)
(153.396 0.201733 9.00174e-06)
(153.502 -0.12122 2.80889e-05)
(153.301 0.175971 4.36984e-06)
(153.415 -0.0781738 1.87896e-05)
(153.394 -0.194275 -7.19346e-07)
(153.351 0.140554 -3.37493e-07)
(-3.75212 -1.09751 -1.66071)
(-25.7233 -6.06444 3.09825)
(129.709 -45.3394 2.82796)
(200.09 -42.7073 4.79166e-05)
(186.027 -42.3491 6.9572e-06)
(41.2696 -4.48789 -3.83015)
(209.275 -25.7178 0.000469338)
(145.123 -40.1355 -1.25809)
(163.697 -34.4421 -1.40422e-05)
(117.353 -31.7841 1.51647)
(145.437 -41.2212 -4.10958)
(160.01 -30.5094 0.00059621)
(127.95 -31.3153 0.296079)
(115.608 -41.0577 1.88783)
(165.497 -11.9171 0.000985049)
(142.604 -24.9362 -9.39623e-06)
(159.627 -13.935 0.000477809)
(124.371 -25.1564 0.276989)
(92.7786 -18.3173 3.15043)
(105.779 -27.2401 0.211975)
(130.545 -23.4704 -3.4531e-05)
(104.254 -25.2 1.96743)
(128.868 -20.9703 -8.01787e-06)
(114.15 -21.2654 -0.367504)
(130.604 -16.6939 -3.30584e-06)
(138.028 -9.26741 0.000451556)
(136.806 -7.32731 0.00100831)
(89.8443 -9.16943 1.37144)
(106.739 -20.7802 -0.581715)
(105.346 -13.6148 -0.12268)
(106.879 -13.2746 3.11922)
(87.719 -13.7883 -0.391382)
(119.566 -10.6638 0.00178617)
(127.151 -3.79431 -2.89288e-06)
(107.348 -10.388 0.00285075)
(122.316 -6.10007 0.00068149)
(114.976 -8.31767 -3.24871e-05)
(89.9833 -4.38147 -3.3737)
(113.338 -6.92456 0.00285915)
(115.309 -5.90667 -0.00012949)
(117.447 -4.76043 -2.98126e-05)
(113.174 -4.91265 0.00198634)
(104.451 -3.07115 0.00421687)
(118.505 -2.62447 0.000486014)
(111.8 -3.00203 -1.77658e-06)
(111.8 -2.4805 0.000375667)
(117.681 -1.69491 0.000196399)
(113.014 -1.50481 -5.8333e-05)
(110.612 -0.420896 -4.82119e-05)
(112.511 -0.391046 -4.82451e-05)
(115.812 -0.487026 7.49078e-05)
(113.526 0.31428 -1.52647e-05)
(105.301 -0.571437 3.71091)
(110.238 2.7809 0.00156527)
(112.677 2.16221 -7.10898e-05)
(117.092 1.23769 -2.11565e-06)
(110.888 4.04136 -2.86794e-05)
(117.027 2.13282 -4.83084e-06)
(117.359 2.46674 -1.495e-05)
(112.779 4.75581 0.0016764)
(115.226 4.40418 0.000304267)
(119.799 2.77762 -8.40091e-06)
(120.328 3.10662 0.000164209)
(110.897 6.51162 0.000192611)
(111.573 6.87287 0.00185866)
(110.652 7.40423 0.00163453)
(114.899 7.79256 0.000633823)
(110.954 8.70377 0.00131636)
(122.809 5.40344 -8.63467e-06)
(119.517 8.91101 3.98985e-05)
(115.055 11.1534 0.000319427)
(347.09 -5.86816 -7.51141)
(324.8 -10.8847 -11.5532)
(324.321 -19.4273 -1.06507)
(324.606 -14.669 0.317946)
(339.89 -22.3012 -2.19957)
(301.749 -27.1871 0.611562)
(292.262 -31.289 -2.76562)
(285.671 -11.1086 -0.00137645)
(280.458 -22.2751 2.31593e-05)
(288.042 -30.3241 1.48121)
(265.006 -22.201 0.000132138)
(226.218 -53.6795 -0.904323)
(207.263 -44.4138 0.00179403)
(181.126 -53.0069 -0.117251)
(433.005 0.791845 8.00926e-06)
(428.548 0.50943 0.794781)
(430.701 -0.389193 -0.729658)
(425.323 0.742696 -7.85715e-05)
(421.791 -4.09572 -2.94051)
(392.979 -3.41809 -0.0714618)
(389.094 -4.91393 -0.822795)
(384.467 -2.53469 -0.000166844)
(380.854 -19.9774 -11.1499)
(378.864 -2.79567 -9.37069e-07)
(368.635 -2.16379 1.40551)
(365.513 -2.94731 -1.80509e-05)
(363.936 -12.6276 4.26991)
(431.84 -13.3263 -5.48423)
(441.764 -0.0613328 -2.61785e-07)
(431.221 -1.12702 11.6117)
(441.784 -0.0471233 9.14464e-06)
(439.516 -0.965218 -0.926041)
(425.497 -6.12137 2.32098)
(440.253 0.637379 -1.65224)
(423.012 -1.60597 -2.34894)
(445.133 -5.5207 -3.93207)
(441.631 0.0434181 4.20159e-05)
(442.067 0.0176291 4.30264e-06)
(438.112 1.61317 -1.30832)
(440.581 0.309697 2.52871e-05)
(377.702 7.01346 -16.1163)
(442.286 -8.47368 4.35263)
(437.013 -9.10575 -5.2927)
(429.572 1.52425 -2.51984)
(435.499 1.81557 9.4697)
(437.5 -0.714405 0.871052)
(436.059 1.01141 0.61466)
(433.408 5.5322 -5.74803)
(427.445 -5.07724 -0.69727)
(434.459 1.60973 6.65954e-05)
(431.914 -0.803819 -2.43977)
(444.802 -3.73394 -1.4014)
(443.147 0.259767 -2.44913)
(441.722 -3.49024 -8.58372)
(444.394 0.512783 6.67618)
(383.499 2.43343 -2.86219)
(437.636 -5.35522 2.27442)
(383.065 20.2879 -4.87685)
(446.14 -2.28986 3.48075)
(447.413 -2.647 1.03042)
(436.093 -0.286765 -3.62859)
(444.935 0.0371724 -2.65701e-06)
(445.544 2.23196 2.86109)
(434.912 -11.7671 10.8156)
(426.704 1.87045 1.96918)
(439.309 -7.45009 4.75621)
(446.119 -16.8594 7.14899)
(444.456 -9.0856 5.5082)
(443.729 -4.92571 -1.02204)
(449.233 -1.27543 1.6719)
(444.311 0.0111623 9.26759e-09)
(445.782 -5.12152 -7.44623)
(443.932 -0.00897226 4.36895e-08)
(435.878 2.26425 -0.777674)
(442.36 -1.57526 -1.43194)
(441.866 -0.137152 0.0205688)
(443.382 -0.0338108 3.03904e-08)
(443.626 -0.026936 3.00385e-07)
(443.025 -0.0544551 -1.11195e-08)
(442.851 -0.0617011 -1.38434e-08)
(443.436 -0.0223737 -3.59021e-07)
(443.141 7.03975 -5.20345)
(446.264 -14.9764 4.7302)
(441.205 -6.22269 -7.35798)
(446.412 -1.06227 -9.19736)
(444.146 1.61724 3.66463)
(456.331 -4.28289 -4.46657)
(454.293 -5.55633 6.48695)
(446.097 0.368204 1.5252)
(444.962 0.646517 0.188682)
(447.856 1.32301 7.62031)
(446.391 1.45118 2.56593)
(451.2 2.0084 3.26754)
(446.454 -1.75925 -1.17553)
(446.603 -0.461419 3.17257)
(447.251 3.39399 -3.49616)
(450.521 -1.10098 -5.09959)
(444.589 -1.22421 -1.82888)
(355.952 -1.29295 -3.44505)
(363.504 15.2453 3.46181)
(419.717 1.50193 2.14736)
(448.602 -0.996707 -2.54114)
(447.338 0.00749491 3.94061e-07)
(436.055 -0.305541 3.4142)
(435.861 -3.43216 -1.57771)
(447.057 0.0131906 7.7593e-07)
(404.736 3.90825 3.32486)
(433.23 0.314846 0.367056)
(446.916 0.0142535 -1.29164e-06)
(443.242 -4.36847 -2.64723)
(447.327 0.008087 3.24834e-07)
(400.809 19.6827 -9.92352)
(450.173 -22.1482 -7.24388)
(433.546 -3.11328 -1.84224)
(422.627 -0.102817 2.7336)
(450.171 -1.70831 2.10726)
(447.398 0.00583588 3.98036e-07)
(359.309 9.51664 -2.37455)
(447.076 -1.3897 0.0806662)
(447.788 -0.622097 -2.01607)
(406.7 4.16031 1.36498)
(446.659 0.0267955 -2.10015e-07)
(435.762 -0.392899 -0.46765)
(398.069 9.94921 1.47648)
(447.227 0.00593421 1.68653e-06)
(372.608 8.38942 -22.6833)
(437.989 -1.02546 -1.98989)
(351.545 13.3674 -11.0433)
(434.569 3.31325 4.7153)
(449.433 -2.72784 0.355353)
(431.175 -0.637269 -0.482254)
(446.785 0.0204683 2.893e-08)
(438.055 -1.07346 0.679292)
(459.212 -7.76883 3.72038)
(455.672 -10.6457 -2.7963)
(372.463 12.6129 -9.24837)
(370.485 4.11792 -7.41749)
(446.103 0.0385717 -1.00093e-08)
(446.309 0.025202 -4.03835e-09)
(440.897 -2.18278 -1.90569)
(445.527 0.0589987 -1.16761e-07)
(445.778 0.0425402 -1.53891e-07)
(450.13 -1.43292 3.54228)
(445.493 1.41015 -0.38083)
(457.002 1.44862 -6.77464)
(448.264 0.0447728 -0.416339)
(447.17 1.90433 -2.86638)
(449.549 1.89757 -1.06899)
(446.675 -0.928522 8.5871)
(448.038 -0.0398774 2.34403)
(447.896 0.155098 -0.199423)
(448.767 -0.583487 0.704475)
(448.916 -0.1603 -1.38467)
(449.921 -2.03527 -3.05848)
(448.761 -1.54182 -2.6398)
(448.094 -0.144007 -0.100245)
(447.791 0.227918 -0.791398)
(448.267 0.533904 3.0457)
(445.565 -1.0387 2.03221)
(443.292 -0.0839898 2.96466)
(452.073 0.93257 2.68871)
(448.121 -1.35326 -1.04783)
(447.778 0.433499 -0.615747)
(449.487 -1.28257 -0.492186)
(448.275 -2.94008 -2.10747)
(442.639 -0.435912 -4.27918)
(447.702 0.882943 -1.37956)
(441.637 1.09656 -1.91617)
(447.865 -0.144675 -0.792188)
(447.106 -1.9858 -0.883645)
(446.417 0.333119 -1.06501)
(448.476 -0.744248 0.959349)
(446.677 -0.356105 1.29987)
(451.425 0.971782 -0.458581)
(450.684 0.581007 4.86015)
(448.038 2.71007 4.24004)
(447.428 1.13087 2.07142)
(447.914 -0.320245 -0.811997)
(446.963 -0.440085 1.50654)
(444.158 1.0978 7.0929)
(451.476 -1.55842 -1.20808)
(450.455 -2.48047 3.02913)
(415.094 -9.1927 9.22456)
(401.463 -1.37749 5.76692)
(360.313 6.36586 0.0561064)
(390.275 -1.60152 1.14152)
(405.226 -1.71275 -0.34143)
(384.565 1.31788 -3.5097)
(443.208 1.96179 5.1873)
(434.714 -0.0259677 1.2186)
(409.665 -4.50203 -6.61862)
(408.301 5.27364 -4.34673)
(447.364 -0.100147 4.008)
(438.683 1.28982 0.133875)
(447.881 0.00317948 1.46639e-07)
(437.12 0.0641298 -0.300812)
(451.022 0.768363 2.70576)
(358.22 12.5458 -5.42606)
(437.542 -11.5909 -8.43637)
(393.304 -3.21646 -2.06933)
(423.141 -12.7033 2.24464)
(444.109 -5.67511 0.818818)
(428.937 -0.191888 -0.0199576)
(418.903 -1.0885 0.419373)
(448.988 -6.02278 -0.0513986)
(420.026 -2.26302 -4.07846)
(447.965 0.00241359 9.60099e-09)
(413.889 -4.85541 -3.41691)
(446.762 -10.9303 -2.54772)
(452.74 -6.87216 -6.29238)
(422.85 2.1994 6.91522)
(447.856 0.0036891 -2.61811e-07)
(444.179 -4.36316 -3.53973)
(403.655 5.42099 0.0117943)
(373.803 15.0581 -8.07295)
(448.782 1.1633 -0.366268)
(447.335 -2.62447 -1.71713)
(369.124 19.4323 27.8687)
(438.899 1.4876 0.127741)
(449.141 -8.29263 -2.27388)
(430.563 -6.25924 -1.30484)
(410.509 -3.0598 -6.70977)
(435.99 1.26146 3.47022)
(427.371 -0.428152 0.102536)
(435.502 11.0543 1.94667)
(444.651 -0.888558 1.44309)
(448.314 -6.72694 8.4809)
(348.207 8.93151 12.6944)
(422.332 -1.36716 -0.62105)
(421.494 1.38882 2.5604)
(431.232 -17.3926 8.78061)
(446.977 -0.243398 2.01079)
(439.282 -2.56634 4.85227)
(447.685 0.00529322 3.55464e-07)
(448.435 -6.34027 -4.46532)
(426.877 -0.902756 1.65495)
(447.709 0.00431989 -4.02342e-09)
(455.212 0.75341 -0.0153905)
(406.022 0.627299 1.24923)
(441.071 20.1835 -0.974908)
(407.049 -8.45234 -5.62811)
(443.289 -0.329117 -1.02246)
(447.802 0.00247503 1.09569e-07)
(444.999 -1.90226 -3.25462)
(431.688 0.181158 0.519039)
(447.693 0.00387299 -2.58288e-08)
(446.957 0.201139 -0.144205)
(424.039 1.79667 1.03275)
(405.113 -1.59777 1.59397)
(447.549 0.00560559 -1.62035e-06)
(329.269 11.4504 -5.01519)
(447.244 0.00805279 1.17409e-06)
(447.52 0.00550146 7.94295e-09)
(408.661 -5.47137 5.59051)
(363.327 9.13722 -2.77517)
(447.73 -1.10946 -10.7526)
(447.753 -0.971569 0.535441)
(455.943 -10.0579 3.15709)
(447.552 -1.26722 -0.798764)
(448.781 -1.34236 -3.9033)
(448.667 0.946969 0.368876)
(452.921 -1.31516 1.87247)
(446.251 1.04256 2.74717)
(446.699 0.622331 -1.87807)
(444.194 1.02391 2.9635)
(445.604 -0.185221 -0.755003)
(447.303 0.180179 0.508749)
(449.381 -0.493126 3.76966)
(443.391 0.0525362 -2.93493)
(449.677 -3.0335 1.53683)
(447.94 0.081651 0.351825)
(453.648 0.703781 4.67203)
(446.159 -0.172761 4.77821)
(446.974 0.376505 -1.75961)
(449.723 0.110994 -1.65326)
(448.341 0.564199 -3.87598)
(450.165 -1.07352 -2.67289)
(447.475 -2.44301 -4.7968)
(448.923 0.307602 1.28405)
(448.755 -2.538 -1.44836)
(446.807 0.660998 0.789911)
(446.767 0.937339 -0.887257)
(444.784 -0.86755 6.93818)
(448.139 0.897304 -1.2464)
(442.368 0.98318 -5.50409)
(448.26 0.00866216 -0.262743)
(447.954 -0.0487912 1.6732)
(444.352 1.07468 -2.63178)
(448.985 -0.121945 2.22271)
(446.289 -0.113527 -0.338617)
(448.277 -1.94813 4.45742)
(447.536 0.162634 -2.90763)
(454.246 -0.489797 2.0705)
(448.284 -1.36478 -1.75477)
(448.61 0.147121 1.23437)
(445.446 -0.902153 -6.31666)
(444.803 -1.03034 5.19852)
(448.914 0.646407 1.30165)
(451.616 -0.311008 2.19609)
(447.304 0.415233 1.93445)
(450.363 0.292771 2.02086)
(448.495 -0.64133 -0.981711)
(440.244 3.71514 -4.90569)
(451.349 0.588084 -6.92964)
(446.247 0.677598 3.28681)
(444.826 2.05347 5.35018)
(447.523 -0.934912 2.31815)
(451.447 0.216448 0.702057)
(449.03 -1.15683 0.816551)
(442.475 0.0446612 1.37615)
(445.965 -2.86209 2.83136)
(448.666 2.58904 0.962957)
(450.803 -1.04313 -2.62216)
(452.51 -3.3553 4.72896)
(445.311 -2.12187 -5.22221)
(449.178 -2.32075 -3.20269)
(448.243 -0.285844 -0.112083)
(450.402 -2.77516 2.2156)
(448.11 0.00452226 0.169233)
(448.085 -0.550279 -2.74028)
(450.85 0.880898 -1.95988)
(447.375 -0.497375 2.17437)
(448.548 2.31154 -3.33284)
(450.357 -6.65284 -5.68621)
(445.745 -1.15066 2.07519)
(446.355 -0.755177 3.76509)
(448.356 -0.248539 0.890221)
(447.036 -0.561768 0.908491)
(448.003 0.188696 -0.291652)
(449.969 -2.48599 1.79301)
(448.971 -0.525551 0.64805)
(448.818 0.848154 1.07333)
(448.418 -0.271731 -0.960025)
(451.469 0.322885 1.26792)
(449.787 -0.425591 1.81782)
(445.546 2.45218 2.23986)
(450.604 1.46662 4.32097)
(446.23 5.83209 -3.74865)
(447.152 -2.22628 3.99485)
(448.942 0.787114 -1.79076)
(448.082 0.0471818 -0.0560705)
(448.326 -2.67532 -4.82584)
(448.396 -0.177481 1.05201)
(449.639 -0.65357 1.24023)
(366.333 -3.66349 0.539291)
(349.613 9.95705 1.35001)
(425.933 -11.2834 -5.68085)
(409.64 2.8221 0.483738)
(386.87 7.2357 11.7812)
(447.238 -1.71714 -1.5444)
(431.106 -3.36543 -5.08223)
(391.981 18.955 -19.2607)
(421.317 0.0199502 0.434651)
(416.183 -2.53066 -1.13771)
(446.996 -1.59623 -0.274406)
(334.214 -6.25111 -5.99425)
(360.408 0.294663 -5.77134)
(429.63 0.115753 -0.414643)
(388.953 7.34187 -3.70273)
(448.631 -2.70558 2.3454)
(349.077 21.9357 -7.14259)
(354.723 2.08546 -0.0663317)
(330.09 -3.13888 -0.242446)
(419.881 -0.682081 -1.13021)
(434.62 -5.27694 7.42744)
(430.276 -8.23963 12.0591)
(426.101 -0.515529 -0.739147)
(448.411 -0.327665 -0.120129)
(448.238 -3.24508 3.92642)
(296.367 9.24832 1.26121)
(365.609 8.99219 -1.5883)
(402.722 -2.08314 7.74331)
(374.421 14.568 -37.4105)
(441.743 7.18669 7.9185)
(450.977 -4.81342 -1.27173)
(444.519 -7.16009 -4.0595)
(451.179 -0.466281 2.39341)
(370.633 9.26352 -2.95736)
(415.81 -0.326958 -0.422955)
(443.225 -11.0711 -2.27244)
(428.442 2.52524 -2.71828)
(444.152 0.0950287 -2.86765)
(444.735 -2.68919 -0.849192)
(447.033 -0.798693 1.41986)
(447.791 -3.39245 0.792488)
(417.629 1.76655 -1.92746)
(448.673 4.20034 -10.4423)
(321.46 13.8468 -13.0534)
(398.139 0.0095756 -0.568048)
(456.68 -6.48059 -5.67848)
(447.215 -4.78025 0.980443)
(444.168 -1.09918 3.20949)
(447.511 -3.58498 0.837288)
(346.466 20.6914 23.0879)
(440.993 -16.9136 1.61205)
(448.28 -2.94691 2.55232)
(444.139 -2.30519 -7.36849)
(429.368 0.0607965 0.592907)
(441.383 1.6004 -1.53116)
(334.522 0.993976 0.474418)
(447.645 -0.386373 0.0806136)
(423.088 -0.246279 -0.423382)
(427.598 -2.65267 1.91762)
(442.86 -4.27582 6.34081)
(455.862 -12.463 2.78595)
(396.869 -1.50294 -3.99503)
(430.599 -0.71873 -0.162408)
(443.73 0.206958 -2.87173)
(361.035 7.48579 17.3097)
(396.995 2.35655 -0.0900649)
(430.402 -2.07206 5.16845)
(444.669 0.910486 -5.69078)
(430.002 4.80766 0.869225)
(446.399 -4.01145 -3.44815)
(447.822 3.75261 0.801201)
(446.817 -0.820488 0.870603)
(447.389 -7.49889 6.42624)
(353.606 4.81757 0.312353)
(450.095 -16.0763 -1.36151)
(290.533 5.19996 5.77902)
(430.173 0.0528395 -3.01535)
(325.584 5.62584 -12.7912)
(416.736 1.86255 12.5416)
(415.119 1.47955 -6.044)
(447.947 0.00180212 4.03644e-07)
(452.228 -6.37663 6.59215)
(443.41 0.793951 2.34108)
(446.782 0.0421746 -3.09829)
(449.723 -0.720276 2.88368)
(438.303 0.195931 -3.69113)
(448.257 0.35452 -0.954101)
(442.127 -0.784356 -5.59388)
(445.977 -0.919627 -5.08487)
(448.161 0.000747758 -0.310549)
(452.524 -1.91714 0.890597)
(449.402 -1.75698 5.63091)
(448.716 2.4313 2.1353)
(449.973 -0.410576 -0.810807)
(449.499 0.892224 2.48969)
(448.317 0.423302 -1.50924)
(449.424 -0.120229 0.44614)
(444.364 -0.21643 4.26013)
(448.273 0.0746641 -1.30799)
(448.779 -0.650672 0.973235)
(451.337 -0.550903 4.42784)
(445.479 0.00307241 0.24085)
(446.645 -0.462889 -0.775644)
(444.178 -1.65796 0.642838)
(447.232 0.0245015 -0.623821)
(448.732 1.26226 -3.44878)
(446.532 1.40003 0.562718)
(449.164 1.90853 -1.07365)
(446.552 0.0242431 0.937252)
(444.325 0.0764077 -0.418859)
(445.596 -0.965096 1.93329)
(446.606 -2.21556 -2.60318)
(448.423 -0.310095 0.708648)
(448.465 -0.196445 -1.40859)
(447.047 -0.155335 0.276083)
(449.248 2.13556 -6.26481)
(453 3.09151 -3.39869)
(450.237 0.364098 1.98859)
(447.716 0.472971 -1.54657)
(447.116 0.167851 0.62616)
(447.972 0.61274 -1.67392)
(444.769 0.0554945 -2.2646)
(445.381 -0.111489 1.8048)
(446.65 0.017297 -0.144155)
(448.177 -2.4151 0.876294)
(446.963 -0.479241 0.973882)
(449.277 -1.14092 -1.75695)
(449.184 0.533918 -2.48438)
(446.425 -0.55152 1.39868)
(452.696 3.9525 1.65345)
(445.634 0.389986 -1.35093)
(441.333 1.27886 -3.20536)
(449.804 -0.845928 -3.06695)
(448.063 1.30329 -5.20763)
(452.884 1.16236 -3.34433)
(442.964 1.99981 -1.28122)
(438.49 0.150677 -2.18104)
(455.007 -1.78083 4.00499)
(448.538 -0.104086 0.139771)
(447.99 -0.143844 0.086701)
(448.04 0.176311 1.13931)
(445.834 -2.2265 -1.17797)
(447.208 0.410081 -1.29582)
(448.032 -0.106483 -1.47747)
(445.977 -1.62255 2.10704)
(448.466 -5.07527 6.43977)
(445.706 0.107855 1.432)
(450.808 0.166518 1.50363)
(447.836 -1.21187 -1.15721)
(445.601 -0.0310105 -1.66062)
(448.521 -0.338976 0.84734)
(444.662 -1.22658 -3.63197)
(446.189 0.102478 -0.196356)
(448.379 0.407461 1.76895)
(448.608 0.886569 -5.39145)
(446.855 -1.44827 -5.36677)
(446.469 -1.52833 -0.88842)
(447.422 0.990564 3.40429)
(447.882 0.534339 2.18781)
(447.436 -0.227858 -1.97199)
(448.128 0.370086 1.09966)
(446.378 -1.96988 2.53696)
(452.549 -6.89059 9.21471)
(445.811 -0.590592 -2.05805)
(447.606 -0.0515944 0.418932)
(446.143 1.05498 2.95479)
(447.911 -0.900609 -0.973158)
(442.322 2.11262 2.18634)
(446.495 6.27808 -7.42274)
(448.506 -1.76106 2.23889)
(447.454 0.0344703 -1.23355)
(447.167 1.41476 1.9447)
(438.951 -1.35046 -5.68022)
(448.542 -3.64227 2.19119)
(448.205 -1.15713 2.93788)
(447.245 0.0569881 0.118034)
(448.672 -0.473101 -2.01796)
(448.57 0.229022 0.962069)
(448.359 1.27575 0.484193)
(450.427 -0.262689 -1.1453)
(448.46 -0.151308 -0.652594)
(444.615 -0.0452048 -0.19091)
(448.094 0.0714958 0.376199)
(447.096 -1.01337 -1.29984)
(446.382 -0.566913 -3.84787)
(451.876 2.08014 4.98654)
(448.197 0.168281 0.104639)
(453.345 4.95921 0.784517)
(448.96 0.819878 -3.27085)
(445.488 -0.671461 1.45335)
(450.014 3.10571 0.973105)
(447.729 0.0337079 -0.067274)
(446.646 0.103425 -0.387439)
(447.993 0.351948 0.484414)
(445.594 -1.53449 3.24455)
(447.649 0.179332 0.168137)
(446.357 -1.29346 -2.36079)
(446.479 0.259479 0.932815)
(455.877 1.06707 9.71646)
(447.997 0.0772778 -0.0158368)
(447.7 0.544709 2.5096)
(446.936 -0.17935 0.810531)
(448.635 0.409704 -0.921861)
(448.109 -0.592631 -1.83494)
(448.795 -0.608396 0.916694)
(448.038 -0.20817 0.321727)
(447.846 0.00604812 0.864311)
(447.187 1.25711 -2.9991)
(448.168 1.16652 -1.24126)
(448.554 0.224859 1.23536)
(450.843 -3.91791 3.7129)
(444.119 -0.126055 -0.380868)
(447.316 -0.0357656 -0.0612353)
(446.35 -0.0526991 5.80489)
(447.798 0.194801 0.195856)
(445.723 -0.127254 3.02476)
(445.878 4.64322 -0.710773)
(448.802 0.585684 -1.4228)
(445.467 0.0309481 3.69952)
(446.438 0.267507 -2.0837)
(447.778 -0.431956 -0.241378)
(447.952 -0.191221 1.27801)
(446.582 -0.802178 -3.83357)
(447.55 1.06057 -1.6936)
(449.544 -0.602889 -1.19413)
(446.832 -0.908129 -0.97854)
(454.309 1.84863 0.430236)
(446.165 1.40786 0.549591)
(445.426 0.0205861 0.64133)
(441.869 -0.145345 -4.6065)
(446.631 -0.481378 -0.749402)
(446.688 0.809254 3.04462)
(451.794 1.09666 5.14451)
(444.234 -2.71873 1.86885)
(283.987 2.86035 7.00284)
(244.034 25.8298 5.71296)
(296.563 8.30871 0.913504)
(318.467 8.29532 5.12203)
(387.299 -1.37151 -7.18005)
(373.748 1.85444 -2.08603)
(421.143 2.01146 -2.5738)
(415.785 2.44578 0.949003)
(376.824 15.2111 -9.76382)
(447.829 -1.45372 -1.00848)
(420.242 -15.5605 18.1128)
(437.677 -3.1647 -6.19619)
(439.27 0.111785 -0.795637)
(447.86 -2.78237 3.2646)
(405.865 -21.0027 -10.0677)
(370.474 -0.18944 3.51485)
(413.938 2.51259 -1.87488)
(445.625 0.241488 0.817914)
(419.923 4.49508 -10.3933)
(403.71 -0.233819 0.646158)
(390.607 0.741434 3.64739)
(375.109 -6.26672 -7.74572)
(375.531 1.2678 -6.38861)
(364.814 -18.7278 9.754)
(419.952 -1.09623 -0.817318)
(365.794 -9.64555 -3.87165)
(420.41 -0.213308 5.77928)
(334.333 2.58048 1.75841)
(363.497 4.68833 2.3734)
(398.738 -3.04569 0.641535)
(443.928 -0.174733 0.028362)
(369.374 -16.4702 21.803)
(447.284 0.17987 -0.0858814)
(452.372 0.801525 -1.13456)
(447.778 -0.660703 -0.11526)
(439.761 0.864983 -0.480972)
(448.45 -6.16564 -2.58256)
(428.762 -3.58267 -3.28121)
(420.304 4.43104 4.81553)
(381.37 5.00999 3.95403)
(316.028 14.4383 -22.5087)
(365.053 0.0259483 -11.1826)
(379.974 -0.797354 -0.685803)
(386.897 29.3609 -24.1534)
(412.785 -2.84885 -1.28168)
(425.148 0.0562182 0.205581)
(422.848 -0.357795 -1.15459)
(450.693 -13.284 -8.67108)
(400.776 4.94742 -7.45524)
(446.974 -0.187674 0.94906)
(411.237 4.5176 6.23501)
(393.552 5.38503 -4.07445)
(425.787 0.613833 11.9054)
(355.052 5.8219 -11.8345)
(435.667 -3.11788 -1.14571)
(444.308 1.55431 4.35187)
(370.717 11.0102 7.66036)
(429.642 0.256658 -1.08698)
(344.658 -11.2405 9.17632)
(450.47 -0.22704 0.0606348)
(429.709 -0.577528 -6.34458)
(446.774 2.66398 -1.24374)
(429.559 -0.465337 -0.403874)
(444.926 1.05108 -2.23345)
(405.996 -4.8543 -1.95474)
(437.928 -2.98526 1.36401)
(331.485 3.03065 -1.05985)
(350.191 1.88553 -4.61304)
(379.607 8.70621 -2.01787)
(419.766 6.87725 -2.44506)
(428.104 -10.855 -1.34011)
(449.664 1.04112 0.742349)
(402.888 10.3741 -9.73002)
(447.887 0.400339 -0.0605776)
(368.35 9.8381 1.39113)
(446.312 -0.57335 1.21888)
(429.989 6.32733 -2.06821)
(283.283 26.8361 17.5199)
(389.641 7.30467 -12.5129)
(449.395 -5.43243 1.17143)
(446.982 3.23362 0.338155)
(359.723 10.8242 1.17536)
(442.895 -0.748043 -0.349142)
(448.436 -3.34469 -1.73676)
(436.042 -7.28709 6.21481)
(448.514 0.270461 0.106915)
(447.19 -0.157316 -0.0751152)
(397.041 -3.56495 -0.194614)
(440.947 -16.915 3.60421)
(435.838 2.75854 0.737886)
(353.51 -5.10055 -0.849192)
(447.993 0.253094 0.43238)
(447.492 -0.158504 -0.964445)
(436.843 -2.03364 1.48787)
(324.295 1.26139 -9.23271)
(341.729 -19.3037 1.8921)
(444.542 1.60267 -1.44161)
(373.626 -3.90886 9.62399)
(438.596 -9.36642 11.1201)
(440.567 -3.05167 4.28402)
(410.549 4.62471 0.954251)
(396.046 1.96949 -8.19587)
(387.77 6.34867 10.4701)
(423.041 -1.86531 -3.01129)
(450.271 -1.55412 15.5868)
(403.225 -7.11381 -5.42362)
(403.555 2.21098 -4.03271)
(415.167 -0.455638 11.753)
(389.905 -0.719377 12.8402)
(417.357 -0.0730389 -1.02408)
(358.379 10.6238 -29.1597)
(418.432 2.53496 -3.52496)
(415.297 -5.22049 -15.6413)
(442.134 0.51141 -1.12437)
(370.218 -1.19978 15.7599)
(430.628 1.41376 9.39827)
(374.733 -7.64824 10.416)
(381.706 2.00409 -12.1358)
(434.692 -18.7597 5.60346)
(431.914 -2.58664 3.88095)
(397.524 31.1102 -15.3451)
(418.41 -7.36877 4.8968)
(444.582 2.58354 -1.91645)
(401.392 -7.94925 -11.6091)
(400.206 15.3283 -6.91824)
(398.64 0.117559 0.264568)
(398.475 -1.11789 2.13625)
(393.734 -6.7485 -14.5203)
(410.471 -3.1406 9.33302)
(388.535 -5.26887 -20.2975)
(442.031 3.46118 3.29049)
(404.046 -1.02691 12.6228)
(420.3 3.01859 -6.67502)
(383.966 3.52225 18.9174)
(423.387 0.370737 11.4601)
(423.344 -13.8322 -32.9239)
(419.408 -0.232621 -2.49678)
(386.607 -0.964621 -8.69207)
(385.987 -2.86813 1.03305)
(390.419 1.13467 25.674)
(435.72 3.40353 5.16376)
(398.801 -21.3286 37.2369)
(432.365 -0.267029 1.76596)
(380.238 2.12883 -3.13058)
(416.761 0.250218 1.09842)
(383.649 -1.01702 2.61129)
(391.854 -7.03397 -31.6766)
(439.572 -3.7461 -1.22415)
(428.208 -3.02168 -4.57772)
(406.361 0.00378208 0.124289)
(416.23 6.77568 18.708)
(423.47 5.23951 10.5657)
(429.849 -8.89988 6.20117)
(375.598 -8.67999 -17.3443)
(402.919 0.163289 -1.45006)
(421.246 -12.7473 -31.0417)
(409.306 5.1841 -20.3748)
(425.661 0.394144 -1.58907)
(431.446 -0.534715 -3.96682)
(382.01 -12.5294 -12.5706)
(375.849 -0.19507 3.17558)
(390.295 16.6431 37.0979)
(442.712 -0.265993 -1.91139)
(382.217 -0.0888242 -2.90594)
(382.151 -17.747 2.7554)
(371.511 -8.81016 -7.24431)
(402.87 4.27256 5.04856)
(382.596 -0.0946275 1.0961)
(415.984 0.500127 1.07469)
(443.294 -5.11988 -9.40316)
(410.402 3.51772 18.7157)
(406.311 1.65402 6.62837)
(389.481 -2.1876 -5.10996)
(433.394 1.56284 -3.01549)
(411.515 0.0282223 0.359998)
(412.013 -3.35892 -16.1939)
(433.738 0.12754 2.06428)
(369.918 -10.6665 16.483)
(374.634 -5.17655 4.69151)
(378.373 2.167 -2.98194)
(398.504 0.346219 -0.980789)
(379.715 4.7687 29.2957)
(430.331 3.97233 -6.14416)
(439.334 -2.48763 -8.88464)
(420.669 2.61071 11.5732)
(415.091 2.30462 6.53721)
(394.138 -0.132469 8.75895)
(418.079 -0.0800355 -0.341594)
(343.389 -24.0636 -13.4537)
(397.616 -2.46751 -15.5604)
(391.889 -1.20288 -9.89226)
(379.891 2.10129 9.50568)
(431.363 3.71413 12.6312)
(436.643 0.229897 -0.283431)
(382.203 -2.99409 6.87936)
(395.612 -1.16282 -2.75902)
(384.286 -2.13996 13.868)
(418.847 1.08577 -2.42801)
(422.513 1.57936 8.33555)
(356.989 -2.32182 27.2379)
(443.914 0.0904604 0.563835)
(412.947 0.144825 4.63421)
(442.263 0.0902181 5.72377)
(406.542 -2.38219 3.22482)
(447.989 2.29893 -9.1967)
(404.266 -0.388014 -1.08771)
(380.923 -0.0208528 2.63141)
(385.643 0.37028 4.60099)
(410.344 0.177069 0.00903442)
(432.735 0.11596 -11.4538)
(402.593 0.0364398 6.77465)
(394.253 0.832211 -17.7307)
(411.09 0.66717 6.63616)
(385.021 -1.94908 10.9379)
(442.669 -2.49868 3.63804)
(417.642 -0.701159 2.13926)
(390.777 -3.24769 7.45481)
(378.823 0.911385 -14.9706)
(433.468 -0.171909 -0.250692)
(414.376 0.0930973 2.69182)
(375.002 1.38833 -3.36966)
(426.017 -0.308863 -1.44185)
(395.158 -2.40474 -4.67502)
(419.363 7.75729 -3.28443)
(417.011 15.3447 -59.0872)
(421.352 2.01287 -14.2312)
(435.646 -4.12794 -3.3514)
(401.732 18.851 -12.0594)
(440.767 0.389427 6.7716)
(392.974 -4.56302 9.20476)
(373.605 -3.42104 -5.46461)
(401.968 -0.535954 -0.571452)
(410.037 -0.209699 1.26088)
(416.008 -3.79265 -1.04136)
(424.879 -3.74874 5.04742)
(398.685 2.73314 14.0397)
(436.853 1.60967 2.68302)
(423.655 0.230633 -10.9972)
(445.235 -7.55131 3.76362)
(421.053 -0.360934 0.27521)
(402.42 2.65771 -3.58576)
(436.285 0.378408 5.26258)
(411.151 1.37253 -11.2769)
(400.744 -1.67221 3.0332)
(387.633 -1.18562 3.23164)
(388.087 -3.98083 -16.1869)
(415.941 5.47749 0.562297)
(410.909 -2.66004 -5.60706)
(403.824 -2.28935 25.5105)
(401.13 0.280881 -2.91501)
(395.994 0.453371 -7.28572)
(376.299 0.109439 -9.41381)
(431.226 -2.57609 4.53643)
(400.036 -3.24826 -9.29865)
(422.053 5.65124 4.55568)
(418.774 -32.8978 18.8086)
(414.772 -0.0622715 -0.87664)
(382.931 -2.43183 10.7091)
(386.152 -3.66772 6.70778)
(382.918 -0.491257 7.6533)
(416.262 -2.12947 -1.43913)
(414.133 2.61886 -2.81893)
(405.563 -0.0576896 8.94634)
(397.963 4.11527 7.70242)
(389.527 -2.3917 13.3793)
(386.348 -7.20196 -6.47815)
(382.276 -1.13813 31.0085)
(444.451 0.547362 -2.8428)
(410.32 0.842451 -1.57954)
(383.893 3.99185 -10.0394)
(385.65 0.198089 9.70299)
(375.45 2.59597 16.6317)
(422.189 0.0116028 0.0597552)
(379.368 11.2964 8.82011)
(440.395 0.161033 0.124516)
(389.754 2.02959 -8.08069)
(386.812 2.8189 11.0071)
(374.628 -2.70439 15.9084)
(397.282 -5.9961 1.34033)
(433.289 -22.4515 -7.79548)
(411.908 -22.1131 -16.8951)
(392.231 -0.769453 -1.72911)
(418.789 -3.34003 -4.14222)
(401.145 -0.0657121 1.60468)
(435.931 0.155243 0.313185)
(377.854 -1.7562 4.28875)
(404.28 1.17383 -0.75869)
(378.766 2.0851 5.26546)
(417.073 7.14756 -2.51224)
(385.094 1.04162 11.6243)
(410.974 3.82279 -21.1437)
(407.165 5.42931 -7.20707)
(431.533 0.832064 -0.66892)
(380.985 -0.0746181 5.92925)
(398.478 -0.250553 -0.312555)
(442.439 -0.143419 3.79776)
(385.505 -9.43667 12.8993)
(443.713 2.10789 -5.0788)
(375.993 1.62992 -2.60624)
(426.819 1.98139 9.67429)
(408.649 -1.6324 10.0303)
(395.952 -1.5204 19.0595)
(419.058 0.937916 3.9645)
(380.647 -0.801228 -7.29097)
(429.174 0.530215 -1.78209)
(390.85 1.76779 12.5218)
(441.28 -11.7826 -9.96564)
(443.611 0.118255 -0.142875)
(439.847 -0.0725092 2.90012)
(411.34 0.632066 16.8302)
(414.123 -6.62021 38.5237)
(393.846 16.0206 6.81563)
(404.484 -2.16387 -19.9743)
(443.817 2.15725 -2.34907)
(415.668 8.03428 10.8569)
(379.809 -0.376229 -4.00565)
(437.16 0.0496007 2.48545)
(424.656 -1.06217 2.62188)
(375.426 0.595195 8.97558)
(429.602 0.217648 3.52537)
(435.969 3.74244 -7.77945)
(428.069 -0.0140685 0.114335)
(423.222 -0.226763 -0.21074)
(394.215 -8.29693 7.5884)
(374.897 1.18009 -1.54015)
(390.362 -0.910251 -0.877758)
(428.108 1.49831 8.66114)
(388.993 2.45702 -2.21527)
(428.208 1.26854 9.20268)
(411.739 1.89528 -22.345)
(380.612 -0.153611 -1.04201)
(397.601 -4.56433 0.127301)
(427.446 3.91907 3.58669)
(421.403 -0.665687 1.87011)
(438.953 -0.469678 -5.61306)
(424.133 2.38298 2.58897)
(398.537 -14.3888 -11.4271)
(449.307 -10.3935 14.1829)
(399.353 -4.91616 -7.35917)
(380.779 5.50888 1.06332)
(375.417 1.17724 -6.68311)
(398.285 -2.84333 2.34187)
(410.543 -0.188867 -8.78394)
(381.58 0.155607 0.276595)
(398.905 6.29935 -7.21724)
(395.096 6.59102 5.40149)
(428.942 0.89366 -40.401)
(364.784 -10.918 -20.2853)
(382.271 -0.278602 6.98534)
(413.633 1.96821 -2.7175)
(434.53 -0.734778 -7.83941)
(438.902 0.155251 -0.955479)
(411.544 15.2973 7.38422)
(445.228 2.73766 14.503)