/*--------------------------------*- C++ -*----------------------------------*\
  =========                 |
  \\      /  F ield         | OpenFOAM: The Open Source CFD Toolbox
   \\    /   O peration     | Website:  https://openfoam.org
    \\  /    A nd           | Version:  7
     \\/     M anipulation  |
\*---------------------------------------------------------------------------*/
FoamFile
{
    version     2.0;
    format      ascii;
    class       vectorField;
    location    "0.7/lagrangian/reactingCloud1";
    object      UTurb;
}
// * * * * * * * * * * * * * * * * * * * * * * * * * * * * * * * * * * * * * //


2545
(
(0 0 0)
(0.563921 -0.174406 0.41131)
(0 0 0)
(0 0 0)
(0 0 0)
(0 0 0)
(0 0 0)
(0 0 0)
(0 0 0)
(0 0 0)
(0 0 0)
(0 0 0)
(0 0 0)
(0 0 0)
(0 0 0)
(0 0 0)
(0 0 0)
(0 0 0)
(0 0 0)
(0 0 0)
(0 0 0)
(0 0 0)
(0 0 0)
(0 0 0)
(-0.475435 -1.82764 1.76376)
(0 0 0)
(0 0 0)
(0 0 0)
(0 0 0)
(0 0 0)
(0 0 0)
(0 0 0)
(0 0 0)
(0 0 0)
(0 0 0)
(0 0 0)
(0 0 0)
(0 0 0)
(0 0 0)
(0 0 0)
(0 0 0)
(0 0 0)
(0 0 0)
(0 0 0)
(0 0 0)
(0 0 0)
(0 0 0)
(0 0 0)
(0.837426 0.994778 -1.66066)
(-9.6161 -4.35764 3.09855)
(-1.89825 -11.9392 2.82847)
(0 0 0)
(0 0 0)
(0.639204 -1.53345 -3.83224)
(0 0 0)
(-1.59099 -4.60287 -1.26072)
(0 0 0)
(7.40312 -5.14129 1.51196)
(-0.966684 -8.85467 -4.11026)
(0 0 0)
(-0.374611 -0.0131376 0.296323)
(-8.89784 -17.1025 1.88576)
(0 0 0)
(0 0 0)
(0 0 0)
(5.15706 2.82773 0.276927)
(-2.92992 0.977775 3.15138)
(-11.0095 -8.50345 0.211981)
(0 0 0)
(-0.308601 -5.56722 1.96095)
(0 0 0)
(0.519692 0.293792 -0.369097)
(0 0 0)
(0 0 0)
(0 0 0)
(-3.99769 1.01291 1.37119)
(-2.05642 -6.68013 -0.581448)
(0.199913 0.555856 -0.122292)
(1.60348 0.22463 3.11503)
(-6.86252 -6.42612 -0.393035)
(0 0 0)
(0 0 0)
(0 0 0)
(0 0 0)
(0 0 0)
(-5.89432 -1.27592 -3.37304)
(0 0 0)
(0 0 0)
(0 0 0)
(0 0 0)
(0 0 0)
(0 0 0)
(0 0 0)
(0 0 0)
(0 0 0)
(0 0 0)
(0 0 0)
(0 0 0)
(0 0 0)
(0 0 0)
(-0.804042 -4.97464 3.71045)
(0 0 0)
(0 0 0)
(0 0 0)
(0 0 0)
(0 0 0)
(0 0 0)
(0 0 0)
(0 0 0)
(0 0 0)
(0 0 0)
(0 0 0)
(0 0 0)
(0 0 0)
(0 0 0)
(0 0 0)
(0 0 0)
(0 0 0)
(0 0 0)
(-1.84847 4.61838 -7.51103)
(10.6297 6.67337 -11.5525)
(-1.46404 -1.12248 -1.06506)
(1.36505 -0.38767 0.317996)
(11.4727 -5.2586 -2.19892)
(0.386094 -6.38581 0.612618)
(-2.82475 -10.1266 -2.76436)
(0 0 0)
(0 0 0)
(1.14386 2.53699 1.48186)
(0 0 0)
(-2.36698 -3.27896 -0.904949)
(0 0 0)
(-0.0261973 0.128333 -0.113297)
(0 0 0)
(0.0876226 -2.01353 0.794776)
(4.72741 -2.58154 -0.72966)
(0 0 0)
(0.911268 -5.25139 -2.94023)
(-0.0364081 0.0355254 -0.0714286)
(-0.19318 -0.838009 -0.822358)
(0 0 0)
(-1.48501 -13.9101 -11.15)
(0 0 0)
(-1.31465 5.48898 1.40555)
(0 0 0)
(1.20421 -2.17729 4.2705)
(-1.57538 -13.1603 -5.48425)
(0 0 0)
(-1.69558 -0.950007 11.6117)
(0 0 0)
(0.0859211 -0.94446 -0.926042)
(-4.62293 -6.11239 2.32097)
(-0.492086 0.59622 -1.65223)
(1.98733 -1.613 -2.349)
(4.85642 -5.64228 -3.9321)
(0 0 0)
(0 0 0)
(0.704479 1.31189 -1.30832)
(0 0 0)
(-22.9758 6.43062 -16.1164)
(3.53097 -9.40845 4.35237)
(1.56654 -10.2732 -5.29269)
(-8.18666 0.197354 -2.51983)
(-1.88904 0.438586 9.46966)
(1.57655 -2.43162 0.870962)
(0.494394 -0.876146 0.614616)
(-2.89122 4.02261 -5.74801)
(-6.54542 -7.13221 -0.697277)
(0 0 0)
(-1.14275 -2.81629 -2.43975)
(-1.38152 -3.96206 -0.456454)
(-2.47447 -1.51445 -1.94221)
(-4.39027 -8.26554 4.18841)
(0.25324 -6.04898 -2.87125)
(-2.41797 2.89802 -2.86219)
(-7.73081 -5.41288 2.27443)
(21.4622 19.9846 -4.87684)
(1.40636 -2.36077 3.48076)
(2.61772 -2.7093 1.03042)
(-6.73285 -0.344314 -3.62859)
(0 0 0)
(1.02761 2.17455 2.86111)
(-2.48829 -11.7423 10.8156)
(1.87792 2.03741 1.96919)
(-4.31665 -7.48582 4.75625)
(1.20499 -16.8738 7.149)
(0.504042 -9.10899 5.5082)
(0.24297 -4.94334 -1.02204)
(5.4541 -1.29279 1.6719)
(0 0 0)
(1.72489 -5.13338 -7.44623)
(0 0 0)
(-7.24874 2.29334 -0.77766)
(-1.10402 -1.55307 -1.43191)
(-0.142047 -0.0830994 0.020592)
(0 0 0)
(0 0 0)
(0 0 0)
(0 0 0)
(0 0 0)
(1.27896 7.15079 -5.20345)
(4.53274 -14.8795 4.7302)
(0.390774 -6.10826 -7.35798)
(4.80884 -0.978576 -9.19738)
(-3.44838 -3.81361 1.22532)
(8.72195 -4.58403 -4.15693)
(6.76782 -8.1496 2.55684)
(-1.61884 -1.26009 -0.934879)
(-2.13123 -0.670122 0.0672464)
(0.138542 -7.36202 2.37067)
(-0.832983 -2.27496 1.87471)
(3.55691 -1.99961 -3.27293)
(0.0553064 -1.87249 -0.985196)
(-0.283663 -2.66643 1.77996)
(-0.343693 -3.93449 -2.87439)
(3.12 -1.10098 -5.09959)
(-2.33223 -1.25594 1.80724)
(1.25659 -1.73388 -3.44501)
(7.24119 14.8427 3.46181)
(-0.396481 1.84936 2.14735)
(1.92199 -1.00773 -2.54114)
(0 0 0)
(2.10092 -0.133054 3.41417)
(-11.0102 -3.4478 -1.57771)
(0 0 0)
(-1.03427 4.37534 3.32485)
(0.10511 0.488323 0.36693)
(0 0 0)
(-3.11159 -4.38472 -2.64723)
(0 0 0)
(-10.3263 20.0981 -9.92356)
(2.65809 -22.1518 -7.24388)
(-4.13786 -3.01142 -1.84227)
(-3.30633 0.147338 2.73353)
(3.98061 -1.73003 2.10726)
(0 0 0)
(-1.61656 9.52835 -2.37457)
(0.569273 -1.41652 0.080663)
(1.28039 -0.651208 -2.01607)
(-1.4667 4.56936 1.36498)
(0 0 0)
(-0.589246 -0.301677 -0.467664)
(1.11544 10.4285 1.47647)
(0 0 0)
(-3.73983 8.87397 -22.6833)
(-1.64868 -0.990481 -1.98993)
(-8.88443 13.4191 -11.0434)
(3.52629 3.45773 4.71527)
(3.17205 -2.76942 0.35535)
(-0.0234637 -0.510497 -0.482269)
(0 0 0)
(-4.1979 -1.10016 0.679287)
(13.3723 -7.83032 3.72038)
(9.41949 -10.6853 -2.7963)
(-1.54883 13.0641 -9.24838)
(20.0607 3.46245 -7.41739)
(0 0 0)
(0 0 0)
(-1.19501 -2.23277 -1.9057)
(0 0 0)
(0 0 0)
(2.19532 -2.40597 -2.96855)
(-2.58787 -1.41164 -0.375267)
(8.97025 -3.56084 5.94261)
(0.182911 -0.135374 0.396253)
(-0.780235 -2.79818 -2.00321)
(1.48726 -2.15345 -0.325885)
(-1.18048 -6.01843 6.19507)
(-0.0190985 -1.96559 1.27771)
(-0.156089 -0.23759 -0.0858819)
(0.686276 -0.886131 0.226967)
(1.10018 -0.667333 -1.22379)
(1.87903 -2.71473 -2.47526)
(0.687171 -2.65515 -1.51522)
(0.0157233 -0.147418 -0.095158)
(-0.11328 -0.307631 -0.763951)
(0.199699 -3.00104 0.745061)
(-2.51726 -1.99752 1.10394)
(-4.60787 -1.0929 2.75715)
(4.19417 -0.967315 -2.6764)
(0.0447373 -1.51465 -0.796923)
(-0.0903554 -0.644486 -0.389491)
(1.49932 -1.37189 -0.0717601)
(0.252223 -3.54308 -0.729433)
(-5.36663 -2.75428 -3.30384)
(-0.233585 -1.27971 -1.02231)
(-6.37344 -1.91617 -1.09656)
(-0.206032 -0.226689 -0.772726)
(-0.869391 -2.16826 -0.151173)
(-1.65316 -1.00828 -0.478097)
(0.656245 -0.954228 0.750802)
(-1.32013 -0.958334 0.947672)
(3.5133 -1.05574 -0.200199)
(2.92723 -1.03296 -4.78451)
(0.0432431 -3.32879 3.7738)
(-0.535345 -2.24914 -0.714846)
(-0.0480221 -0.683339 -0.543087)
(-1.05997 -1.20729 1.00289)
(-3.67488 0.973844 -7.11097)
(3.47476 -1.8975 -0.536318)
(2.38369 -3.29512 2.11437)
(-9.19109 -8.85016 9.22453)
(-2.34514 -0.858832 5.76693)
(-0.222114 6.30913 0.0561213)
(4.51755 -1.06335 1.14152)
(1.87727 -1.19157 -0.34143)
(5.27205 1.81189 -3.5097)
(2.26767 2.07376 5.18724)
(1.04235 0.194847 1.2186)
(-0.621446 -4.02592 -6.61863)
(6.93008 5.80415 -4.34673)
(-0.71035 -0.100209 4.008)
(-2.04338 1.4045 0.133845)
(0 0 0)
(-0.429501 0.227272 -0.30084)
(3.51054 0.766982 2.70576)
(-2.29895 12.4588 -5.426)
(0.730458 -11.4198 -8.4364)
(-14.743 -2.72612 -2.06933)
(-24.4415 -12.7072 2.24464)
(-3.62139 -5.67897 0.818818)
(0.0228083 0.087608 -0.0199625)
(-0.838589 -0.702238 0.419371)
(1.16355 -6.02625 -0.0513987)
(-2.63135 -1.90972 -4.07847)
(0 0 0)
(-5.65947 -4.469 -3.41691)
(-0.648386 -10.9333 -2.54772)
(4.94993 -6.87631 -6.29238)
(5.89702 2.61126 6.91522)
(0 0 0)
(2.62574 -4.26893 -3.53977)
(-0.682893 5.93104 0.0117797)
(7.43173 15.3061 -8.07294)
(0.770985 1.16293 -0.366268)
(3.5233 -2.56918 -1.71713)
(6.6946 19.4535 27.8687)
(3.33681 1.66796 0.127661)
(2.22606 -8.29024 -2.27388)
(0.301843 -6.00683 -1.30485)
(-3.42697 -2.62516 -6.70978)
(0.156857 1.43552 3.47019)
(-0.165063 -0.144066 0.102493)
(18.7043 11.4597 1.94667)
(-2.80822 -0.895007 1.44309)
(1.36002 -6.72906 8.4809)
(-13.1362 8.82234 12.6944)
(1.92932 -1.00226 -0.621077)
(0.392692 1.74562 2.5604)
(2.42243 -17.1287 8.78059)
(-0.0918798 -0.249407 2.01079)
(-3.72909 -2.50568 4.85225)
(0 0 0)
(3.3974 -6.31286 -4.46533)
(-4.01044 -0.66873 1.65494)
(0 0 0)
(10.9591 0.790707 -0.0154397)
(0.0957097 1.11739 1.24922)
(13.4229 20.4556 -0.974929)
(-3.83103 -8.00209 -5.62812)
(-0.12302 -0.279177 -1.02248)
(0 0 0)
(-1.30679 -1.89804 -3.25464)
(0.780834 0.407879 0.519033)
(0 0 0)
(0.0126198 0.191723 -0.144201)
(3.89786 2.15291 1.03274)
(0.185056 -1.10436 1.59397)
(0 0 0)
(-6.32141 10.7883 -5.01519)
(0 0 0)
(0 0 0)
(-10.431 -5.10988 5.5905)
(1.48181 9.13186 -2.77511)
(1.04947 -1.11849 -10.7526)
(0.690714 -0.982862 0.53544)
(8.35667 -10.0628 3.15709)
(-0.54665 -1.4383 -0.418527)
(0.685226 -2.70681 -3.11622)
(0.573452 -1.0093 0.118877)
(4.81906 -2.23028 0.511499)
(-1.84662 -1.25193 2.6583)
(-1.40221 -1.74147 -0.939)
(-3.9037 -3.09628 0.493747)
(-2.47944 -0.71968 -0.293933)
(-0.790196 -0.371499 -0.391508)
(1.28148 -3.05422 2.2639)
(-4.69995 -2.28041 -1.84832)
(1.57593 -3.28673 0.872543)
(-0.159482 -0.0930782 0.348976)
(5.5541 -4.29706 1.9643)
(-1.93984 -2.1013 4.29484)
(-1.11535 -0.371744 -1.76062)
(1.63967 -0.320683 1.62565)
(0.248756 -0.862303 3.82073)
(2.07102 -2.35609 1.65699)
(-0.62025 -5.36251 -0.470125)
(0.823154 -0.589735 1.18136)
(0.65685 -2.538 -1.44836)
(-1.27722 -0.789911 0.660998)
(-1.33165 -1.03655 -0.769028)
(-3.31288 -6.23714 3.16055)
(0.0401443 -1.35915 -0.715106)
(-5.72356 -1.71592 -5.3214)
(0.160678 -0.169372 -0.201052)
(-0.136851 -0.0779851 -1.67209)
(-3.73754 -2.7297 -0.793702)
(0.897005 -0.506061 2.16776)
(-1.80291 -0.275716 -0.227003)
(0.183979 -4.3946 -2.08597)
(-0.550935 -1.22145 -2.64364)
(6.14568 -1.22976 1.73625)
(0.199591 -2.05931 -0.837286)
(0.517207 -0.283931 1.21025)
(-2.64526 -1.98532 -6.06404)
(-3.28701 -2.90271 4.43401)
(0.81574 -1.30165 0.646407)
(3.52936 -0.613619 2.13144)
(-0.78204 -1.71146 0.992688)
(2.27 -1.72706 1.08942)
(0.402605 -0.75619 0.896235)
(-7.85685 -4.3409 -4.36173)
(3.2531 -5.09857 -4.72973)
(-1.85197 -2.50766 2.23022)
(-3.26671 -5.10623 2.60147)
(-0.574881 -1.79696 1.73747)
(3.35594 -0.398677 0.617082)
(0.941243 -1.38894 0.275431)
(-5.61467 -0.850357 1.0829)
(-2.13329 -2.86209 2.83136)
(0.583174 -2.76124 0.0770325)
(2.71264 -1.13401 -2.58416)
(4.41056 -4.39967 3.77677)
(-2.77927 -2.82802 -4.87608)
(1.09124 -2.64281 -2.94256)
(0.14497 -0.306123 0.023613)
(2.30199 -3.46555 0.77482)
(0.00911291 -0.00434089 -0.169237)
(-0.0128942 -1.45432 -2.38682)
(2.7625 -0.867042 -1.96605)
(-0.713097 -2.20236 0.353374)
(0.458513 -3.74061 -1.5681)
(2.25704 -8.69514 -0.993865)
(-2.35555 -1.36128 1.94355)
(-1.7464 -3.8274 0.311878)
(0.26157 -0.370015 0.846968)
(-1.06372 -1.06176 0.116644)
(-0.087496 -0.341102 -0.065701)
(1.87575 -2.96343 -0.783015)
(0.87859 -0.692058 -0.466077)
(0.721381 -1.22622 0.606461)
(0.329359 -0.43431 -0.898255)
(3.37656 -0.800351 1.03505)
(1.68605 -1.74503 0.663683)
(-2.55496 -2.99536 1.43455)
(2.50846 -2.22975 3.98121)
(-1.86564 -6.68822 -1.82575)
(-0.937185 -3.24117 3.22645)
(0.840405 -1.36551 -1.40063)
(-0.00217304 0.0471816 -0.0560705)
(0.226557 -2.67532 -4.82584)
(0.294773 -0.177481 1.05201)
(1.54612 -0.65357 1.24023)
(-0.252165 -3.22636 0.539348)
(-6.19505 10.1368 1.35001)
(3.17515 -10.8965 -5.68087)
(-2.31637 3.32231 0.483736)
(-1.71961 7.86275 11.7812)
(-0.52841 -1.71189 -1.5444)
(-0.477189 -3.09138 -5.08224)
(-1.69195 19.5687 -19.2607)
(0.161383 0.422602 0.434645)
(2.61555 -2.05178 -1.13771)
(-0.439706 -1.5843 -0.274408)
(-2.05089 -6.64427 -5.99422)
(4.52099 0.411226 -5.77132)
(-0.577703 0.406134 -0.414646)
(-3.52341 7.94039 -3.70271)
(0.544847 -2.70565 2.3454)
(11.0252 21.5818 -7.1426)
(0.541094 2.13569 -0.0663356)
(0.12968 -3.63999 -0.242449)
(-1.94001 -0.293224 -1.13021)
(-0.0773314 -5.0516 7.42743)
(3.36855 -7.91045 12.0591)
(-1.26877 -0.191768 -0.739156)
(0.368727 -0.327952 -0.120129)
(0.917684 -3.23242 3.92641)
(-6.03929 8.66201 1.26121)
(1.90222 9.29147 -1.58826)
(10.7094 -1.50484 7.74333)
(2.06097 15.0477 -37.4105)
(-6.32666 7.18631 7.9185)
(3.04648 -4.81303 -1.27173)
(-3.43341 -7.16013 -4.0595)
(3.3102 -0.465137 2.39341)
(5.62507 9.5717 -2.95736)
(0.222604 0.117741 -0.42296)
(-4.86274 -11.0714 -2.27244)
(2.17297 2.85778 -2.71829)
(2.24639 0.20433 -2.86765)
(-1.39241 -2.65474 -0.849194)
(1.77005 -0.748228 1.41986)
(-0.309538 -3.39245 0.792488)
(-4.72699 2.14282 -1.92749)
(0.575276 4.20024 -10.4423)
(-1.14667 13.2621 -13.0534)
(-0.791408 0.556372 -0.568033)
(9.17311 -6.4738 -5.67848)
(-0.627069 -4.77965 0.980443)
(-3.26566 -1.09129 3.20949)
(-0.327035 -3.58422 0.837286)
(-18.4466 20.9531 23.0879)
(5.71598 -16.7049 1.61204)
(0.592915 -2.94436 2.55232)
(-1.63123 -2.26713 -7.36849)
(-0.110242 0.347077 0.592902)
(0.906383 1.72762 -1.53117)
(0.176149 0.46127 0.474414)
(-0.124786 -0.386914 0.0806133)
(0.222833 0.117862 -0.423395)
(5.26402 -2.28273 1.91762)
(1.77121 -4.15938 6.3408)
(8.27706 -12.4608 2.78595)
(-6.23174 -0.981458 -3.99503)
(0.498504 -0.443378 -0.162409)
(-0.0561695 0.276864 -2.87174)
(-29.3766 8.03059 17.3097)
(0.734661 2.89969 -0.090066)
(2.64518 -1.76871 5.16843)
(1.41077 0.988379 -5.6908)
(-0.713513 5.07279 0.86922)
(-0.764002 -4.00296 -3.44815)
(-0.267775 3.75239 0.801201)
(-0.76011 -0.819603 0.870602)
(-0.463432 -7.50061 6.42624)
(2.61708 4.51438 0.312352)
(2.2255 -16.078 -1.36151)
(-2.09445 4.65198 5.77902)
(-2.31243 0.293176 -3.01536)
(-7.64134 5.05249 -12.7912)
(-0.203007 2.28332 12.5416)
(-2.08685 1.89784 -6.04401)
(0 0 0)
(4.78917 -6.3741 6.59214)
(-4.07119 -2.12485 1.26334)
(-1.19582 -0.549783 3.04942)
(1.70764 -1.87149 -2.3091)
(-7.73461 -3.56973 -0.959079)
(0.236768 -0.727419 -0.711938)
(-5.92811 -3.62948 -4.32824)
(-1.97673 -2.12245 -4.71135)
(0.135652 -0.100398 0.293873)
(4.45201 -2.06041 0.47254)
(2.29617 -1.95242 5.56616)
(0.636995 -2.93959 1.35259)
(1.95957 -0.908653 -0.018134)
(1.42117 -1.17115 2.3713)
(0.95136 -1.56427 -0.100263)
(1.36813 -0.21036 0.411394)
(-3.57792 -1.79654 3.86885)
(0.237371 -0.420753 -1.24071)
(0.799606 -0.919572 0.724533)
(3.27047 -1.67814 -4.13438)
(-0.168413 -0.10282 0.217822)
(-0.805868 -0.738353 -0.520312)
(-3.33697 -1.67939 0.584584)
(-0.209994 -0.0408398 -0.622965)
(3.00554 -2.54641 -2.64636)
(-1.53799 -1.4634 0.367666)
(1.35741 -1.95733 -0.981864)
(-1.51383 -0.609128 0.712736)
(0.0509751 -0.236001 -0.35438)
(1.34708 -0.965096 1.93329)
(-1.47074 -3.34856 -0.687303)
(0.580333 -0.749336 0.191929)
(0.455834 -0.269896 1.39638)
(0.254325 -0.233047 0.214569)
(1.1671 -4.52892 -4.82673)
(5.00858 -3.70322 -2.71932)
(2.18345 -1.54012 1.30961)
(-0.340812 -0.553016 1.51978)
(-0.905094 -0.517688 0.390192)
(-0.102919 -1.40265 -1.10002)
(-3.27578 -0.570863 -2.19217)
(-2.5175 -0.722043 1.65783)
(0.0130105 -0.121983 -0.0787397)
(0.165924 -2.49346 0.619047)
(-0.105385 -0.641073 0.875867)
(1.20929 -1.89859 -0.885384)
(3.74505 -0.863733 -2.38981)
(0.643058 -0.694701 1.33337)
(4.75847 -4.27731 0.246551)
(-1.61205 -0.385156 -1.35231)
(-5.46669 -3.20536 -1.27886)
(1.76282 -1.75226 -2.65544)
(2.59908 -1.2941 -5.20993)
(4.95155 -1.48704 -3.21315)
(-1.86434 -2.34345 -0.386004)
(-5.76935 -2.12174 -0.527122)
(8.09617 -2.44923 3.63491)
(0.781249 -0.157521 0.0745448)
(-0.0873411 -0.16771 0.00902176)
(0.479664 -0.263321 1.1224)
(-0.968971 -2.26626 -1.09955)
(0.627455 -0.605162 -1.217)
(-0.0335607 -0.106483 -1.47747)
(-0.344675 -2.65931 0.0186349)
(0.439569 -7.71663 2.77175)
(-1.66057 -0.142448 1.42898)
(2.75793 -1.27846 0.808813)
(-0.232178 -1.3262 -1.0242)
(-2.45633 -1.42472 -0.853697)
(0.493257 -0.717232 0.56433)
(-3.37433 -1.47694 -3.53756)
(-1.28538 -0.213371 -0.0594141)
(1.28479 -1.4113 1.14168)
(1.41487 -5.26924 -1.44527)
(-1.17618 -1.63469 -5.31296)
(-1.57605 -1.72806 -0.372659)
(-0.656406 -1.48582 -3.21911)
(-0.199268 -1.87312 1.25039)
(-0.512946 -1.53376 -1.26024)
(0.0499936 -1.15653 0.0930601)
(-1.4425 -2.22427 2.31715)
(4.47746 -7.81604 8.44396)
(-0.856425 -2.13593 -0.148918)
(-0.416802 -0.382615 0.178246)
(-1.73141 -2.34443 2.08505)
(-0.10212 -1.31815 0.143599)
(-5.75861 -2.99392 0.528855)
(0.631879 -8.56582 -4.59761)
(0.458553 -2.05552 1.97201)
(-0.610887 -0.893642 -0.851023)
(-0.553099 -1.72888 1.67164)
(-6.89598 -2.31631 -5.35942)
(0.47989 -4.2499 0.0764945)
(0.480871 -2.99434 1.00202)
(0.0531318 -0.0811066 0.102963)
(0.893111 -1.65954 -1.24175)
(0.490106 -0.532962 0.833054)
(0.907048 -1.33848 0.265425)
(2.35741 -0.361509 1.11804)
(0.43071 -0.422073 -0.520218)
(-0.0619284 -0.05184 -0.189216)
(0.0290064 -0.22095 0.31276)
(-0.951678 -1.10157 -1.22599)
(-1.56586 -0.767518 3.81293)
(4.10983 -4.09969 3.51925)
(0.11952 -0.169632 -0.102434)
(5.2741 -4.95891 0.786359)
(0.930361 -2.25319 -2.50875)
(-1.69658 -0.913632 1.31468)
(2.10978 -3.17618 0.710123)
(0.0764015 -0.063382 -0.0405552)
(-0.251516 -0.144059 -0.374237)
(-0.0856228 -0.580982 0.144856)
(-2.45085 -1.64679 3.18902)
(-0.252034 -0.211055 0.12604)
(-1.72343 -2.5409 -0.888917)
(0.966104 -0.40083 0.881367)
(9.11464 -2.97722 9.31044)
(-0.0304096 -0.0770382 -0.0169641)
(2.99029 -1.96012 1.65914)
(-1.07781 -0.799856 0.222164)
(0.555205 -0.816534 -0.592417)
(0.129391 -1.70096 -0.908268)
(0.742357 -0.608396 0.916694)
(0.145736 -0.260874 0.280691)
(0.244609 -0.346022 0.792048)
(-0.470249 -2.46385 -2.12236)
(0.140908 -1.24126 -1.16652)
(0.662142 -1.12552 0.556659)
(2.86654 -3.98212 -3.64396)
(-0.173422 -0.226154 -0.331368)
(-0.0545815 -0.0529378 -0.0471861)
(0.349381 -5.7786 0.554366)
(-0.283214 -0.237164 0.141633)
(-2.32899 -2.73045 1.30768)
(1.29791 -4.65926 -0.596606)
(0.847339 -0.641135 1.39869)
(-2.59742 -2.97479 2.19956)
(-1.62478 -0.742044 -1.96539)
(-0.263268 -0.440117 -0.226155)
(-0.0996161 -1.27455 0.213066)
(-1.44787 -0.802178 -3.83357)
(-0.457976 -1.4837 -1.33854)
(1.47531 -0.623637 1.18343)
(1.07306 -1.10498 0.749176)
(6.28663 -1.88429 0.227977)
(-0.963425 -1.43175 0.483941)
(-0.313393 0.00939024 -0.641592)
(-4.6262 -2.29095 -3.99906)
(-1.13657 -0.648376 -0.610686)
(-0.700952 -3.12762 0.377649)
(3.73507 -3.78165 3.6562)
(-3.49546 -3.29595 0.144171)
(-41.7608 2.68113 7.00283)
(-4.72811 25.812 5.71296)
(-1.94315 7.83024 0.913503)
(4.59183 7.92112 5.12203)
(-4.55998 -0.617373 -7.18006)
(-7.58177 2.57078 -2.08599)
(-1.22371 2.53135 -2.57383)
(-1.1737 3.03833 0.949013)
(8.57776 15.7968 -9.76378)
(-0.109081 -1.45372 -1.00848)
(-9.06924 -15.1629 18.1129)
(0.910146 -2.90336 -6.19621)
(-2.53338 0.262029 -0.795641)
(0.11697 -2.78237 3.2646)
(2.36819 -20.291 -10.0677)
(1.25513 0.409573 3.51494)
(0.266789 3.13359 -1.87487)
(-0.707774 0.247117 0.817915)
(-1.94502 5.00756 -10.3934)
(0.517606 0.482002 0.646158)
(1.18426 1.49923 3.6474)
(-3.34965 -5.54796 -7.7457)
(9.96046 1.82426 -6.38859)
(14.1871 -18.4545 9.75401)
(-0.152859 -0.553135 -0.817331)
(5.3015 -9.16398 -3.8716)
(8.68964 0.435489 5.77929)
(-6.81749 2.62896 1.75839)
(-2.14532 5.26098 2.37341)
(-5.06629 -2.31232 0.641532)
(-0.12541 -0.0543903 0.0283529)
(-0.638337 -15.8314 21.803)
(-0.305636 0.180738 -0.0858815)
(4.73855 0.804954 -1.13456)
(-0.119888 -0.660703 -0.11526)
(-1.09763 1.04615 -0.481009)
(0.755146 -6.16057 -2.58257)
(-1.52559 -3.20812 -3.2813)
(7.03865 5.06241 4.81556)
(0.252288 5.75978 3.95405)
(-18.4972 14.2894 -22.5087)
(-31.7008 0.771748 -11.1826)
(-0.191964 -0.0646252 -0.685723)
(9.44229 30.0799 -24.1534)
(3.07324 -2.19045 -1.28169)
(0.866756 0.520237 0.205568)
(-0.782084 0.103905 -1.1546)
(2.87054 -13.2813 -8.67109)
(-5.78516 5.6226 -7.45527)
(0.265919 -0.160108 0.949035)
(-1.55011 5.12518 6.23502)
(-0.280459 6.1288 -4.07449)
(-3.78515 0.968853 11.9054)
(-2.9042 6.18686 -11.8345)
(0.249245 -2.86795 -1.14573)
(-2.86216 1.57235 4.35187)
(3.5405 11.5451 7.66044)
(-0.00485755 0.603402 -1.08699)
(-1.68964 -11.1605 9.17632)
(2.48714 -0.226809 0.0606348)
(9.63997 -0.0938893 -6.3446)
(-1.18351 2.66717 -1.24374)
(-1.35349 -0.144223 -0.403875)
(-3.0863 1.05128 -2.23345)
(2.82818 -4.20689 -1.95475)
(3.78333 -2.72213 1.36401)
(-0.401717 2.75974 -1.05979)
(3.07543 1.95657 -4.61304)
(-4.08475 9.39486 -2.01788)
(3.77418 7.38795 -2.44507)
(2.91542 -10.4658 -1.34012)
(1.7536 1.04575 0.742348)
(8.15194 11.0602 -9.73004)
(-0.153772 0.400547 -0.0605776)
(-6.38399 10.4459 1.39118)
(-1.18996 -0.560151 1.21888)
(3.93388 6.69395 -2.06823)
(8.09733 26.4044 17.5199)
(-10.2828 7.94365 -12.5129)
(1.43988 -5.42978 1.17143)
(-1.05186 3.23443 0.338155)
(-3.65634 11.2431 1.17545)
(0.802735 -0.629708 -0.349174)
(0.970711 -3.33128 -1.73676)
(1.51476 -7.0461 6.21478)
(0.450796 0.270573 0.106915)
(-0.877354 -0.157308 -0.0751152)
(0.104093 -2.92179 -0.194612)
(4.43018 -16.7061 3.60421)
(0.301746 2.98242 0.73787)
(-1.36065 -4.90252 -0.849142)
(-0.0803948 0.253109 0.43238)
(-0.583211 -0.158503 -0.964445)
(4.08433 -1.77116 1.48787)
(-7.0804 0.897673 -9.23269)
(6.70919 -19.6075 1.89215)
(-3.53541 1.60266 -1.44161)
(-9.79242 -3.27235 9.624)
(2.59901 -9.15466 11.1201)
(-0.0446033 -2.91367 4.284)
(-4.32663 5.09935 0.954247)
(-2.82983 2.57354 -8.19587)
(-1.52825 6.98777 10.4702)
(-1.29266 -3.40114 -0.989686)
(12.1237 -12.2918 9.70958)
(-2.11076 -7.29875 -5.17205)
(2.48367 -2.78477 -3.66008)
(-4.53917 -2.0869 11.5752)
(-0.121556 -0.94336 -12.8257)
(-0.869075 -0.162016 1.01382)
(-32.5703 -19.9411 -23.7803)
(8.08844 -4.17939 -1.17647)
(-0.170037 -8.35842 -14.2141)
(3.00936 -0.57116 -1.09523)
(-13.2411 -4.9768 15.0015)
(14.628 -9.49456 0.423634)
(-5.23582 -10.4926 7.54274)
(0.258677 -7.50875 9.74228)
(-3.28283 -19.2426 3.61184)
(4.82459 -4.51911 1.15331)
(2.04162 -33.9626 -7.06128)
(6.04161 -8.74785 -1.32383)
(1.54437 -3.21574 -0.0804058)
(-3.19 -11.4404 -8.19014)
(3.31056 -15.2775 7.02963)
(-0.0859249 -0.127105 0.260116)
(0.0507059 -1.47186 1.90968)
(7.51684 -15.461 -4.1638)
(-5.78322 -8.02661 5.70457)
(-5.27769 -20.6225 3.80288)
(-1.20192 -4.69649 0.866053)
(2.07252 -12.4169 2.4922)
(-5.19202 -6.44819 -3.47686)
(6.48614 -15.4588 11.4586)
(-7.45659 0.170674 -11.4649)
(10.9244 -34.4603 -9.37006)
(-0.412027 -0.492331 -2.45878)
(5.30791 -8.72752 -0.559396)
(1.54458 -3.04698 0.0961859)
(-3.23273 -18.9381 17.3722)
(0.393381 -3.51277 5.09007)
(-5.58517 -30.7663 29.9155)
(-3.39322 -1.50797 -0.957042)
(-12.0747 -3.50477 -1.43142)
(0.887656 -0.25662 1.09694)
(0.528007 -2.12391 1.82817)
(-0.874992 -9.22649 -31.1088)
(0.839991 -3.90176 -0.555047)
(-1.90002 -5.44904 -0.627764)
(0.317876 -0.0510856 0.113369)
(28.3236 -10.5706 16.8571)
(-11.6428 -11.192 3.71806)
(5.02693 -10.4841 2.78325)
(-8.61871 -15.1968 12.051)
(-2.00658 -0.512824 1.36615)
(7.4255 -12.7473 -31.0417)
(-6.13275 -5.69784 -20.2371)
(-0.596015 -1.43291 0.791995)
(-0.563362 -1.98178 -3.47767)
(2.02235 -14.8692 -9.69089)
(-2.36479 -3.17858 0.137937)
(-16.9523 -23.8061 32.9623)
(-1.19616 -0.398677 -1.88818)
(-0.977916 -0.190186 -2.90107)
(3.28153 -17.8323 2.13437)
(-22.6027 -10.6176 -4.16726)
(-4.71754 -6.59571 0.489107)
(-0.485799 -0.283525 1.06301)
(8.00285 -1.15519 0.265758)
(7.9068 -10.6167 -1.38497)
(19.4586 -18.4247 4.81469)
(-9.29617 -3.81908 5.66442)
(5.28463 -2.3646 -5.0305)
(2.6807 -1.62602 -2.98189)
(-0.105669 -0.188769 0.307833)
(1.05036 -3.64103 16.1328)
(-0.128939 -1.76277 1.08173)
(-6.12366 -11.7903 15.6988)
(-3.39786 -5.33713 4.50799)
(-5.14654 -2.94367 2.21871)
(2.94719 -0.648288 -0.81335)
(0.00445246 -5.53861 29.16)
(-4.58588 -6.83579 -2.60808)
(4.71901 -6.81777 -6.21636)
(2.66679 -10.3042 -5.88031)
(0.132424 -4.50908 5.26446)
(13.5368 -2.09941 -8.50466)
(-0.132168 -0.0800355 -0.341594)
(-46.2428 -27.5259 -1.5433)
(-0.991311 -3.54693 -15.3503)
(-4.27136 -1.37534 9.86976)
(-13.5536 -3.88732 8.92536)
(8.63868 -12.8596 2.82397)
(0.0381833 -0.298777 -0.209566)
(3.20897 -3.46668 6.65375)
(-0.35925 -2.56245 -1.5486)
(5.29106 -10.055 -9.78764)
(-3.78142 -1.4837 -2.20743)
(-8.37692 -2.51881 8.10132)
(-27.9837 -8.3895 -26.0175)
(0.21185 -0.165864 0.546427)
(3.82326 0.144825 4.63421)
(7.3374 -4.96238 -2.85384)
(0.798101 -3.17879 2.44327)
(6.37095 -6.81511 -6.58928)
(4.91154 -0.736632 -0.889402)
(-0.514201 -0.066774 -2.63064)
(-15.3789 -1.14783 -4.47088)
(-0.0922014 -0.177043 0.0095238)
(6.34674 -6.30875 -9.56048)
(-7.72396 -4.32675 5.2131)
(-21.1304 0.522641 17.7425)
(1.04391 -3.36089 5.76092)
(-13.8899 -2.70732 10.7753)
(-0.158765 -4.04686 1.76113)
(-4.18537 -1.67685 1.50207)
(14.8159 -6.36737 5.05751)
(-16.5779 -2.47964 14.792)
(-1.76407 -0.292832 -0.0815402)
(1.10759 -2.23346 1.5054)
(-5.92193 -3.23583 1.67673)
(-2.32619 -1.25174 -0.779418)
(0.929093 -3.03197 -4.29485)
(-0.186487 -7.9625 -2.74984)
(24.6209 -53.6199 -29.1834)
(6.95873 -3.46479 -13.9489)
(-0.0419196 -4.55419 -2.74428)
(0.84636 -20.2165 -9.59609)
(0.823673 -4.93703 4.65102)
(-3.126 -8.0256 -6.41393)
(-17.0136 -6.25693 -1.55446)
(-1.0314 -0.627043 -0.469703)
(0.98385 -1.12269 0.611029)
(-3.08731 -3.88072 -0.639216)
(6.30125 -6.11612 1.45691)
(-1.67084 -3.69806 13.8169)
(1.23389 -2.1354 2.28685)
(-2.08095 -4.61357 -9.98534)
(3.845 -8.23751 1.825)
(2.03478 -0.410266 0.194154)
(-4.14311 -3.28831 -3.01797)
(1.53261 -5.01472 1.6403)
(18.0766 -3.14281 10.9167)
(3.39157 -2.96477 1.79072)
(-6.39966 -2.564 2.29675)
(-20.7976 -10.6738 -12.8036)
(-2.71473 -5.50519 -0.109432)
(-0.885047 -4.84881 -3.87351)
(-10.6183 -7.96929 -24.3417)
(5.93161 -2.12413 -2.016)
(3.36996 -3.25023 -6.5363)
(-11.0614 0.109439 -9.41381)
(2.92817 -4.67241 2.32034)
(13.9609 -6.23269 -7.6269)
(2.08625 -6.57196 3.08222)
(2.03156 -35.6641 12.8102)
(-1.06876 -0.228398 0.848652)
(-0.210647 -8.26204 7.23445)
(-0.858739 -7.29795 2.27736)
(-1.26014 -1.02393 7.60039)
(7.67225 -2.54483 -0.35998)
(-2.94633 -3.36876 -1.85911)
(-8.74635 -4.78976 7.55635)
(-3.4518 -7.55411 4.38157)
(11.8329 -3.31916 13.1799)
(6.85605 -7.53113 6.09235)
(-6.56553 -9.12495 -29.6574)
(0.940428 -0.65623 -2.81966)
(-2.88896 -1.70184 -0.555367)
(-33.9889 -5.77573 -9.13052)
(-8.65238 -9.48692 -2.04587)
(-9.6047 -5.23762 -15.9975)
(0.00752624 -0.0498698 0.0349043)
(-27.1462 -14.1134 2.49303)
(0.910057 -0.200285 0.0363535)
(5.03525 -2.56092 -7.92834)
(-16.8518 -4.37298 -10.4871)
(-18.837 -11.9253 10.871)
(0.264736 -6.12429 0.49279)
(56.0362 -23.1434 -5.40595)
(1.85187 -24.2493 -13.6531)
(-0.263892 -1.31444 -1.36167)
(-2.03255 -4.00857 -3.4993)
(-0.466911 -0.0657121 1.60468)
(-0.168932 -0.232225 0.26126)
(1.35093 -4.10209 2.15651)
(2.18797 -1.19648 -0.722444)
(1.82566 -4.23477 3.76024)
(8.09509 -7.44609 -1.39811)
(-8.92413 -2.79964 -11.3301)
(33.1232 -7.26122 -20.2224)
(12.7247 -6.49168 6.26716)
(-2.59054 -1.05918 -0.133866)
(-1.67275 -2.47981 5.38629)
(0.703262 -0.392841 -0.078379)
(0.988415 -1.05792 3.65025)
(2.57288 -11.5333 11.0647)
(5.24675 -4.52956 -3.11777)
(-3.50791 -2.42159 -1.89342)
(8.07993 -9.82841 0.959299)
(2.8027 -3.01246 9.70551)
(10.1744 -1.85281 -19.03)
(13.6828 -2.54663 3.17988)
(-1.568 -5.388 4.97691)
(-0.552843 -0.525921 1.78336)
(-2.90847 -9.09129 8.79032)
(1.00303 -13.5971 -7.29812)
(-0.139419 -0.157943 -0.0972201)
(-0.513997 -0.0725092 2.90012)
(26.0132 0.338242 -16.8387)
(13.2093 -6.62021 38.5237)
(-15.6138 -16.2588 6.2261)
(12.0152 -4.2399 -19.6387)
(5.75065 -2.98613 -1.12019)
(2.05692 -12.8082 4.2861)
(-6.56034 -1.20083 -3.8399)
(2.27213 -0.885078 2.32305)
(1.8188 -1.78232 -2.19677)
(-8.61657 -3.97234 8.07068)
(10.8911 -2.72416 2.24824)
(-4.57442 -6.13719 6.07129)
(0.486053 -0.0160618 -0.114072)
(-0.0779742 -0.303981 -0.058551)
(9.12496 -10.7838 3.18327)
(-1.26856 -1.80576 -0.709852)
(1.33154 -1.04884 -0.706359)
(-8.86532 -6.12632 6.30305)
(1.82072 -2.67771 -1.94275)
(6.78062 1.27546 9.20264)
(-7.18546 1.50502 22.3747)
(-0.791767 -0.896965 -0.552118)
(4.78334 -4.56433 0.127301)
(-6.39379 -4.09721 3.38176)
(3.14952 -1.93871 0.426474)
(-0.525229 -0.567568 5.60401)
(11.4035 -3.45836 0.648931)
(0.945319 -14.7789 -10.9179)
(7.53154 -17.5752 0.541732)
(0.434587 -8.64849 -1.87869)
(3.04588 -5.60688 -0.203157)
(-1.17908 -1.52764 6.61182)
(-0.202659 -2.88377 -2.29189)
(5.40236 -0.342139 8.7793)
(0.863993 -0.245372 0.201273)
(-2.42262 -9.36633 2.01055)
(8.67674 -6.74571 -5.20702)
(37.6813 -12.3083 38.4908)
(-31.3499 -23.0266 -0.68736)
(-4.72131 -5.37754 4.46706)
(-4.27776 -2.96497 -1.57086)
(-0.0363244 -4.09699 -6.72391)
(0.81067 -0.246799 -0.93602)
(10.1175 -16.9734 0.661791)
(7.3291 -11.1911 9.62237)
(3.56425 -1.1539 4.0779)
(-13.3281 -10.3409 -15.8049)
(14.9999 -26.1164 11.2757)
(1.20665 -4.18612 1.54361)
(5.22448 -0.0583187 1.7697)
(-7.01008 -3.20154 -8.47964)
(-4.95606 -3.24849 5.92355)
(1.27431 -3.78738 16.3554)
(15.6416 -9.4514 0.812249)
(-7.91342 -17.3429 1.4132)
(-0.365037 -1.42309 -0.274107)
(-6.11321 -3.53283 5.04396)
(0.696023 -0.98459 2.25374)
(-7.34041 -1.61824 2.97631)
(0.680349 -5.9932 -5.63233)
(1.62907 -0.707492 1.15218)
(-0.739956 0.497697 4.95621)
(-0.62499 -0.299649 0.00581366)
(2.94584 -15.2571 -0.13013)
(1.92261 -4.32466 -3.7065)
(-1.08475 -5.68352 -4.89579)
(1.43408 0.247885 -0.747565)
(-1.46935 -2.57529 3.44083)
(3.55576 -1.77897 -1.29118)
(-6.53666 -9.21118 -5.56115)
(1.70063 -14.1726 -4.6346)
(4.63157 0.532718 2.08294)
(0.909826 -14.2217 -17.1314)
(0.057229 2.29926 -3.36347)
(-12.8342 -8.98614 3.77586)
(-13.0986 21.2403 -5.45428)
(13.9786 -10.8247 -11.8915)
(-1.98319 -2.78984 -2.5722)
(-15.6691 -10.8604 -5.75392)
(-7.71012 34.4789 -15.6029)
(-26.8023 0.646118 -8.24968)
(0.372162 1.53249 -0.0372793)
(9.88624 -13.6664 8.76926)
(-6.70857 0.247636 1.99476)
(-24.6531 25.4513 -16.0273)
(2.10276 -0.0276712 -3.32891)
(-1.44863 8.75427 4.9113)
(0.710647 7.4582 -0.55271)
(2.02793 1.13595 0.0897798)
(-10.9114 -15.0986 1.44394)
(-10.7432 10.0021 -18.0636)
(-6.05865 22.8103 21.0637)
(-5.63532 14.0798 -22.8984)
(1.26409 -14.9272 -26.9262)
(9.17672 7.68845 10.3804)
(-5.64339 -20.2313 -5.52275)
(-3.14786 -2.41346 -2.29001)
(3.77809 -1.1502 -4.36228)
(-0.0127877 0.0546241 0.0595817)
(-0.23459 -0.206044 0.12266)
(8.72302 -3.03841 -1.76525)
(13.5371 -7.3923 -2.0894)
(-2.00203 1.04976 1.08478)
(-0.594567 -1.29902 -0.549308)
(-3.55118 14.8271 3.79672)
(-5.15751 -2.09 -0.59884)
(6.41532 -2.39295 -0.923413)
(1.35714 -0.373007 0.284402)
(0.605461 0.804437 1.26046)
(-0.585157 12.7873 -8.5011)
(4.49891 6.43553 -1.91698)
(-0.732424 0.0408173 -2.2357)
(1.90879 2.23873 -1.04742)
(-0.255287 0.540139 1.50525)
(4.64596 -3.51534 7.66902)
(0.585358 1.87876 -1.44681)
(3.91673 6.95199 6.03857)
(16.0223 -0.456202 11.4891)
(18.8444 0.944401 12.533)
(-5.88991 12.1289 -0.348187)
(-2.029 0.808806 -4.88326)
(0.174867 -0.92502 0.0343342)
(2.59014 -4.20851 -4.31676)
(6.29442 0.683303 3.91267)
(-7.84061 -2.30415 -1.83263)