/*--------------------------------*- C++ -*----------------------------------*\
  =========                 |
  \\      /  F ield         | OpenFOAM: The Open Source CFD Toolbox
   \\    /   O peration     | Website:  https://openfoam.org
    \\  /    A nd           | Version:  7
     \\/     M anipulation  |
\*---------------------------------------------------------------------------*/
FoamFile
{
    version     2.0;
    format      ascii;
    class       scalarField;
    location    "0.7/lagrangian/reactingCloud1";
    object      yH2O;
}
// * * * * * * * * * * * * * * * * * * * * * * * * * * * * * * * * * * * * * //


2545
(
0.022
0.022
0.022
0.022
0.022
0.022
0.022
0.022
0.022
0.022
0.022
0.022
0.022
0.022
0.022
0.022
0.022
0.022
0.022
0.022
0.022
0.022
0.022
0.022
0.022
0.022
0.022
0.022
0.022
0.022
0.022
0.022
0.022
0.022
0.022
0.022
0.022
0.022
0.022
0.022
0.022
0.022
0.022
0.022
0.022
0.022
0.022
0.022
0.022
0.022
0.022
0.022
0.022
0.022
0.022
0.022
0.022
0.022
0.022
0.022
0.022
0.022
0.022
0.022
0.022
0.022
0.022
0.022
0.022
0.022
0.022
0.022
0.022
0.022
0.022
0.022
0.022
0.022
0.022
0.022
0.022
0.022
0.022
0.022
0.022
0.022
0.022
0.022
0.022
0.022
0.022
0.022
0.022
0.022
0.022
0.022
0.022
0.022
0.022
0.022
0.022
0.022
0.022
0.022
0.022
0.022
0.022
0.022
0.022
0.022
0.022
0.022
0.022
0.022
0.022
0.022
0.022
0.022
0.022
0.022
0.0167836
0.0205233
0.022
0.0219676
0.022
0.022
0.022
0.022
0.0207899
0.022
0.022
0.022
0.022
0.022
0.0217206
0.0219733
0.022
0.022
0.0219889
0.0219977
0.022
0.0217875
0.022
0.0219992
0.022
0.0218847
0.0198885
0.0219998
0.0198885
0.022
0.0216949
0.0194272
0.0219765
0.0185073
0.0219459
0.022
0.022
0.0213402
0.022
0.0151639
0.0219677
0.0212038
0.0219971
0.0219996
0.0217953
0.0219327
0.022
0.0219937
0.022
0.021999
0.022
0.022
0.022
0.022
0.0105401
0.0219996
6.41439e-05
0.021977
0.0219941
0.0216984
0.022
0.0219883
0.020699
0.0182475
0.0218535
0.022
0.0219865
0.0219242
0.0219814
0.022
0.0219995
0.022
0.0219791
0.0219992
0.0217792
0.0219998
0.022
0.022
0.022
0.022
0.0219535
0.0219909
0.0218531
0.021995
0.022
0.022
0.022
0.022
0.022
0.022
0.022
0.022
0.022
0.022
0.022
0.022
0.022
5.93023e-05
6.46614e-05
0.0163289
0.0219291
0.0219999
0.0189593
0.0219901
0.0219991
0.0137045
0.0189192
0.0219975
0.021911
0.022
0.0144834
0.022
0.0198272
0.0173159
0.0219023
0.022
0.0010189
0.0219912
0.0219946
0.0143385
0.0219994
0.0199597
0.0122624
0.022
0.00704502
0.0203208
0.00132784
0.0189868
0.0219953
0.0185359
0.022
0.0212702
0.0219828
0.0219999
0.00698333
4.88867e-05
0.022
0.022
0.0212698
0.0219996
0.022
0.022
0.0219999
0.022
0.0219999
0.022
0.022
0.022
0.022
0.022
0.022
0.022
0.022
0.022
0.022
0.022
0.022
0.0219999
0.022
0.022
0.022
0.022
0.022
0.022
0.022
0.022
0.022
0.022
0.022
0.022
0.022
0.022
0.022
0.022
0.022
0.022
0.022
0.022
0.022
0.022
0.022
0.0165212
0.0122186
0.000843127
0.00797507
0.0118848
0.00666772
0.0202355
0.0185106
0.0137834
0.0114911
0.022
0.0202355
0.0219987
0.0195068
0.0219506
0.000654778
0.019049
0.0131738
0.0219804
0.0219947
0.0177498
0.0155471
0.0219985
0.0161114
0.0219999
0.0157095
0.0219535
0.0219989
0.0153008
0.0219997
0.0204654
0.0125948
0.00290565
0.022
0.0211052
0.000983059
0.01916
0.0218365
0.0182581
0.0147448
0.019369
0.0175138
0.0154115
0.0219891
0.0218701
0.000396548
0.0160992
0.0161813
0.0177973
0.0219288
0.0208764
0.0219998
0.0212911
0.0180844
0.022
0.0211893
0.0133
0.0178135
0.0139228
0.0209073
0.022
0.0217184
0.0180959
0.022
0.0219345
0.0157809
0.0129461
0.0219999
5.19243e-05
0.0219976
0.0219999
0.0161702
0.000737241
0.021915
0.0219923
0.022
0.0219998
0.0219985
0.0219979
0.0219995
0.0219998
0.0219994
0.0219998
0.0219931
0.0219977
0.0219997
0.0219968
0.0219994
0.0219997
0.0219979
0.021999
0.0219964
0.0219931
0.0219999
0.0219999
0.0219982
0.0219997
0.0219998
0.0219938
0.0219991
0.0219998
0.0219991
0.0219999
0.0219997
0.0219968
0.0219964
0.0219955
0.0219974
0.0219999
0.021995
0.0219997
0.0219944
0.0219974
0.0219999
0.0219999
0.021999
0.021995
0.0219999
0.0219974
0.0219971
0.0219996
0.0219984
0.0219991
0.0219999
0.0219988
0.0219971
0.021996
0.0219964
0.0219998
0.0219931
0.0219968
0.0219997
0.0219968
0.0219999
0.0219998
0.0219993
0.0219993
0.0219988
0.0219955
0.021996
0.0219964
0.0219993
0.0219993
0.0219994
0.0219979
0.0219993
0.0219968
0.0219977
0.0219971
0.0219985
0.021996
0.0219971
0.0219995
0.0219994
0.0219984
0.0219998
0.021996
0.0219994
0.0219938
0.0219992
0.0219996
0.0219974
0.00393866
0.00250439
0.0159684
0.0135961
0.00824625
0.0219
0.0176909
0.00932298
0.0154431
0.0137376
0.0217695
0.000562251
0.00200989
0.0176126
0.00919215
0.0219957
0.000668841
0.00181129
0.000335533
0.0155585
0.0186934
0.0166268
0.0169855
0.0219898
0.0217353
8.63794e-05
0.00288212
0.00912097
0.00459212
0.0219951
0.0219684
0.0219716
0.0219472
0.00308919
0.0142689
0.0219982
0.0168509
0.0200846
0.0213287
0.0210967
0.0219997
0.0158131
0.0219988
0.000152274
0.0108098
0.0218584
0.0219526
0.0218398
0.0219618
0.00272608
0.0185489
0.021908
0.0213489
0.0173462
0.0201015
0.000205165
0.0219618
0.0159126
0.0159126
0.0203017
0.0219057
0.011724
0.017721
0.02092
0.00901945
0.0102153
0.0171709
0.0207842
0.0176893
0.0218008
0.0219999
0.021939
0.0219921
0.000467343
0.021993
5.34505e-05
0.0184209
0.000125602
0.0150416
0.0150416
0.0219985
0.0218875
0.0216458
0.0219047
0.0219377
0.0209786
0.0219439
0.0219754
0.0218771
0.0219494
0.0219869
0.0214631
0.0219914
0.0219377
0.0219904
0.021565
0.0219754
0.0218771
0.0219588
0.0219047
0.021982
0.0207421
0.0216458
0.0216458
0.0216458
0.0207421
0.0219854
0.0218027
0.021982
0.0204646
0.0204646
0.0219894
0.0218339
0.0219309
0.0213349
0.0219923
0.0219149
0.0219728
0.0219754
0.0219439
0.0219882
0.0219665
0.021858
0.0211751
0.0219377
0.0214631
0.0219838
0.0207421
0.0207421
0.0218771
0.0214631
0.0213349
0.0219629
0.0207421
0.0218771
0.0204646
0.0204646
0.0213349
0.0217614
0.0219904
0.0216458
0.0213349
0.0211751
0.021982
0.0209786
0.0219494
0.021565
0.0219698
0.0219838
0.0219754
0.0219543
0.0219588
0.0216458
0.0214631
0.0214631
0.0219543
0.0219665
0.0219904
0.0219923
0.0218771
0.0219904
0.0218027
0.0219854
0.0211751
0.0219494
0.0218339
0.0219377
0.0219923
0.0209786
0.0219698
0.021982
0.0217614
0.0209786
0.02198
0.0217614
0.0214631
0.0218027
0.0219923
0.0216458
0.0219838
0.0219543
0.0204646
0.021982
0.0219698
0.0218771
0.0218027
0.0219894
0.0219854
0.0219543
0.0214631
0.021858
0.0217101
0.0213349
0.0219904
0.0219665
0.021858
0.0219923
0.0207421
0.0213349
0.0219494
0.0204646
0.0219377
0.0219914
0.0219047
0.0219728
0.021858
0.0217101
0.0217101
0.0219494
0.021858
0.0219047
0.0204646
0.021565
0.0209786
0.0219923
0.0219728
0.0204646
0.0218771
0.021982
0.02198
0.0219629
0.0219728
0.0219543
0.0219309
0.0219838
0.0207421
0.0219494
0.0214631
0.0207421
0.0211751
0.0218027
0.021565
0.0219779
0.0217614
0.00151841
4.8568e-05
0.00043573
0.000876309
0.00930749
0.00758732
0.0153877
0.0139241
0.00564185
0.0218771
0.0167883
0.0183847
0.0197919
0.0217614
0.0114562
0.00560265
0.0133915
0.0211751
0.0150994
0.0111759
0.00877071
0.00693622
0.00511
0.00311408
0.0149085
0.00427794
0.0132718
0.00212182
0.00499221
0.0115286
0.0203805
0.00558084
0.0217101
0.0217101
0.021858
0.019626
0.021748
0.0173048
0.0132084
0.00720851
0.00152557
0.0101069
0.0070223
0.00677876
0.0125952
0.015893
0.0157395
0.0218327
0.0122343
0.0213532
0.0133561
0.00961024
0.0168504
0.0036175
0.0185954
0.0215635
0.00490213
0.0172386
0.00223529
0.0219047
0.0150969
0.0218951
0.0174566
0.0219377
0.01143
0.0180992
0.00110361
0.00215559
0.00758109
0.0140879
0.0161261
0.0219157
0.00977287
0.0219629
0.00583046
0.0217122
0.016507
7.39674e-05
0.0107191
0.0219361
0.0219665
0.00393804
0.0201905
0.0217154
0.0184487
0.02198
0.0219838
0.0100322
0.0188789
0.018546
0.00261566
0.0219869
0.0219882
0.0178238
0.000758371
0.000885303
0.0219919
0.00710015
0.0188831
0.0198899
0.0141213
0.0104371
0.0084206
0.0149987
0.0185776
0.0115828
0.0106608
0.0141579
0.0091084
0.0137537
0.0091084
0.0122573
0.0133613
0.0190042
0.00806508
0.0133613
0.00770072
0.00787944
0.0185776
0.0158765
0.00983918
0.0126129
0.019795
0.0112638
0.0101025
0.0103762
0.0103762
0.00845836
0.0133613
0.00958599
0.0201476
0.0109565
0.0154337
0.00736281
0.0167791
0.0126129
0.0141579
0.00787944
0.00825795
0.00958599
0.0176881
0.0112638
0.0176881
0.00934253
0.0133613
0.00806508
0.00934253
0.0185776
0.0163257
0.0115828
0.00866668
0.0176881
0.0154337
0.00825795
0.0112638
0.012981
0.0133613
0.0154337
0.0167791
0.00770072
0.00736281
0.0119139
0.0201476
0.00806508
0.00752861
0.00958599
0.0119139
0.00806508
0.0119139
0.0176881
0.0091084
0.0133613
0.00825795
0.0167791
0.0126129
0.0126129
0.0172342
0.00720306
0.00736281
0.00806508
0.00983918
0.00770072
0.0176881
0.0176881
0.0137537
0.0133613
0.00770072
0.0137537
0.00888324
0.0103762
0.00983918
0.00958599
0.0149987
0.0181373
0.00752861
0.00983918
0.00752861
0.0149987
0.0167791
0.00825795
0.0201476
0.0122573
0.0176881
0.0115828
0.019412
0.0103762
0.00787944
0.0106608
0.0122573
0.0154337
0.0122573
0.0133613
0.0122573
0.0103762
0.019795
0.0145731
0.00720306
0.00983918
0.0176881
0.012981
0.00770072
0.0158765
0.00958599
0.0141579
0.00934253
0.012981
0.0176881
0.0106608
0.0190042
0.00983918
0.0091084
0.0109565
0.0122573
0.0141579
0.0141579
0.0106608
0.0176881
0.0154337
0.019412
0.0141579
0.0115828
0.0176881
0.00958599
0.0101025
0.00958599
0.0122573
0.0141579
0.0126129
0.012981
0.00983918
0.00934253
0.00866668
0.0158765
0.00845836
0.0141579
0.0137537
0.0133613
0.00806508
0.00866668
0.00825795
0.0119139
0.0137537
0.012981
0.0109565
0.00736281
0.00752861
0.00888324
0.0201476
0.012981
0.0137537
0.00958599
0.00825795
0.0145731
0.0115828
0.0190042
0.00825795
0.0112638
0.00958599
0.0101025
0.00736281
0.0122573
0.00934253
0.0145731
0.0109565
0.0181373
0.00720306
0.0109565
0.00720306
0.0122573
0.00958599
0.00736281
0.00958599
0.0176881
0.00806508
0.0101025
0.019412
0.00806508
0.0185776
0.00752861
0.0141579
0.0115828
0.00845836
0.0115828
0.00787944
0.0163257
0.00958599
0.0190042
0.0201476
0.0190042
0.00845836
0.0106608
0.0122573
0.00934253
0.0185776
0.012981
0.00845836
0.0176881
0.0149987
0.00825795
0.0141579
0.0190042
0.0158765
0.0149987
0.00825795
0.00720306
0.00888324
0.0181373
0.00866668
0.0145731
0.0141579
0.00787944
0.00934253
0.0172342
0.0137537
0.0190042
0.012981
0.0101025
0.019412
0.0103762
0.00736281
0.00720306
0.0103762
0.0115828
0.00770072
0.0106608
0.00845836
0.0091084
0.00983918
0.00866668
0.0137537
0.0176881
0.0185776
0.0109565
0.0185776
0.00806508
0.0109565
0.0122573
0.019795
0.00752861
0.0141579
0.0167791
0.0119139
0.0176881
0.0119139
0.0106608
0.0176881
0.0185776
0.0103762
0.0126129
0.0115828
0.0167791
0.0172342
0.0145731
0.0145731
0.019412
0.019795
0.019412
0.019795
0.0167791
0.0181373
0.00934253
0.0126129
0.00027702
0.0185776
0.000209517
0.00983918
0.0109565
0.0091084
0.000406495
0.00298439
0.0013785
0.0122573
0.00436333
0.000598486
0.00252878
0.00432283
0.00180292
0.00470011
0.00592487
0.00197935
0.00257813
0.00373294
0.00499765
0.00548295
0.0167791
0.00654487
0.00703047
0.00505525
0.0122573
0.00585379
0.00744574
0.00752001
0.0154337
0.0038181
0.00776009
0.00769787
0.00344899
0.00785971
0.00629959
0.00472503
0.00825795
0.008153
0.00805579
0.00958599
0.00212913
0.00255483
0.00707995
0.007431
0.00771446
0.0082418
0.00845836
0.0172342
0.0086628
0.00863785
0.00186946
0.00769869
0.00893524
0.0115828
0.00231903
0.00699158
0.00571817
0.00575001
0.00493531
0.00856029
0.00795883
0.00889305
0.00743592
0.00847134
0.00795883
0.0126129
0.0072345
0.00598517
0.00769468
0.0190042
0.0100068
0.00594164
0.0084317
0.0149987
0.0103354
0.00452378
0.0099405
0.00722135
0.00877713
0.0099405
0.00833594
0.0077102
0.0112638
0.00796642
0.0016253
0.00988264
0.0104547
0.00329514
0.00345257
0.000593472
0.0110769
0.0092559
0.0115606
0.0122573
0.00791287
0.0122573
0.000250692
0.0145731
0.00106397
0.000973421
0.00703162
0.00895099
0.0129788
0.0077349
0.0112017
0.00122682
0.0118942
0.0132272
0.00434235
0.0133397
0.00383059
0.0119172
0.013487
0.0140133
0.0083958
0.0145907
0.00327033
0.0148515
0.0148515
0.00832826
0.00986064
0.00548122
0.0154133
0.00789148
0.00817457
0.0163257
0.0154388
0.0154388
0.00906882
0.00588769
0.0077177
0.00559318
0.0161445
0.011375
0.0136314
0.0138916
0.0167335
0.0169686
0.0173297
0.0123121
0.00259882
0.0177883
0.0187394
0.0112485
0.015784
0.00658145
0.000478428
0.00949879
0.00640793
0.0187487
0.00996161
0.019412
0.0108415
0.000796066
0.0145618
0.00766812
0.0196526
0.0200984
0.00396455
0.0172135
0.0200984
0.0183807
0.0063573
0.00494331
0.00510854
0.006486
0.00381743
0.00611295
0.0042493
0.00704909
0.00528435
0.00437266
0.00661931
0.0056714
0.00611295
0.00577631
0.00431012
0.00443697
0.00457123
0.00704909
0.00556989
0.00381743
0.00402195
0.00386662
0.00431012
0.00471349
0.00577631
0.00478782
0.00471349
0.006486
0.00391707
0.00623302
0.00519507
0.00391707
0.00661931
0.00556989
0.0042493
0.00611295
0.00419013
0.00391707
0.0053765
0.00588477
0.0056714
0.00556989
0.00407652
0.00599693
0.00675745
0.00599693
0.00704909
0.00486439
0.00599693
0.0056714
0.00478782
0.00486439
0.00502466
0.00443697
0.00471349
0.00502466
0.00381743
0.0063573
0.00402195
0.00402195
0.00690063
0.00661931
0.00407652
0.00372255
0.0042493
0.00464132
0.00611295
0.00450314
0.00690063
0.00413256
0.00407652
0.00494331
0.0053765
0.00419013
0.00372255
0.00519507
0.00457123
0.00547163
0.00386662
0.00443697
0.0056714
0.00419013
0.00437266
0.00402195
0.00381743
0.00464132
0.00704909
0.00556989
0.00528435
0.00413256
0.00457123
0.00704909
0.00623302
0.00547163
0.00396882
0.00556989
0.00528435
0.0063573
0.00437266
0.00599693
0.00402195
0.00391707
0.00407652
0.00431012
0.00599693
0.00443697
0.00437266
0.00690063
0.00419013
0.00510854
0.00547163
0.00494331
0.0042493
0.00623302
0.00704909
0.0056714
0.00450314
0.00661931
0.00376943
0.00381743
0.00419013
0.0063573
0.00690063
0.00661931
0.00577631
0.00510854
0.00419013
0.00457123
0.00588477
0.00588477
0.00528435
0.00431012
0.00450314
0.00502466
0.006486
0.00450314
0.00556989
0.00471349
0.0063573
0.0063573
0.00675745
0.00413256
0.00471349
0.00623302
0.00437266
0.00611295
0.00372255
0.00450314
0.00519507
0.00443697
0.00443697
0.00556989
0.00547163
0.00556989
0.00623302
0.00704909
0.00478782
0.00577631
0.0042493
0.00471349
0.00494331
0.00623302
0.0042493
0.00471349
0.00623302
0.0053765
0.00547163
0.00450314
0.00599693
0.006486
0.00386662
0.00494331
0.00437266
0.006486
0.006486
0.00704909
0.00502466
0.00547163
0.00471349
0.00623302
0.00577631
0.00396882
0.00478782
0.00396882
0.00675745
0.00588477
0.00577631
0.00457123
0.00402195
0.00675745
0.00407652
0.00704909
0.00599693
0.00528435
0.00588477
0.00528435
0.00494331
0.0056714
0.006486
0.0056714
0.006486
0.00464132
0.00457123
0.00457123
0.00661931
0.00478782
0.00502466
0.0056714
0.00402195
0.00450314
0.00588477
0.00464132
0.00611295
0.00450314
0.0053765
0.0053765
0.00396882
0.00381743
0.00407652
0.00381743
0.00623302
0.00588477
0.00519507
0.00360486
0.00381743
0.00106184
0.00486439
0.00494331
0.0063573
0.00502466
0.00152259
0.00138199
4.94251e-05
0.0015612
0.0012184
0.00368261
0.00329912
4.8568e-05
0.00162352
0.00207274
0.0037118
0.00547163
0.00242372
0.00370249
0.00328665
0.00379947
0.000395065
0.00376632
0.00379286
0.00348262
0.00166619
0.00233855
0.00335384
0.00385821
0.00356954
0.00272766
0.00315324
0.00391828
0.00298043
0.00182462
0.00391131
0.00199811
0.00281189
0.00367779
0.00416743
0.00395985
9.24561e-05
0.00386191
0.00413256
0.000423307
0.00404763
0.00400008
0.00437266
0.000959421
0.000607923
0.0039316
0.00313516
0.00178423
0.000427335
0.00316326
0.00305545
0.00372639
0.00428973
0.00431012
0.000423307
0.00329368
0.00188631
0.006486
0.00324832
0.00486439
0.00422939
0.00422939
0.00430945
0.00704909
0.00333771
0.00430356
0.00422252
0.00412963
0.00173419
0.00161194
0.00398121
0.00377274
0.00448593
0.00148233
0.00155418
0.00405689
0.00447711
0.00386028
0.00494331
0.00467457
0.00478731
0.000247347
0.00298211
0.00486311
0.00462234
0.00494033
0.00457989
0.00426911
0.00611295
0.00182903
0.00174736
0.000550491
0.00435662
0.00401082
0.0056714
0.00519401
0.00154537
0.00518347
0.0033527
0.000441205
0.00522953
0.00374158
0.00496399
0.0032996
0.00422149
0.00206869
0.00498764
0.00410942
0.00503646
0.00556989
0.00498401
0.000132988
0.0041161
0.0013521
0.00502444
0.00494486
0.00196209
0.00235488
0.00258515
0.00368111
0.00491484
0.00396616
0.00584693
0.000707263
0.00127262
0.0028842
0.00057693
0.00255577
0.0056241
0.000450181
0.00559791
0.00395559
0.00459851
0.00160235
0.0057293
0.00484192
0.00538576
0.00615045
0.00621473
4.8568e-05
0.00318281
0.00187583
0.0032152
0.0064291
0.000130241
0.00630418
0.00394299
0.0055462
0.00231724
0.00568816
0.00675092
0.00574152
0.00345607
0.00280233
0.00364175
0.00704909
0.00326115
0.00238008
0.00315369
0.00232195
0.00246877
0.00268327
0.00304694
0.00363188
0.00326471
0.00252894
0.00311766
0.00262084
0.0027467
0.00322719
0.00308209
0.00326471
0.00308209
0.00350278
0.00268327
0.00308209
0.00315369
0.00268327
0.00308209
0.00281121
0.00262084
0.00354497
0.00363188
0.00346138
0.00308209
0.00319019
0.00268327
0.00338077
0.00265193
0.00249875
0.00255935
0.00255935
0.00246877
0.0028439
0.00249875
0.0029102
0.00319019
0.0033028
0.00346138
0.00265193
0.00235092
0.00287689
0.0027467
0.00346138
0.00246877
0.00334147
0.00304694
0.00262084
0.00363188
0.00252894
0.00350278
0.0029102
0.00354497
0.00354497
0.0033028
0.00304694
0.00297784
0.0029102
0.0028439
0.00255935
0.00265193
0.00232195
0.00308209
0.00268327
0.00346138
0.00326471
0.0033028
0.0033028
0.00326471
0.00350278
0.00232195
0.0033028
0.00342073
0.00319019
0.00277881
0.00297784
0.00326471
0.00232195
0.00326471
0.00265193
0.00338077
0.00342073
0.00252894
0.00281121
0.00367672
0.0029102
0.00338077
0.00322719
0.00265193
0.00342073
0.00363188
0.00334147
0.00252894
0.00265193
0.00238008
0.00232195
0.00367672
0.00311766
0.00287689
0.00240944
0.00281121
0.00258998
0.00297784
0.00334147
0.00277881
0.00238008
0.00301219
0.00262084
0.00326471
0.0027467
0.00249875
0.00354497
0.00287689
0.00287689
0.00255935
0.00338077
0.00235092
0.0029102
0.00268327
0.00338077
0.00311766
0.00367672
0.00240944
0.00350278
0.00350278
0.0028439
0.00319019
0.00281121
0.00338077
0.00304694
0.00262084
0.00363188
0.00238008
0.00322719
0.002439
0.00268327
0.00346138
0.00311766
0.00255935
0.00319019
0.0027467
0.00354497
0.0027467
0.00308209
0.00271485
0.002439
0.00281121
0.00246877
4.8568e-05
0.00358798
5.47699e-05
4.8604e-05
0.00326471
0.0028439
4.8568e-05
0.00319019
0.000360232
4.8568e-05
0.00367672
4.8568e-05
0.00130675
0.00308209
0.00338077
0.00326471
0.00311766
6.26467e-05
0.000686651
0.00122944
4.8568e-05
0.0027467
0.00065559
0.000902304
0.00152062
0.000917032
4.868e-05
0.0033028
0.00238008
0.0023215
0.00148006
4.86609e-05
4.87282e-05
0.00222739
0.00222709
4.85683e-05
4.8568e-05
0.00070861
0.00129269
0.00087934
0.00238008
0.000811777
0.00232982
0.00234473
0.00221514
0.00297784
0.00281121
0.0023571
0.0023694
0.00221349
0.00350278
0.00159446
0.00222281
0.00241377
0.000708084
0.00128414
0.00238861
0.00246861
0.00240616
0.00238157
0.00241377
0.00210191
0.000518988
0.001756
0.00252779
0.00252877
0.00240883
0.00248925
0.00255917
0.00247517
0.00132024
0.00230978
0.00228799
5.11234e-05
0.0019773
0.00258938
0.00287689
0.00258687
0.00261957
0.00182814
0.000783866
0.000213639
4.85899e-05
0.002267
0.000246896
0.00155707
0.000683638
0.00263731
0.000277375
0.00256671
0.00222607
0.0018881
0.00223252
0.00211714
0.00225735
0.0029102
0.000635343
0.002104
0.00311766
0.00273582
0.00107486
0.00169527
0.00277859
0.00209411
0.00266434
0.00280739
0.000738012
0.000930647
0.0026486
0.00284314
0.00230862
0.00237986
0.00284314
0.00281236
0.00236104
0.00271292
0.00278905
0.0020333
0.00285899
0.00322719
0.00176839
0.00100451
0.00225457
0.00169747
0.00286469
4.8568e-05
0.00263477
0.00187829
0.00292218
0.00241128
0.00230698
0.00100382
4.8568e-05
0.000736506
0.00153453
0.00298197
0.00233969
0.00257696
0.00108526
0.00187004
0.00303855
0.00256269
0.00306151
0.000579428
0.000539892
4.8568e-05
0.00263053
0.00242357
0.0026279
0.00300204
0.00247707
0.00313743
0.00325918
0.0033028
0.00288476
0.00325118
0.00316422
0.0031087
0.00323811
0.00288255
0.00190732
0.00204547
0.0015194
0.00316562
0.000825389
0.00322616
0.00305529
0.00141589
0.00136445
0.00350278
0.00268394
0.00318581
0.00199397
0.00207297
0.00191566
0.00325793
0.000557488
0.0032328
0.00340347
0.00307275
0.00266875
0.00351498
0.00329577
0.00247956
0.000263765
0.00137399
0.00367179
0.000842839
0.00146163
0.00220803
0.00183219
0.00139135
0.00212461
0.00131859
0.00226461
0.0014271
0.00220803
0.00158307
0.0020429
0.00212461
0.00153892
0.0019628
0.00206995
0.00180638
0.00163014
0.00165449
0.00183219
0.00163014
0.00146163
0.00198933
0.00149849
0.00226461
0.0020429
0.00175507
0.0017043
0.00167924
0.00215222
0.00149849
0.00167924
0.0016063
0.0017043
0.00193642
0.00165449
0.00151822
0.00158307
0.00175507
0.0016063
0.00180638
0.00165449
0.00134663
0.00165449
0.0019628
0.00220803
0.00212461
0.00215222
0.00218002
0.00223622
0.00165449
0.00223622
0.00188409
0.00212461
0.00201602
0.00140977
0.0014442
0.0017296
0.00137069
0.00209719
0.00151822
0.0019628
0.00167924
0.00198933
0.00212461
0.00220803
0.00209719
0.00223622
0.00153892
0.0017043
0.00198933
0.00139135
0.00146163
0.00220803
0.00146163
0.00149849
0.00223622
0.00183219
0.00220803
0.00201602
0.00153892
0.00149849
0.00206995
0.00163014
0.0017296
0.00134663
0.00215222
0.00178067
0.00140977
0.0020429
0.00167924
0.00183219
0.00147966
0.0014271
0.00165449
0.00163014
0.0020429
0.00220803
0.00137069
0.0016063
0.0014442
0.00218002
0.00139135
0.00223622
0.00175507
0.00147966
0.00206995
0.00163014
0.00147966
0.00175507
0.00180638
0.00220803
0.00153892
0.00151822
0.00218002
0.00215222
0.00165449
0.00151822
0.00193642
0.00163014
0.0017043
0.00229319
0.00153892
0.00220803
0.00229319
0.00178067
0.00156057
0.00229319
0.00163014
0.00151822
0.00180638
0.00156057
0.0020429
0.00167924
0.00215222
0.00153892
0.00140815
0.00134663
0.00140977
0.00188409
0.00178067
0.00137069
0.00218002
0.0014442
0.00193642
0.0020429
4.85977e-05
0.00175507
4.85693e-05
0.00146163
0.0014442
4.8568e-05
0.00131859
4.88459e-05
0.00158307
0.00183219
0.000146458
4.85686e-05
4.8568e-05
4.8568e-05
0.000657285
0.00201602
4.86532e-05
0.00158307
0.0020429
4.8568e-05
4.8568e-05
0.000580961
4.8568e-05
0.00167924
0.00215222
4.8568e-05
4.8568e-05
0.000983407
0.00113306
0.00111567
0.000885318
0.000636494
0.00103781
0.00039847
0.00039847
0.000831468
0.000102076
0.0017043
0.000967116
4.8568e-05
0.00124503
0.000697916
0.00075935
8.27643e-05
0.00112286
0.00127587
0.000987449
0.00131747
4.85681e-05
0.00127939
0.000422051
0.0012722
0.00131493
0.00149849
0.0012198
0.00108537
0.000129023
0.00125065
0.00130617
0.0012777
0.000815681
0.00120178
0.00206995
4.87933e-05
0.00115502
0.00120178
0.00134477
0.00220803
0.00131744
0.000483773
0.00116679
0.00113713
0.00135042
0.00134099
0.00095217
0.00118554
4.8572e-05
0.00122156
0.000961638
0.00127587
0.00133613
4.8568e-05
0.00149777
0.00188409
0.00136689
0.00134856
0.00131325
4.8568e-05
4.8568e-05
0.00130217
0.000884172
0.00135579
0.00116656
0.000760464
0.000719736
0.0020429
0.00130338
0.00111007
0.00138122
0.0013278
0.000976062
4.8568e-05
0.000567839
0.00109581
5.50216e-05
0.00140027
0.00103585
0.000228677
0.000227261
0.00122006
0.000501899
0.00183219
0.000943988
0.00139509
0.00119301
0.0014271
0.00131642
0.00138929
0.000780271
0.000870507
0.00140624
0.000553046
0.00226461
0.000492938
0.00223622
4.8568e-05
0.00135716
0.00139732
0.00142706
0.00134428
0.0014258
0.00149657
0.000993775
0.0013643
0.00127788
0.00143981
0.00108261
0.00142473
0.00125018
0.00180638
0.000998716
0.000597909
0.00119242
0.000948124
4.85746e-05
0.00133922
0.00132706
0.00149849
0.00139732
0.0016063
0.000854279
0.00088058
0.000801789
4.87115e-05
0.00137662
0.00144416
4.86892e-05
0.00088058
0.00116933
0.00147565
0.000584913
0.000536816
0.00145106
0.000974323
0.00147498
0.000338027
4.8568e-05
0.00149433
4.87115e-05
0.0013203
0.00141904
0.000306701
4.8568e-05
0.00151668
0.00150302
0.00113735
0.00175507
0.0014838
0.000913547
0.0015174
0.000911149
4.8568e-05
0.00126199
0.0012122
0.00148569
0.00188409
0.00215222
4.8568e-05
0.000802268
0.00096277
0.000501468
0.00135167
0.00122248
0.00127134
0.00140193
4.8568e-05
0.00117864
0.00145948
0.000748638
0.00137441
0.000854992
0.000760253
0.00150664
4.8568e-05
0.0015329
4.85735e-05
0.00153315
0.00120928
8.89326e-05
0.0014502
0.000179491
0.000999045
4.91209e-05
0.00109921
0.00115522
0.0017296
0.00117274
0.00150676
0.0014851
0.00155276
4.89571e-05
0.00155041
0.00105417
0.000333024
0.000685751
0.00132145
0.00138364
4.8568e-05
0.00155726
0.00158561
0.00156653
0.00129006
0.00045954
0.00130858
0.00139012
8.33797e-05
4.8568e-05
4.8568e-05
0.00162916
0.000735889
0.0016034
0.00117776
4.86036e-05
0.00160933
0.00155127
0.00142318
0.00107982
0.00158439
4.88706e-05
0.00163863
0.00114565
0.000853677
0.00161033
0.00118975
0.0012542
0.00137463
0.00154298
0.00162187
0.00143073
0.00167668
0.00133574
4.85685e-05
0.00139863
0.00106091
0.00229319
0.000105393
0.000952368
0.00143345
0.00124083
0.00153785
0.000719655
0.00030833
0.0017043
0.000820872
0.00165837
0.00170276
0.00226461
0.00167097
0.00157558
0.00172616
0.001728
0.00168202
0.00172616
0.00175484
4.8568e-05
0.00158794
4.8568e-05
0.00167516
0.00102806
0.00153861
4.8568e-05
0.00142521
0.000771779
0.0016129
0.000526235
0.00168713
4.8568e-05
0.0017681
0.000945432
0.00180638
0.00144859
0.00175811
0.00198933
0.0016854
0.00167018
0.00218002
0.00167018
0.00171022
0.00181871
4.8568e-05
0.00179912
0.000382027
4.8568e-05
4.85683e-05
0.000961914
0.0015797
4.85697e-05
0.00180464
0.001884
0.000631052
0.00185618
0.00109395
0.00180763
0.00185554
4.8568e-05
0.00180484
4.8568e-05
0.000382027
0.00190923
0.0016324
0.00175503
0.00154516
0.00190874
0.00152632
0.00162609
0.00162609
4.8568e-05
0.0014407
0.00184972
0.00146972
0.000303124
0.00135132
0.00189855
0.00185301
0.00158969
5.57374e-05
0.00144799
0.00175184
0.00187389
0.00132853
0.00100858
0.000857325
0.00121913
4.8568e-05
4.8568e-05
0.00132262
0.00195904
0.00187204
0.00215222
0.00184927
0.00198338
0.00164233
0.00127297
0.000664685
0.00155383
0.0019331
0.00198446
0.00176917
0.00139623
0.00185879
0.00106026
0.00183644
0.0019903
0.00201602
0.00173602
0.0019594
0.00189164
0.00185162
0.00110295
0.0020377
0.00119063
0.00157521
4.86541e-05
0.00108423
0.0013281
0.00110564
0.00186012
0.000718246
0.000824055
0.00206458
4.8568e-05
0.00208238
0.000614033
0.00194183
0.00209794
0.00118113
0.00206621
0.00177768
0.00165512
0.00180085
0.00220803
0.002088
0.00160352
0.00193573
0.00192896
0.00166035
0.00212923
0.00194285
0.00216765
0.000686601
4.8568e-05
0.00217274
0.00190288
0.00212638
0.00209671
0.00220298
0.00221885
0.00218214
4.8568e-05
0.00223622
0.000612555
0.00107477
0.00223631
0.00200528
0.00170115
0.0019818
0.000939378
4.8568e-05
0.00223912
0.00229274
0.00226399
)


// ************************************************************************* //
