/*--------------------------------*- C++ -*----------------------------------*\
  =========                 |
  \\      /  F ield         | OpenFOAM: The Open Source CFD Toolbox
   \\    /   O peration     | Website:  https://openfoam.org
    \\  /    A nd           | Version:  7
     \\/     M anipulation  |
\*---------------------------------------------------------------------------*/
FoamFile
{
    version     2.0;
    format      ascii;
    class       labelField;
    location    "0.145/lagrangian/reactingCloud1";
    object      cellId;
}
// * * * * * * * * * * * * * * * * * * * * * * * * * * * * * * * * * * * * * //


1205
(
23
50
86
81
83
115
113
114
152
149
111
152
185
257
366
327
361
360
391
393
398
395
433
435
397
470
465
503
500
576
577
497
530
577
573
606
636
672
676
671
741
775
841
816
840
839
867
869
869
893
893
915
944
973
1003
997
1057
1048
962
1043
961
1028
1023
1007
988
962
944
921
918
917
893
865
853
841
829
808
580
681
771
758
723
703
702
671
673
641
635
603
583
561
564
551
400
512
488
320
444
445
428
419
384
395
371
342
326
308
309
282
267
248
223
230
180
185
163
167
140
125
109
106
81
60
72
47
30
1
2
855
955
895
1036
1038
936
655
1019
958
1002
981
981
986
982
986
942
921
838
901
677
881
861
818
845
847
696
805
759
807
811
767
718
727
616
657
707
690
535
643
618
621
578
605
600
586
563
568
550
524
497
503
507
458
443
418
397
399
640
200
560
440
800
240
990
949
864
886
925
848
854
784
785
622
788
749
776
734
583
608
542
564
503
573
548
441
423
469
408
343
348
353
336
241
222
245
247
222
251
183
212
161
40
127
108
111
93
90
63
40
28
0
1
11
3
553
427
464
433
632
463
518
488
478
517
572
572
595
623
615
680
729
900
752
813
841
893
895
974
384
383
382
363
321
327
325
303
283
289
237
245
219
221
185
43
20
60
35
49
0
1
15
112
82
82
242
150
364
194
146
190
191
235
240
143
401
142
279
357
187
185
231
318
269
269
269
527
271
268
271
571
270
264
521
438
524
304
351
310
351
346
348
344
390
604
387
389
433
389
430
432
429
690
428
427
468
466
464
686
511
599
555
512
508
638
551
550
551
551
766
552
548
591
589
627
630
630
634
630
624
630
670
673
762
671
668
671
667
713
669
716
712
798
753
710
707
750
753
750
749
793
792
789
794
789
789
787
790
965
834
831
835
833
827
829
875
874
915
910
914
984
948
956
953
950
952
11
26
11
11
41
4
9
8
23
59
20
19
40
15
36
35
38
39
129
37
129
168
130
55
129
57
54
53
163
52
127
236
125
124
119
161
159
158
192
229
155
196
193
228
190
228
219
263
260
258
332
290
332
297
403
366
442
366
329
330
331
366
436
398
433
469
426
425
430
430
503
462
537
502
464
495
538
491
534
495
530
529
605
663
604
601
664
631
626
692
661
661
655
691
723
722
722
721
753
686
684
719
749
744
741
778
810
773
776
772
836
826
834
833
833
896
864
863
892
959
922
925
921
954
947
953
942
951
982
976
972
978
1030
1030
1055
1054
1052
1003
537
689
851
643
916
426
515
4
53
84
19
28
84
56
83
19
173
81
19
115
102
15
127
15
49
16
84
113
177
75
15
15
76
44
46
44
107
199
226
107
175
102
103
189
108
194
102
132
133
106
227
131
227
162
132
223
160
160
221
170
194
284
222
160
189
250
229
258
354
280
219
191
191
250
249
248
198
280
384
226
339
337
245
276
250
273
336
334
273
304
303
276
334
281
301
250
303
459
331
337
358
466
357
450
360
357
360
389
434
448
479
387
385
413
385
461
413
413
441
477
452
469
474
480
443
501
532
502
470
423
502
484
454
452
469
531
530
497
513
531
529
590
499
530
560
527
580
497
530
527
543
512
528
478
558
528
590
561
504
618
478
553
589
585
617
587
554
635
583
536
565
536
581
614
583
643
641
564
609
632
611
609
595
643
641
596
701
701
638
700
669
668
730
667
665
758
698
698
665
695
696
724
694
699
726
721
724
721
711
670
749
784
784
718
786
752
780
676
782
783
708
749
777
813
812
813
811
705
811
777
811
739
811
731
840
811
842
841
807
842
840
836
787
833
867
865
895
861
895
893
891
894
760
890
895
819
918
923
816
920
849
950
945
953
950
981
947
947
871
974
1006
1006
1008
1005
1006
1016
902
1016
1018
1018
929
1031
1023
1040
1035
1040
983
1040
1032
958
1051
968
983
983
1048
1045
1051
1046
1049
1061
1053
1057
986
1061
1011
1059
1060
1056
65
65
32
111
32
156
30
107
4
54
156
130
32
64
24
0
0
51
54
123
54
24
48
74
98
72
126
72
99
120
150
49
180
96
152
145
99
203
201
97
144
153
76
171
126
251
165
226
144
146
145
144
144
122
168
227
277
168
174
247
192
194
247
218
265
264
216
244
216
241
297
294
268
321
241
264
240
296
318
290
288
348
288
291
314
447
321
312
338
365
336
390
364
360
445
392
336
363
473
391
362
363
362
337
360
473
411
312
492
389
437
439
465
409
488
408
435
409
411
408
441
515
434
432
434
433
486
486
456
434
519
456
481
483
568
60
480
538
458
482
480
611
509
531
592
561
528
506
606
560
532
529
506
528
528
557
554
557
553
552
553
577
634
582
576
611
579
665
605
578
604
631
632
603
686
624
630
625
711
648
624
624
653
650
650
652
650
650
648
676
678
650
648
673
702
674
673
673
673
697
731
754
699
700
726
725
725
718
722
748
719
751
741
742
741
744
773
743
769
741
741
745
765
769
764
788
764
821
795
766
764
764
820
787
790
790
815
846
810
815
816
810
835
812
814
811
835
841
837
837
864
861
862
860
856
856
856
884
889
889
856
909
878
879
882
883
878
907
878
904
904
908
900
900
901
915
900
930
933
143
903
760
923
929
927
944
956
953
947
944
971
962
966
976
997
994
988
988
995
989
988
1009
1020
1010
1011
1012
1010
1025
1010
1044
1037
1033
1036
596
154
724
810
240
143
224
393
75
445
628
428
690
741
738
754
746
168
728
385
788
837
688
855
787
874
899
894
163
916
402
980
744
1026
)


// ************************************************************************* //
