/*--------------------------------*- C++ -*----------------------------------*\
  =========                 |
  \\      /  F ield         | OpenFOAM: The Open Source CFD Toolbox
   \\    /   O peration     | Website:  https://openfoam.org
    \\  /    A nd           | Version:  7
     \\/     M anipulation  |
\*---------------------------------------------------------------------------*/
FoamFile
{
    version     2.0;
    format      ascii;
    class       vectorField;
    location    "0.145/lagrangian/reactingCloud1";
    object      coordinates;
}
// * * * * * * * * * * * * * * * * * * * * * * * * * * * * * * * * * * * * * //


1205
(
(1.82112 0.0868886 -1.61979e-07)
(1.7892 0.0485447 7.58318e-08)
(1.75924 0.0787918 -3.96207e-07)
(1.75315 0.0430429 3.46528e-13)
(1.75055 0.0538499 5.16687e-07)
(1.73737 0.0577643 -4.3469e-08)
(1.73642 0.0387542 -2.9585e-13)
(1.72483 0.0438115 -3.52515e-07)
(1.71265 0.0666745 5.95935e-07)
(1.70087 0.0490712 2.58446e-14)
(1.71852 0.0260817 1.56454e-06)
(1.69234 0.0663607 3.40373e-07)
(1.67757 0.0508837 -1.7324e-08)
(1.63524 0.0680658 6.04773e-08)
(1.5594 0.0920647 -1.76969e-07)
(1.57945 0.0653911 2.65118e-07)
(1.56904 0.0583922 1.00652e-07)
(1.55206 0.050168 -1.42179e-12)
(1.54325 0.0248749 1.24592e-07)
(1.54809 0.0372222 -6.00657e-15)
(1.54096 0.0742455 -2.81222e-08)
(1.53987 0.0505646 -2.08391e-12)
(1.52427 0.071895 -1.12322e-07)
(1.51154 0.0851377 6.17752e-08)
(1.53519 0.0681531 -1.13429e-07)
(1.49098 0.086013 -2.97702e-08)
(1.49446 0.052871 -6.167e-13)
(1.48165 0.0769751 -1.66338e-07)
(1.48365 0.0520781 -1.77336e-12)
(1.44446 0.094535 8.71844e-07)
(1.44681 0.0965762 1.04346e-07)
(1.47693 0.0346567 -4.3261e-12)
(1.46441 0.0194253 5.25074e-14)
(1.43198 0.0962679 4.65876e-07)
(1.43094 0.0707189 1.26518e-07)
(1.41305 0.0577203 8.50742e-09)
(1.39022 0.0239344 1.11974e-13)
(1.38874 0.0376133 2.77441e-14)
(1.37653 0.0644654 2.89894e-07)
(1.37658 0.0291385 -2.13038e-12)
(1.33843 0.0432585 -4.05647e-13)
(1.32904 0.0441849 -2.09245e-13)
(1.29788 0.0812677 -8.36234e-08)
(1.30419 0.0879137 1.35018e-08)
(1.29275 0.0714635 -1.88506e-08)
(1.28562 0.0628873 -1.80229e-08)
(1.28022 0.0726372 1.10082e-08)
(1.27538 0.0826713 -2.4222e-07)
(1.26784 0.0857001 4.66753e-07)
(1.26563 0.0623644 -4.69655e-07)
(1.26598 0.0653155 -2.13057e-07)
(1.24665 0.0309756 -5.58479e-14)
(1.22201 0.0407737 4.7322e-07)
(1.2129 0.05988 -7.14253e-07)
(1.20092 0.0783246 1.1795e-08)
(1.19121 0.0341473 -2.95937e-13)
(1.17657 0.0771034 5.13761e-08)
(1.16989 0.0198598 -1.11932e-12)
(0.412533 0.131268 4.63194e-07)
(0.42992 0.129481 -5.00922e-11)
(0.412417 0.134312 4.89313e-07)
(0.424171 0.0899231 3.23929e-11)
(0.422409 0.122688 -1.02877e-11)
(0.41842 0.0922578 -8.64497e-12)
(0.415087 0.0880083 1.4298e-11)
(0.413476 0.127206 5.58414e-11)
(0.409757 0.11164 -1.45219e-11)
(0.405023 0.135943 4.88533e-12)
(0.398953 0.0115508 1.2246e-11)
(0.395667 0.0169836 3.41263e-12)
(0.393712 0.0480471 9.82781e-13)
(0.392822 0.101515 -6.52632e-11)
(0.386181 0.0450877 -7.19915e-12)
(0.38689 0.131962 -9.76504e-12)
(0.380679 0.0717221 -5.70855e-13)
(0.378402 0.0832115 -4.05343e-11)
(0.32878 0.129345 -2.47513e-08)
(0.350635 0.120199 7.81754e-07)
(0.366203 0.0548459 -1.39433e-12)
(0.36079 0.0124797 1.71601e-12)
(0.361531 0.109296 -6.62111e-11)
(0.357923 0.112371 -1.67629e-11)
(0.355428 0.115199 -1.07522e-11)
(0.346853 0.0548816 -3.49894e-12)
(0.343662 0.0461341 -3.91179e-12)
(0.343312 0.122219 -1.53584e-11)
(0.335774 0.0322536 -2.69723e-11)
(0.334641 0.107548 -4.1663e-12)
(0.33063 0.107333 9.71623e-13)
(0.326552 0.121717 -9.46562e-13)
(0.321967 0.102069 -2.60394e-11)
(0.317303 0.0522291 -3.03863e-11)
(0.28822 0.126728 -3.09925e-08)
(0.308953 0.0482547 -3.95633e-12)
(0.30501 0.0714296 -6.85669e-11)
(0.268139 0.12754 -3.52186e-07)
(0.297984 0.101729 2.21836e-11)
(0.294503 0.0949506 2.56555e-12)
(0.290032 0.0730664 -1.59763e-11)
(0.284832 0.00535194 -1.31601e-12)
(0.281785 0.0983808 -1.73903e-11)
(0.27792 0.0309277 5.77592e-13)
(0.273271 0.0520422 -1.68316e-12)
(0.270854 0.111409 -1.41769e-11)
(0.266398 0.0899227 -3.35336e-11)
(0.262261 0.076991 -9.65132e-12)
(0.258418 0.0657341 4.18911e-12)
(0.254373 0.110482 -1.68089e-12)
(0.250417 0.0832797 -2.02479e-11)
(0.246728 0.074179 9.23046e-12)
(0.242383 0.104134 -8.84753e-13)
(0.237899 0.0640703 1.57856e-13)
(0.22926 0.125069 -1.69774e-12)
(0.230636 0.0929068 1.24552e-12)
(0.226565 0.1033 -2.67113e-12)
(0.222722 0.0803599 1.28816e-11)
(0.216928 0.124113 -5.91953e-12)
(0.214882 0.0938923 7.86652e-12)
(0.210863 0.0695865 4.33002e-12)
(0.206208 0.0879216 1.32225e-11)
(0.202156 0.118285 5.83444e-15)
(0.196812 0.124727 8.8893e-14)
(0.195017 0.0476728 3.52799e-12)
(0.190284 0.0836208 -5.69492e-13)
(0.186267 0.0644019 -3.95668e-13)
(0.183193 0.117586 1.08302e-11)
(0.178552 0.115291 -1.14554e-14)
(0.527118 0.157395 1.71204e-07)
(0.550899 0.153523 -4.01233e-09)
(0.536828 0.150616 4.15672e-08)
(0.567665 0.139527 -3.22228e-08)
(0.567467 0.124498 5.94028e-07)
(0.546863 0.144142 -3.10518e-08)
(0.487158 0.162139 -9.52108e-10)
(0.560925 0.116775 -9.78569e-12)
(0.551189 0.129187 -2.88588e-11)
(0.559266 0.0991002 1.73902e-11)
(0.555432 0.103712 -2.07326e-11)
(0.552659 0.10476 -2.35753e-12)
(0.554661 0.0653433 -4.27742e-12)
(0.551795 0.0959746 -1.20301e-11)
(0.5522 0.0662006 3.31399e-13)
(0.5437 0.0976861 -4.64733e-12)
(0.53909 0.104229 4.30489e-13)
(0.524321 0.134787 1.32806e-10)
(0.53475 0.102322 1.75119e-11)
(0.489969 0.147342 -2.56738e-07)
(0.531226 0.104805 1.91871e-12)
(0.529007 0.103556 7.71618e-11)
(0.51892 0.128365 5.19982e-11)
(0.525222 0.0770036 2.69191e-12)
(0.524193 0.0612486 1.81984e-13)
(0.496696 0.15149 3.45189e-07)
(0.516449 0.0792796 3.07463e-11)
(0.509635 0.128533 7.85452e-12)
(0.515739 0.0592539 1.03555e-12)
(0.51428 0.0259126 2.66705e-11)
(0.506871 0.0592779 2.95391e-11)
(0.498766 0.132562 6.25427e-11)
(0.499114 0.0592073 1.42359e-11)
(0.478783 0.153734 -1.2883e-07)
(0.486131 0.142486 -5.54841e-08)
(0.496154 0.0625631 3.61834e-12)
(0.491303 0.0349558 5.38137e-13)
(0.461254 0.162394 -4.1321e-07)
(0.483028 0.0919737 4.89315e-11)
(0.476986 0.138638 1.00086e-11)
(0.479263 0.108403 4.29774e-11)
(0.471524 0.135471 5.53302e-11)
(0.472997 0.0754942 6.82706e-11)
(0.472398 0.120742 1.75654e-11)
(0.470551 0.0716294 -9.22566e-13)
(0.467167 0.0919721 4.08961e-13)
(0.464749 0.0518826 3.13653e-11)
(0.458926 0.0395728 -3.78555e-13)
(0.455903 0.087907 1.86057e-11)
(0.452821 0.144877 -9.72263e-08)
(0.452803 0.0917367 7.42331e-11)
(0.450349 0.0587964 -3.10812e-11)
(0.445517 0.13257 4.0066e-12)
(0.441364 0.0941609 1.88298e-11)
(0.438043 0.130187 -2.78314e-11)
(0.434154 0.135926 2.97358e-11)
(0.43242 0.118028 -1.04262e-06)
(0.710566 0.109238 2.44315e-07)
(0.61328 0.139263 3.05814e-08)
(0.694496 0.114531 1.30181e-07)
(0.663913 0.123574 -1.47813e-08)
(0.753766 0.097835 3.79678e-07)
(0.620627 0.137026 1.07038e-08)
(0.80515 0.0485629 1.73489e-11)
(0.79363 0.0519852 1.52132e-12)
(0.770331 0.0825275 -4.37246e-07)
(0.775909 0.0718698 3.31587e-07)
(0.786832 0.0746179 1.95692e-07)
(0.764112 0.0585601 1.71896e-11)
(0.76176 0.0264992 9.99226e-13)
(0.744081 0.0788491 -1.59068e-07)
(0.745819 0.0743288 -7.90989e-11)
(0.707673 0.0944004 -1.00628e-07)
(0.743574 0.0603589 5.86371e-12)
(0.734572 0.0561522 -1.54128e-10)
(0.739534 0.0156379 -4.14914e-11)
(0.729884 0.0264081 -4.93011e-11)
(0.695394 0.0965159 4.55232e-08)
(0.702854 0.0639638 5.60597e-11)
(0.687799 0.104634 -5.93654e-08)
(0.692867 0.0880271 2.10218e-11)
(0.676524 0.101512 -4.20528e-12)
(0.691495 0.0398639 5.11753e-11)
(0.685516 0.0689955 1.47567e-11)
(0.665707 0.114968 1.2801e-08)
(0.661473 0.0998447 1.50509e-10)
(0.668285 0.0627015 2.64121e-11)
(0.653757 0.0745027 4.40049e-12)
(0.641556 0.104798 7.47883e-11)
(0.641109 0.0771147 7.89681e-13)
(0.641252 0.0456095 7.4193e-11)
(0.637479 0.0259429 5.10808e-11)
(0.623253 0.125801 2.06791e-07)
(0.617501 0.123439 3.90936e-07)
(0.621976 0.100759 3.49712e-11)
(0.622832 0.0873537 -4.18246e-12)
(0.617743 0.119519 3.52011e-07)
(0.622505 0.0608445 -3.06605e-13)
(0.609825 0.118418 5.11913e-08)
(0.613241 0.0551213 2.01314e-11)
(0.604778 0.128884 1.95431e-07)
(0.578141 0.149561 -5.93378e-08)
(0.596823 0.0893346 -1.2244e-11)
(0.590416 0.0825285 2.16788e-11)
(0.588719 0.0622532 -5.6144e-12)
(0.585266 0.0453207 3.51549e-11)
(0.584849 0.0685561 -3.09909e-12)
(0.583184 0.125128 -1.45466e-07)
(0.580029 0.142905 1.15987e-07)
(0.575295 0.0828895 4.694e-11)
(0.569946 0.150403 -1.76362e-08)
(0.571254 0.143099 3.36069e-08)
(0.569455 0.0675022 1.18534e-10)
(0.569279 0.123654 -7.07747e-11)
(1.10786 0.112395 -9.75691e-08)
(1.14927 0.0142505 8.58933e-07)
(1.14645 0.0787677 2.55515e-07)
(1.15233 0.0487754 -3.98842e-13)
(1.0711 0.102953 1.01847e-06)
(1.14231 0.0710365 1.19331e-07)
(1.11532 0.078379 -5.03856e-08)
(1.12414 0.0538091 -3.74138e-14)
(1.12298 0.00278819 -2.22231e-15)
(1.11174 0.0675129 -3.93029e-08)
(1.08848 0.0791367 -1.2152e-07)
(1.08809 0.078113 1.78281e-07)
(1.0732 0.0499487 -2.50705e-07)
(1.06118 0.0589382 -6.73508e-08)
(1.06047 0.00863754 -3.07095e-13)
(1.04718 0.0741131 9.77369e-08)
(1.01548 0.044826 1.19298e-13)
(0.964169 0.0954351 6.63657e-07)
(1.00804 0.0164545 9.31268e-12)
(0.987488 0.0638451 -6.00184e-08)
(0.982501 0.0689572 -6.67697e-08)
(0.959864 0.0542843 8.31e-12)
(0.95874 0.0688938 -2.73631e-07)
(0.935738 0.057129 -6.683e-13)
(0.901529 0.0547965 3.10841e-11)
(0.900957 0.0609294 -4.94609e-07)
(0.897555 0.0668509 1.51584e-07)
(0.890459 0.061562 1.63105e-08)
(0.878696 0.0759325 -3.3882e-08)
(0.878147 0.0369188 4.92225e-13)
(0.876497 0.0466561 -7.87246e-12)
(0.8654 0.062479 5.05785e-07)
(0.863739 0.0598142 3.16936e-11)
(0.860562 0.025003 7.67651e-12)
(0.846986 0.0940416 4.29059e-08)
(0.848142 0.047263 -1.02338e-11)
(0.843624 0.0814711 3.62838e-07)
(0.841637 0.0718143 -5.41619e-07)
(0.829003 0.0488674 -1.37996e-11)
(4.54737 0.175385 7.90188e-08)
(4.64878 0.137878 -1.67487e-07)
(4.5273 0.190327 -5.79568e-07)
(4.58078 0.135932 -7.91301e-07)
(4.52369 0.125436 1.66914e-07)
(4.67819 0.0961232 -2.4641e-07)
(4.66777 0.10794 9.08724e-10)
(4.60347 0.0913941 -1.04209e-07)
(4.40171 0.116383 5.96239e-08)
(4.4549 0.130113 -1.60177e-07)
(4.43516 0.131096 -7.90448e-07)
(4.20833 0.139367 -4.39998e-08)
(4.3474 0.0881262 2.31453e-07)
(4.02566 0.145444 -6.77933e-07)
(4.27232 0.102191 3.95447e-07)
(4.31136 0.0471586 -1.80601e-07)
(4.22585 0.0605703 -7.10456e-07)
(4.24651 0.0758715 -2.84404e-08)
(4.19855 0.0899878 -7.7127e-07)
(4.17923 0.130254 6.77482e-07)
(4.30955 0.0200673 -7.81189e-08)
(3.94242 0.131939 -1.97443e-08)
(4.32213 0.0167135 9.46857e-09)
(4.11562 0.124771 5.37824e-07)
(4.03915 0.105769 -1.55785e-08)
(4.25774 0.0362771 1.10157e-08)
(4.25845 0.0218483 2.35592e-07)
(4.21884 0.05164 -2.30686e-07)
(4.04725 0.113631 1.55857e-07)
(4.13892 0.0376867 -4.25111e-08)
(4.13363 0.0394376 -2.51232e-07)
(4.15537 0.0403213 1.56183e-07)
(3.76925 0.162349 6.05768e-07)
(4.12678 0.0563472 2.455e-07)
(4.16006 0.0288963 5.35975e-09)
(4.12928 0.056094 6.72231e-08)
(3.73834 0.19154 -5.91471e-08)
(4.11642 0.0463292 1.37389e-07)
(4.11877 8.48365e-10 6.0348e-12)
(3.7762 0.128103 2.94658e-07)
(3.90342 0.117003 3.02084e-07)
(3.77289 0.143996 -5.53228e-07)
(4.08727 2.3099e-11 -8.61184e-15)
(4.01893 0.05635 -6.69144e-08)
(4.07328 0.0427745 9.205e-08)
(4.0376 0.0536191 -2.49167e-07)
(4.03795 0.0178362 -1.33714e-07)
(4.01953 0.028442 4.09589e-08)
(4.00485 4.64521e-11 -2.5616e-13)
(3.97547 0.046028 2.70591e-07)
(3.69027 0.141345 5.09082e-07)
(3.96542 0.0208581 -1.65947e-07)
(3.95159 0.0346494 -1.69062e-08)
(3.89611 0.071319 -6.08388e-07)
(3.93925 0.0362631 4.15066e-08)
(3.91931 0.0491104 6.5714e-08)
(3.87426 0.063782 3.29355e-07)
(3.90157 0.0366642 -1.31738e-07)
(3.55489 0.178357 -8.58046e-08)
(3.88363 0.0316695 -2.19476e-07)
(3.8757 0.0239414 9.01856e-08)
(3.85243 0.0281857 1.44693e-07)
(3.86263 0.0122976 1.74207e-07)
(3.84171 0.00208988 2.2926e-07)
(3.55548 0.150059 -1.79176e-07)
(3.80789 0.0557292 1.53292e-07)
(3.67848 0.117982 3.81776e-07)
(3.73586 0.0864262 7.7242e-08)
(3.76829 0.0618548 6.54806e-08)
(3.7684 0.0296245 -5.16395e-07)
(3.62146 0.110767 -4.55876e-07)
(3.74034 0.0542497 2.3166e-07)
(3.74415 0.0433039 -1.9757e-08)
(3.72522 0.0542009 1.25339e-07)
(3.71347 0.0518431 -2.20267e-08)
(3.46192 0.148108 -2.80783e-08)
(3.70749 0.0570847 -1.40215e-07)
(3.70144 0.0305334 -5.60736e-08)
(3.69147 0.0502775 7.19845e-07)
(3.69585 0.0338508 -1.10284e-06)
(3.64358 0.0219235 7.37879e-08)
(3.63636 0.0473366 -2.22645e-07)
(3.64039 0.0409593 5.44509e-08)
(3.6177 0.0780634 3.67316e-07)
(3.62932 0.0415592 -2.99059e-08)
(3.63257 1.99519e-11 -2.26116e-14)
(3.59417 0.0414491 -4.33902e-09)
(3.58596 0.0396533 -2.98899e-08)
(3.55531 0.0673224 -1.60931e-07)
(3.4443 0.131554 6.70413e-07)
(3.57064 0.0484922 4.32926e-08)
(3.56575 0.031256 -8.73853e-09)
(3.54906 0.0520061 -1.29568e-07)
(3.54919 0.018224 7.4224e-08)
(3.52029 0.0696054 -1.14385e-07)
(3.54917 0.033056 3.67996e-07)
(3.48677 0.0904492 -1.5082e-08)
(3.50482 0.0571991 9.47765e-07)
(3.39163 0.105644 1.12397e-09)
(3.46924 0.0653123 1.68601e-08)
(3.48338 0.0458934 1.63437e-07)
(3.48333 0.0182158 4.45018e-08)
(3.47857 0.0404985 8.96557e-08)
(3.44754 0.069613 2.15602e-07)
(3.45602 0.0394984 5.72773e-07)
(3.4408 0.0310432 -1.6954e-10)
(3.42246 0.068658 2.29032e-07)
(3.41895 0.0601462 -1.89899e-07)
(3.42152 0.0382775 4.94043e-07)
(3.39266 0.0727218 5.65571e-07)
(3.40393 0.0318753 2.10253e-07)
(3.39513 0.0322332 -4.82908e-07)
(3.39455 0.0196777 -2.61924e-07)
(3.38249 0.0430152 8.82799e-08)
(3.18895 0.140847 -5.66749e-08)
(3.3365 0.0786887 -1.91447e-07)
(3.34228 0.0482819 8.79595e-08)
(3.32834 0.0837776 1.60515e-09)
(3.34326 0.0651527 3.85666e-08)
(3.33365 0.0188882 2.15696e-07)
(3.32895 0.0330699 3.12391e-08)
(3.30719 0.0795898 1.86989e-07)
(3.29899 0.0717944 -2.69101e-07)
(3.26767 0.0822578 2.89956e-07)
(3.25222 0.0393096 1.52989e-07)
(3.23135 0.0750745 1.11263e-07)
(3.17313 0.0976241 -1.67902e-07)
(3.21878 0.0247963 5.12055e-08)
(3.21219 0.0869633 2.94988e-07)
(3.20281 0.0651313 1.67761e-07)
(3.18882 0.0443642 -1.47819e-07)
(3.18489 0.0594547 -1.00258e-07)
(3.12883 0.0843577 6.52493e-08)
(3.12056 0.0968872 -1.03818e-06)
(3.1282 0.0824472 -1.18681e-07)
(3.14637 0.0808677 -2.96468e-07)
(3.04067 0.0747498 -1.63921e-07)
(3.15834 0.0275249 -3.10805e-08)
(3.13756 0.0678995 -9.58004e-07)
(3.15896 0.0567719 3.23063e-07)
(3.08817 0.0726606 1.72287e-08)
(3.00441 0.0757211 -4.9241e-08)
(3.11025 0.0487754 1.38763e-07)
(3.11532 0.0395425 2.67828e-08)
(3.07582 0.0645992 -4.86156e-08)
(3.09209 0.0147141 -1.09604e-12)
(3.07525 0.0359547 -2.94209e-07)
(3.07486 0.0245135 -8.17485e-09)
(3.06397 0.0511578 -1.32545e-07)
(3.0469 0.0593975 6.07873e-07)
(2.93197 0.0917105 5.72968e-07)
(3.05208 0.0378909 -2.05035e-08)
(2.92086 0.0914813 -5.02006e-07)
(2.85031 0.116802 -7.90085e-08)
(2.92926 0.0940453 6.00129e-07)
(3.0214 0.0391023 1.09391e-07)
(2.89482 0.0862118 -2.13612e-07)
(3.0134 0.0547401 -2.11604e-07)
(3.03125 0.0345446 4.61184e-08)
(2.99729 0.0278742 1.79588e-13)
(2.88023 0.0858304 -5.95635e-08)
(2.99071 0.0225571 6.65935e-13)
(2.92242 0.0684824 -5.1645e-07)
(2.78046 0.118195 -1.07479e-06)
(2.92835 0.0527589 -3.15209e-08)
(2.91287 0.0492125 1.97122e-08)
(2.89925 0.0140009 -1.12477e-12)
(2.85067 0.0675464 -2.78508e-07)
(2.87917 0.0563243 7.49942e-08)
(2.87728 0.0464342 -6.75706e-07)
(2.84764 0.0475305 9.46873e-08)
(2.79192 0.0726755 -3.73226e-07)
(2.85399 0.0230874 -1.75569e-13)
(2.81632 0.0781538 -4.41635e-08)
(2.80592 0.0540089 -7.76745e-08)
(2.80248 0.0631765 -1.20832e-07)
(2.81345 0.0320771 4.13279e-07)
(2.79236 0.0600301 -5.66759e-07)
(2.7961 0.00240103 2.37398e-08)
(2.74541 0.072236 -2.86545e-07)
(2.74804 0.0432967 -1.51183e-07)
(2.71985 0.0326422 -3.71821e-08)
(2.64055 0.0798403 -1.34344e-09)
(2.71654 0.0182305 1.69227e-12)
(2.65442 0.0805974 -2.93039e-07)
(2.68216 0.0661561 -2.35227e-08)
(2.59007 0.0989054 4.62218e-09)
(2.62987 0.078216 -6.08546e-08)
(2.53874 0.122652 4.01048e-07)
(2.60804 0.0793728 1.20973e-08)
(2.66708 0.0558215 -1.40977e-07)
(2.65176 0.0648254 2.82345e-08)
(2.64202 0.0672124 7.50099e-08)
(2.60377 0.0733607 -2.27529e-07)
(2.53667 0.0881924 7.07562e-07)
(2.5785 0.0571112 -5.96705e-08)
(2.54421 0.0701956 -2.42412e-07)
(2.48418 0.0858166 -5.93008e-07)
(2.54649 0.0170654 3.15051e-13)
(2.52959 0.0107403 -1.05547e-12)
(2.53368 0.0484372 -1.47476e-07)
(2.52548 0.0412745 -8.73998e-08)
(2.45601 0.0835627 -5.27029e-08)
(2.49438 0.0281959 7.45736e-08)
(2.43306 0.0859625 3.9411e-07)
(2.46373 0.0756273 -1.42983e-07)
(2.47964 0.0464542 1.00552e-07)
(2.47128 0.0210709 -3.49131e-13)
(2.42591 0.0885918 1.06525e-07)
(2.44239 0.0019647 1.78195e-07)
(2.42659 0.0622687 -5.05836e-08)
(2.43724 0.0248367 2.82297e-13)
(2.42325 0.0281469 -1.16575e-13)
(2.40366 0.0266276 -5.75214e-14)
(2.35083 0.0823752 -7.48355e-08)
(2.27973 0.0838213 -8.86563e-07)
(2.32854 0.0750266 -7.45328e-08)
(2.33843 0.0491334 3.59099e-08)
(2.27077 0.089732 -2.48154e-08)
(2.29515 0.0552726 7.8086e-09)
(2.29101 0.023306 -2.30218e-12)
(2.25392 0.0788674 9.1927e-09)
(2.27286 0.0630624 3.45799e-07)
(2.2671 0.0684424 -9.15978e-08)
(2.27858 0.0245036 -1.79582e-14)
(2.24157 0.0775616 7.16143e-07)
(2.20329 0.0942604 -2.53841e-08)
(2.21419 0.0872434 8.15926e-08)
(2.19998 0.0881117 -1.411e-07)
(2.21867 0.0808776 -3.62869e-08)
(2.17212 0.0998588 1.32053e-07)
(2.23327 0.0385849 7.79801e-07)
(2.22716 0.020702 6.25145e-14)
(2.21733 0.0634647 -3.68329e-07)
(2.17222 0.06983 -3.81192e-07)
(2.17411 0.0339455 1.22255e-13)
(2.16404 0.0195917 2.45183e-13)
(2.14116 0.0717206 8.06329e-08)
(2.10412 0.091175 7.97298e-07)
(2.13509 0.0321982 1.83731e-13)
(2.13147 0.0542847 5.16578e-07)
(2.12365 0.0309218 -1.79068e-13)
(2.06555 0.0756971 2.97291e-08)
(2.07324 0.0087645 2.95121e-13)
(2.06112 0.0534611 9.1426e-08)
(2.05573 0.0491558 -7.92763e-08)
(2.0569 0.0502178 -1.37562e-07)
(2.00435 0.0865024 2.4949e-07)
(2.0258 0.0664628 -7.3633e-07)
(2.02567 0.0573977 2.36306e-08)
(2.00644 0.0559896 -1.42193e-07)
(1.96267 0.110639 6.02442e-08)
(1.98569 0.0635415 6.10098e-08)
(1.96828 0.0868444 -1.1091e-07)
(1.97272 0.0566797 -6.87248e-08)
(1.95747 0.0858682 -1.64325e-07)
(1.9522 0.0354486 2.09191e-13)
(1.94062 0.0779736 -1.26613e-07)
(1.94441 0.00763509 -3.24701e-14)
(1.93612 0.0607436 -1.36303e-07)
(1.92764 0.0780477 -4.6918e-07)
(1.92362 0.0311803 4.91843e-13)
(1.92333 0.0115577 -4.79226e-14)
(1.91682 0.050685 1.69065e-07)
(1.86946 0.0425777 9.59947e-07)
(1.85029 0.0397648 -1.20102e-12)
(1.84588 0.0700392 7.27891e-09)
(1.83616 0.0603055 1.15846e-08)
(1.82733 0.048296 -1.13172e-12)
(6.5762 0.502059 9.49474e-08)
(6.69927 0.351812 -5.10276e-08)
(6.00581 0.23654 -6.75483e-07)
(5.33257 0.248462 1.19128e-07)
(6.21158 0.269316 9.57946e-08)
(4.9976 0.256014 -5.64813e-07)
(7.19582 0.298919 -7.614e-08)
(6.81769 0.273736 1.96384e-07)
(7.22582 0.178267 -5.98695e-07)
(7.09294 0.0915832 -1.56412e-07)
(6.99804 0.117133 3.69842e-09)
(7.16346 0.0436867 -6.2615e-08)
(7.15084 0.138698 -7.71316e-07)
(7.03402 0.118523 6.41071e-07)
(7.05313 0.134176 3.80546e-07)
(6.99676 0.103097 -1.11113e-07)
(7.18867 0.0363556 2.3182e-07)
(6.7753 0.131561 -1.10641e-06)
(7.02113 0.0856456 -2.6101e-07)
(7.14566 0.0436527 -4.07206e-07)
(6.97643 0.139607 -7.60881e-08)
(6.96299 0.00225052 1.184e-07)
(7.18134 1.73591e-10 1.4051e-12)
(6.93015 0.225017 5.31344e-08)
(7.17899 9.52528e-11 6.01334e-14)
(7.06126 0.0525889 4.90736e-07)
(7.16801 0.0158606 1.13924e-07)
(7.02897 0.121644 5.91043e-07)
(6.93143 0.121362 2.30176e-07)
(6.79515 0.169629 2.02342e-07)
(7.0338 0.0212036 8.24417e-08)
(7.12481 2.96471e-10 8.13579e-13)
(7.13163 0.00181136 -5.14665e-08)
(7.04626 0.0279374 -5.39789e-07)
(7.09441 0.00804557 1.58439e-07)
(7.09903 0.0168954 8.32275e-08)
(7.07967 6.27559e-11 -8.0348e-14)
(6.9455 0.0493218 2.86505e-07)
(6.75502 0.106891 -3.65328e-07)
(6.68663 0.0928834 -1.39999e-06)
(6.92253 0.0460081 -2.91077e-07)
(6.82304 0.155952 -1.32284e-06)
(6.97603 3.25061e-11 1.71624e-13)
(6.9199 0.0115232 -4.32292e-08)
(6.73596 0.00040105 -5.38267e-07)
(6.97842 0.0579159 1.13006e-06)
(6.72277 0.0473614 2.62764e-07)
(6.96637 0.00134887 -9.28611e-08)
(6.85559 0.0163915 -3.83757e-07)
(6.87239 0.0198898 -5.52086e-07)
(6.93481 0.0443165 -7.93863e-07)
(6.67243 0.103995 3.58309e-07)
(6.88162 9.80424e-11 -2.07801e-13)
(6.67262 0.10837 3.22668e-07)
(6.77911 0.0226966 6.6154e-09)
(6.85771 0.00915538 3.4582e-07)
(6.63841 0.0650856 1.3447e-06)
(6.81895 4.57512e-09 -6.72716e-12)
(6.82649 0.00260733 1.81322e-08)
(6.6895 0.0432068 -1.1615e-07)
(6.76574 0.101846 2.50955e-07)
(6.71404 0.054873 6.82257e-07)
(6.51828 0.110005 -3.31504e-07)
(6.65404 0.0545706 1.30546e-08)
(6.76949 0.000518945 5.47872e-10)
(6.74024 0.00166198 4.49096e-08)
(6.60455 0.0502362 -6.05466e-08)
(6.65599 0.125401 -1.77769e-07)
(6.61525 0.136808 8.94866e-07)
(6.39003 0.210019 1.2036e-07)
(6.50878 0.074953 -8.49159e-07)
(6.64454 0.0187226 1.30532e-07)
(6.69266 0.0206809 -4.9348e-08)
(6.69304 0.0170043 -1.21585e-07)
(6.59014 0.0489291 -2.66263e-07)
(6.58743 0.034776 1.25145e-08)
(6.60169 0.0265113 -2.28081e-07)
(6.69547 0.0979647 -4.37983e-08)
(6.47786 0.0651598 1.32035e-07)
(6.29121 0.234356 3.74064e-07)
(6.63162 0.0975146 2.0623e-07)
(6.36379 0.098497 -5.34343e-08)
(6.39448 0.0780909 -3.59603e-07)
(6.60568 4.35592e-11 -8.04134e-15)
(6.47658 0.0326629 -1.12145e-07)
(6.57709 0.0503712 7.95961e-07)
(6.51595 1.22098e-10 2.26965e-13)
(6.359 0.0684759 -1.57722e-07)
(6.35263 0.0457073 -2.00723e-07)
(6.5182 1.53872e-09 1.05566e-11)
(6.43071 0.027634 7.84443e-07)
(6.4475 0.0195464 -3.8085e-08)
(6.48222 0.0317526 -4.78397e-07)
(6.37753 0.0469789 4.34733e-08)
(6.47726 0.0807187 4.77116e-07)
(6.44064 0.00156693 -1.92379e-08)
(6.56208 0.0530068 -1.16022e-07)
(6.40388 0.0176332 -9.87064e-08)
(6.07146 0.165342 7.89426e-08)
(6.38408 0.0169206 1.83401e-07)
(6.36694 0.077452 1.9221e-07)
(6.31282 0.00885214 6.0256e-07)
(6.08622 0.209177 1.70054e-07)
(6.32453 0.000271795 7.42706e-08)
(6.07392 0.0896961 1.07595e-07)
(6.26056 0.0300064 1.72597e-08)
(6.29472 0.00203831 7.99238e-08)
(6.28921 0.0277144 -3.78274e-07)
(6.21201 0.0332333 -5.96388e-08)
(6.14252 0.17933 -5.21603e-07)
(6.06689 0.0674327 -1.04328e-07)
(6.03672 0.0944386 -4.79429e-07)
(6.19129 0.0201261 8.82682e-09)
(6.22343 2.64334e-09 1.79832e-11)
(6.17824 9.5815e-11 -2.05495e-13)
(6.192 0.00542039 -6.63334e-09)
(6.09352 0.173874 -2.25218e-07)
(6.12307 0.0058562 -1.44456e-07)
(6.12173 0.00401932 -7.09827e-07)
(6.05547 4.82933e-12 9.25784e-15)
(6.00124 0.0757628 -6.13845e-07)
(6.053 0.109507 -1.37981e-07)
(6.00727 4.557e-10 -2.84791e-12)
(6.00714 0.0454139 -8.75016e-07)
(6.0325 0.106863 6.04638e-08)
(6.06179 0.0184429 2.08329e-08)
(5.96592 0.0332757 -2.04556e-08)
(5.8496 0.0696519 1.72533e-07)
(5.95741 0.0499152 -8.14791e-08)
(6.01167 0.00777772 6.1085e-08)
(6.11773 0.0946343 2.51066e-07)
(5.95587 0.049968 7.96726e-09)
(6.03765 0.147214 -2.23189e-07)
(6.1051 0.125968 -7.35696e-07)
(6.09047 0.109397 -1.31481e-07)
(6.02183 0.00231764 -1.61117e-07)
(5.8598 0.0588157 1.67631e-07)
(5.88535 0.0506494 4.96926e-07)
(5.9221 0.00113402 2.72529e-08)
(5.95335 0.151993 1.83116e-07)
(5.87292 0.0558461 -9.07155e-07)
(5.89439 0.0410734 -1.44222e-08)
(5.73835 0.0905147 -4.74718e-07)
(5.90865 0.0230599 5.52905e-07)
(5.89341 0.0423559 3.62339e-07)
(5.80227 0.0618166 -1.00313e-07)
(5.893 0.0231934 -8.97538e-07)
(5.81927 0.228543 -1.26077e-07)
(5.91578 0.0020812 -1.85797e-08)
(5.83135 0.048889 1.83804e-07)
(5.89274 0.0174471 -4.26371e-07)
(5.85014 0.163724 5.74576e-07)
(5.949 0.142097 -3.47038e-08)
(5.84007 0.0252227 -2.131e-07)
(6.01193 0.0910631 8.01881e-08)
(5.79355 0.0461827 -1.54496e-07)
(5.84065 0.0298413 -2.07017e-07)
(5.69146 0.0903388 8.33388e-07)
(5.76023 0.0748474 -9.80365e-08)
(5.96947 0.0618468 -2.084e-07)
(5.66507 0.0845405 4.15567e-07)
(5.97392 0.0894823 2.99685e-07)
(5.82727 5.71073e-10 3.9813e-12)
(5.73103 0.0779838 -2.02782e-08)
(5.73473 0.0374455 -6.52814e-08)
(5.65573 0.075768 4.49523e-07)
(5.74685 0.0512319 -6.36733e-08)
(5.7778 0.0125902 4.76479e-07)
(5.68218 0.213093 -4.7944e-07)
(5.70956 0.0205473 2.23037e-07)
(5.8665 0.108869 4.36172e-07)
(5.8158 0.114294 -3.98389e-08)
(5.83455 0.110362 2.68311e-08)
(5.72478 1.547e-05 1.05504e-07)
(5.6657 0.0470813 2.13292e-07)
(5.69908 0.0161284 1.74047e-07)
(5.58626 0.0519178 4.30198e-07)
(5.60734 0.0371729 3.364e-07)
(5.80193 0.108529 -1.35158e-06)
(5.65681 0.00418078 4.61045e-08)
(5.63629 0.185151 -7.77469e-07)
(5.62777 0.02036 -1.39262e-08)
(5.62495 0.000629701 2.87394e-07)
(5.70261 0.13693 9.2553e-08)
(5.54973 0.0503844 -1.23781e-09)
(5.59238 0.0315441 -9.01313e-08)
(5.69157 0.144262 7.2255e-08)
(5.47419 0.0737266 -2.23159e-08)
(5.43982 0.0697488 3.67251e-07)
(5.56245 0.00887344 5.5382e-07)
(5.44426 0.0588294 7.16748e-07)
(5.50221 0.0312471 2.37659e-08)
(5.50209 0.0287835 9.02952e-09)
(5.37615 0.0803689 4.16921e-07)
(5.4775 0.0155919 4.27798e-07)
(5.50749 4.5749e-11 3.59399e-14)
(5.33312 0.0781449 3.90688e-07)
(5.46459 0.0418058 1.55364e-07)
(5.45133 0.0414364 8.81514e-08)
(5.48515 1.02123e-10 -7.08247e-13)
(5.44754 0.0145592 -1.11847e-07)
(5.43745 0.0267288 4.12941e-07)
(5.39715 0.0225298 -1.88754e-07)
(5.44576 0.00748749 -2.02774e-08)
(5.41789 0.0528356 4.1519e-07)
(5.37972 0.0438267 2.02958e-08)
(5.35185 0.000611972 3.23658e-08)
(5.36435 0.0268849 8.05773e-07)
(5.38359 0.00423333 1.89815e-07)
(5.47495 0.156593 -6.25434e-08)
(5.50092 0.0434019 -3.20031e-07)
(5.3033 0.00688114 3.49687e-07)
(5.24534 0.0581893 5.65265e-08)
(5.21815 0.0639762 5.81822e-08)
(5.42063 0.195266 4.0897e-07)
(5.20241 0.085434 4.98836e-07)
(5.27428 0.0288404 4.25871e-07)
(5.21059 0.0277617 2.53513e-08)
(5.48636 0.101272 1.65681e-07)
(5.22117 0.0471109 -1.09769e-07)
(5.22571 0.0528857 -6.33425e-07)
(5.42454 0.141085 -1.97761e-07)
(5.26913 2.1241e-10 -6.53577e-14)
(5.26652 0.000119634 -1.35781e-08)
(5.17828 0.06696 8.46303e-07)
(5.18831 0.0606198 3.48366e-07)
(5.13562 0.0733506 9.0441e-08)
(5.18509 0.047276 4.61073e-07)
(5.4504 0.110586 -5.25752e-07)
(5.17342 0.0511623 6.09295e-08)
(5.22313 0.00677835 9.8297e-09)
(5.16483 0.0541807 4.28994e-07)
(5.36333 0.154086 -6.41755e-08)
(5.1487 0.0520489 -8.19137e-07)
(5.38584 0.0940819 -1.89036e-08)
(5.12114 0.0567047 -6.36161e-08)
(5.1346 0.0560305 2.5176e-07)
(5.08578 0.0857245 -8.50883e-08)
(5.07761 0.0750187 -9.56476e-08)
(5.14131 0.0151629 4.63324e-07)
(5.07281 0.0799869 -5.63675e-08)
(5.09443 0.0570075 -6.49141e-07)
(5.10508 0.0230288 -5.15122e-07)
(5.26273 0.0936283 -3.92959e-07)
(5.06825 0.00227865 2.16673e-08)
(5.00711 0.0520883 4.88423e-07)
(4.99853 0.0319288 3.46484e-08)
(4.97503 0.0487249 -1.97361e-08)
(5.01411 0.00113304 -1.21194e-08)
(4.97911 0.0524744 -6.00336e-08)
(4.96739 0.0310638 -7.57448e-07)
(4.99172 0.0169147 -2.075e-07)
(4.98053 0.0442118 -5.83279e-09)
(5.3106 0.106177 -3.05678e-07)
(4.9955 0.0136441 2.97072e-08)
(4.93069 0.0466951 -1.0851e-07)
(5.19927 0.13087 -2.72604e-07)
(4.91931 0.0111732 -1.64199e-08)
(4.87558 0.0496491 -1.92939e-07)
(5.1951 0.103156 -1.35473e-07)
(4.88652 0.0274152 1.77619e-07)
(5.13147 0.143766 -6.11877e-07)
(4.83423 0.0421564 -1.71829e-07)
(4.85161 2.68564e-11 -1.73735e-13)
(4.81972 0.065971 -9.95893e-08)
(4.80551 0.0427935 -1.03154e-07)
(4.79159 0.0681266 -4.75049e-08)
(4.81984 0.019027 -3.08989e-07)
(4.80757 0.0158984 2.0772e-07)
(5.05206 0.0874109 5.37899e-07)
(4.76393 0.0117093 3.22134e-07)
(4.72312 0.0441682 -3.00678e-08)
(4.7272 0.0401726 -6.05685e-08)
(4.70027 0.058816 2.6772e-07)
(4.70794 0.0351039 1.76178e-07)
(4.68704 0.0403428 2.2665e-07)
(4.66015 0.0348589 -3.55996e-09)
(4.96819 0.116234 4.14099e-07)
(4.63686 0.0309464 -1.07407e-07)
(4.6286 0.0452392 6.88494e-08)
(4.61544 0.0511783 -9.03978e-08)
(4.92536 0.106641 -1.25218e-06)
(4.56654 0.0725697 -4.74925e-07)
(4.54651 0.00703924 -7.9765e-08)
(4.52123 0.0694288 1.11231e-07)
(4.51077 0.0242148 -6.5176e-08)
(4.48418 0.0712889 -2.01644e-08)
(4.79075 0.0885046 -7.38971e-07)
(4.47762 0.0690898 2.44315e-07)
(4.48553 1.61698e-11 7.00051e-14)
(4.83893 0.115675 -5.62503e-07)
(4.46811 0.0726383 -1.08626e-07)
(4.81679 0.173449 -3.85991e-08)
(4.75725 0.0890614 4.24907e-07)
(4.74747 0.0841748 1.77307e-09)
(4.43283 0.0452765 -2.85921e-07)
(4.4329 0.0203477 -2.28515e-07)
(4.42013 0.0755884 3.40057e-07)
(4.41805 0.0325657 2.10157e-09)
(4.4121 0.0610743 5.28259e-08)
(4.40046 0.0757069 -6.03443e-09)
(4.40076 0.0120106 -4.38988e-08)
(4.39323 0.0351298 1.01771e-07)
(4.75397 0.116629 -3.15323e-07)
(4.37174 0.0707909 3.53744e-07)
(4.68061 0.0842121 2.27444e-08)
(4.36134 0.0550551 6.60851e-07)
(4.35708 0.0654257 3.27946e-08)
(4.35274 0.0340134 3.21615e-07)
(9.9073 0.203274 3.08736e-08)
(9.88265 0.207197 -3.99336e-08)
(9.92506 0.100204 -4.71094e-07)
(9.77432 0.191153 -5.76414e-08)
(9.95575 0.100886 -1.69452e-07)
(9.66989 0.158402 2.82593e-07)
(9.95753 0.0713293 -3.9794e-07)
(9.78648 0.139873 -2.91717e-07)
(9.97733 0.0523871 -1.05996e-07)
(9.86152 0.0732872 2.30682e-07)
(9.69231 0.159592 5.96361e-07)
(9.73208 0.136124 -2.44035e-07)
(9.91435 0.104188 -2.87206e-07)
(9.88727 0.194176 -5.26835e-08)
(9.916 0.00259219 -4.66497e-07)
(9.97381 0.00753577 -4.62603e-08)
(9.97782 6.04219e-09 -2.73799e-11)
(9.90205 0.0439986 1.29595e-07)
(9.8817 0.0802831 -1.27497e-07)
(9.73614 0.0404441 -1.24228e-06)
(9.87312 0.0717711 3.89639e-08)
(9.92923 1.29782e-08 3.7018e-11)
(9.89909 1.50389e-08 -9.25791e-11)
(9.83501 0.030113 5.47769e-08)
(9.78969 0.0311637 -2.09972e-07)
(9.83846 0.00842194 9.27516e-08)
(9.72906 0.0831624 3.49001e-07)
(9.83337 3.04684e-08 5.82838e-11)
(9.75314 0.040035 2.15895e-07)
(9.72512 1.64842e-08 9.21103e-11)
(9.6488 0.0805063 8.66551e-08)
(9.85775 0.0139842 -7.51322e-07)
(9.59169 0.154932 1.59239e-06)
(9.77135 1.20457e-08 -5.3035e-11)
(9.65774 0.107795 2.6321e-07)
(9.69252 0.0167651 -6.05541e-07)
(9.76579 0.0382408 1.00661e-07)
(9.55598 0.147369 -1.00142e-06)
(9.58821 0.119104 2.49264e-08)
(9.78669 0.0111867 1.69813e-07)
(9.65581 1.27417e-07 -1.19454e-10)
(9.68591 0.12119 -1.47579e-06)
(9.80828 0.0474687 1.45477e-07)
(9.59898 0.0352614 3.55428e-07)
(9.74518 0.0802595 4.47821e-07)
(9.43086 0.143212 1.65004e-08)
(9.64581 0.230851 1.48437e-06)
(9.51985 0.134265 8.19268e-08)
(9.67059 8.87677e-09 5.4165e-11)
(9.67803 0.022736 2.7061e-07)
(9.67148 0.0120841 1.9901e-10)