/*--------------------------------*- C++ -*----------------------------------*\
  =========                 |
  \\      /  F ield         | OpenFOAM: The Open Source CFD Toolbox
   \\    /   O peration     | Website:  https://openfoam.org
    \\  /    A nd           | Version:  7
     \\/     M anipulation  |
\*---------------------------------------------------------------------------*/
FoamFile
{
    version     2.0;
    format      ascii;
    class       scalarField;
    location    "0.145/lagrangian/reactingCloud1";
    object      d;
}
// * * * * * * * * * * * * * * * * * * * * * * * * * * * * * * * * * * * * * //


1205
(
2e-07
2e-07
2e-07
2e-07
2e-07
2e-07
2e-07
2e-07
2e-07
2e-07
2e-07
2e-07
2e-07
2e-07
2e-07
2e-07
2e-07
2e-07
2e-07
2e-07
2e-07
2e-07
2e-07
2e-07
2e-07
2e-07
2e-07
2e-07
2e-07
2e-07
4.24083e-07
2e-07
2e-07
3.60438e-07
2e-07
2e-07
2e-07
2e-07
2e-07
2e-07
2e-07
2e-07
2e-07
2e-07
2e-07
2e-07
2e-07
2e-07
2e-07
2e-07
2e-07
2e-07
2e-07
2e-07
2e-07
2e-07
2e-07
2e-07
2e-07
2e-07
2e-07
2e-07
2e-07
2e-07
2e-07
2e-07
2e-07
2e-07
2e-07
2e-07
2e-07
2e-07
2e-07
2e-07
2e-07
2e-07
2e-07
2e-07
2e-07
2e-07
2e-07
2e-07
2e-07
2e-07
2e-07
2e-07
2e-07
2e-07
2e-07
2e-07
2e-07
2e-07
2e-07
2e-07
2e-07
2e-07
2e-07
2e-07
2e-07
2e-07
2e-07
2e-07
2e-07
2e-07
2e-07
2e-07
2e-07
2e-07
2e-07
2e-07
2e-07
2e-07
2e-07
2e-07
2e-07
2e-07
2e-07
2e-07
2e-07
2e-07
2e-07
2e-07
2e-07
2e-07
2e-07
2e-07
2e-07
2e-07
2e-07
2e-07
2e-07
2e-07
2e-07
2e-07
2e-07
2e-07
2e-07
2e-07
2e-07
2e-07
2e-07
2e-07
2e-07
2e-07
2e-07
2e-07
2e-07
2e-07
2e-07
2e-07
2e-07
2e-07
2e-07
2e-07
2e-07
2e-07
2e-07
2e-07
2e-07
2e-07
2e-07
2e-07
2e-07
2e-07
2e-07
2e-07
2e-07
2e-07
2e-07
2e-07
2e-07
2e-07
2e-07
2e-07
2e-07
2e-07
2e-07
2e-07
2e-07
2e-07
2e-07
2e-07
2e-07
2e-07
2e-07
2e-07
2e-07
2e-07
2e-07
2e-07
2e-07
2e-07
2e-07
2e-07
2e-07
2e-07
2e-07
2e-07
2e-07
2e-07
2e-07
2e-07
2e-07
2e-07
2e-07
2e-07
2e-07
2e-07
2e-07
2e-07
2e-07
2e-07
2e-07
2e-07
2e-07
2e-07
2e-07
2e-07
2e-07
2e-07
2e-07
2e-07
2e-07
2e-07
2e-07
2e-07
2e-07
2e-07
2e-07
2e-07
2e-07
2e-07
2e-07
2e-07
2e-07
2e-07
2e-07
2e-07
2e-07
2e-07
2e-07
6.07239e-07
2e-07
2e-07
2e-07
7.77548e-07
2e-07
2e-07
2e-07
2e-07
2e-07
2e-07
2e-07
2e-07
2e-07
2e-07
2e-07
2e-07
2e-07
2e-07
2e-07
2e-07
2e-07
2e-07
2e-07
2e-07
2e-07
2e-07
2e-07
2e-07
2e-07
2e-07
2e-07
2e-07
2e-07
2e-07
2e-07
2e-07
2e-07
2e-07
9.5116e-07
1.26995e-06
1.42799e-06
6.53931e-07
1.14737e-06
2.70409e-06
1.98181e-06
1.76552e-06
1.68834e-06
1.09716e-06
1.42291e-06
2.25353e-06
2e-07
1.22238e-06
1.14462e-06
2e-07
2e-07
2e-07
1.167e-06
1.21567e-06
2e-07
1.09263e-06
2e-07
1.23135e-06
2.60062e-06
2e-07
2e-07
2e-07
1.33617e-06
2e-07
2e-07
2e-07
1.00779e-06
2e-07
2e-07
2e-07
9.54407e-07
2e-07
2e-07
6.40308e-07
1.70837e-06
1.0761e-06
2e-07
2e-07
2e-07
2e-07
2e-07
2e-07
2e-07
2e-07
9.45189e-07
2e-07
2e-07
2e-07
2e-07
2e-07
2e-07
2e-07
5.63614e-07
2e-07
2e-07
2e-07
2e-07
2e-07
8.54896e-07
2e-07
1.1048e-06
2e-07
2e-07
2e-07
1.53513e-06
2e-07
2e-07
2e-07
2e-07
9.41657e-07
2e-07
2e-07
2e-07
2e-07
2e-07
2e-07
2e-07
2e-07
2e-07
2e-07
2e-07
2e-07
2e-07
1.2346e-06
2e-07
2e-07
2e-07
2e-07
2e-07
2e-07
8.66149e-07
2e-07
2.47627e-06
2e-07
2e-07
2e-07
2e-07
2e-07
2e-07
2e-07
2e-07
2e-07
2e-07
2e-07
2e-07
2e-07
2e-07
2e-07
8.54544e-07
2e-07
2e-07
2e-07
2e-07
2e-07
2e-07
2.95394e-06
2e-07
2e-07
2e-07
2e-07
1.23156e-06
2e-07
2e-07
2e-07
2e-07
2e-07
2e-07
1.00758e-06
2e-07
2e-07
2e-07
2e-07
2e-07
2e-07
2e-07
2e-07
2e-07
2e-07
2e-07
2e-07
2e-07
2e-07
2e-07
2e-07
2e-07
2e-07
2e-07
1.21165e-06
4.33972e-07
2e-07
2e-07
2e-07
2e-07
2e-07
2e-07
2e-07
2e-07
1.36409e-06
2e-07
2e-07
2e-07
2e-07
2e-07
2e-07
2e-07
2e-07
2e-07
2e-07
2e-07
2e-07
2e-07
2e-07
2e-07
2e-07
2e-07
2e-07
2e-07
2e-07
2e-07
2e-07
7.93562e-07
2e-07
1.16041e-06
2e-07
2e-07
2e-07
2e-07
2e-07
2.17635e-06
2e-07
2e-07
2e-07
2e-07
2e-07
2e-07
2e-07
2e-07
2e-07
2e-07
2e-07
2e-07
2e-07
2e-07
2e-07
2e-07
2e-07
2e-07
2e-07
2e-07
2e-07
2e-07
2e-07
2e-07
2e-07
2e-07
2e-07
2e-07
2e-07
2e-07
2e-07
1.30359e-06
2e-07
2e-07
2e-07
1.11212e-06
2e-07
2e-07
2e-07
2e-07
2e-07
2e-07
2e-07
2e-07
2e-07
2e-07
2e-07
2e-07
2e-07
2e-07
2e-07
2e-07
2e-07
2e-07
2e-07
2e-07
8.09514e-07
2e-07
2e-07
2e-07
2e-07
2e-07
2e-07
2e-07
2e-07
2e-07
2e-07
2e-07
2e-07
2e-07
2e-07
2e-07
2e-07
2e-07
7.64335e-07
1.03401e-06
9.19944e-07
7.24304e-07
1.21085e-06
9.06093e-07
2.2917e-06
1.51521e-06
1.59406e-06
2.32954e-06
2.10127e-06
2e-07
2.94472e-06
1.52201e-06
2.30063e-06
1.94183e-06
2e-07
1.28656e-06
2.02538e-06
2e-07
1.56875e-06
2e-07
2e-07
1.29682e-06
2e-07
7.69066e-07
2e-07
2.48989e-06
1.96205e-06
1.11463e-06
2e-07
2e-07
2e-07
2e-07
2e-07
2e-07
2e-07
4.1137e-07
1.88486e-06
1.60314e-06
3.01909e-07
2.64479e-06
2e-07
2e-07
4.33552e-06
5.22859e-07
2e-07
2e-07
2e-07
2e-07
3.27361e-06
1.67469e-06
2e-07
1.73496e-06
2e-07
2e-07
1.44396e-06
2e-07
2e-07
5.37226e-06
3.76993e-06
7.82954e-07
1.63005e-06
2e-07
2e-07
2e-07
2e-07
2.16642e-06
2.19531e-06
1.56256e-06
1.28176e-06
2e-07
2e-07
2e-07
2e-07
2e-07
2e-07
3.03258e-06
1.22301e-06
9.09033e-07
2.78469e-06
1.82854e-06
1.08417e-06
2e-07
2e-07
2e-07
2e-07
1.06349e-06
2e-07
2e-07
2e-07
2e-07
2e-07
2e-07
2.61003e-06
2e-07
3.11757e-06
2e-07
1.32705e-06
2e-07
2.818e-06
2e-07
1.09121e-06
2e-07
1.84029e-06
2e-07
2e-07
2e-07
2e-07
8.59071e-07
1.38152e-06
1.21822e-06
2e-07
2e-07
2e-07
2e-07
2.97613e-06
2e-07
2e-07
2e-07
6.40747e-07
1.50326e-06
2e-07
2e-07
2.13204e-06
2e-07
2e-07
1.10023e-06
2e-07
2e-07
2.49477e-06
2e-07
1.71815e-06
2.17986e-06
3.30897e-06
2e-07
2e-07
2e-07
2e-07
1.85028e-06
2e-07
2e-07
1.57558e-06
2e-07
2e-07
2e-07
2e-07
8.50402e-07
2e-07
2e-07
2e-07
8.80246e-07
1.5627e-06
2e-07
2.69163e-06
2e-07
2e-07
9.17785e-07
8.70847e-07
2.87193e-06
1.48657e-06
3.4991e-06
2e-07
2.19437e-06
2e-07
6.4847e-07
2e-07
2e-07
9.56712e-07
2e-07
1.87622e-06
1.78888e-06
2.69713e-06
2e-07
2e-07
2e-07
2e-07
2e-07
2.28258e-06
2e-07
4.68512e-07
2e-07
2e-07
1.90702e-06
2e-07
2e-07
1.67655e-06
1.35136e-06
2e-07
2e-07
2e-07
2e-07
2e-07
1.15132e-06
2e-07
2e-07
1.10624e-06
2e-07
2e-07
2e-07
2e-07
2e-07
2e-07
2e-07
2e-07
2e-07
2e-07
2e-07
2e-07
1.4503e-06
2.71254e-06
2e-07
2e-07
2e-07
8.75994e-07
8.58516e-07
2e-07
2e-07
2.57304e-06
2e-07
2e-07
1.71227e-06
2e-07
2e-07
2e-07
2e-07
2e-07
2e-07
1.86483e-06
2e-07
2e-07
2e-07
5.82593e-07
2e-07
1.74163e-06
2e-07
2e-07
5.89667e-07
2e-07
2e-07
5.51476e-07
2e-07
2e-07
1.58141e-06
2e-07
2e-07
2e-07
2e-07
2e-07
2e-07
2e-07
2e-07
2e-07
2.0215e-06
2e-07
2e-07
1.48157e-06
2e-07
2e-07
1.4494e-06
2e-07
2.0558e-06
2e-07
2e-07
2e-07
2e-07
2e-07
2e-07
2e-07
3.91343e-06
2e-07
2e-07
2e-07
2e-07
2e-07
2e-07
2e-07
2.55822e-06
2e-07
2e-07
2e-07
1.22279e-06
2e-07
2e-07
2e-07
2e-07
2e-07
1.16281e-06
2e-07
2e-07
2.62341e-06
2e-07
1.06797e-06
1.09102e-06
1.08273e-06
2e-07
2e-07
2e-07
2e-07
2e-07
2e-07
2e-07
2e-07
2.41213e-06
2e-07
1.75152e-06
2e-07
2e-07
2e-07
1.08498e-06
1.36515e-06
3.76222e-06
1.89346e-06
2.68397e-06
2.18655e-06
3.03324e-06
4.07092e-06
4.38325e-06
3.74206e-06
3.26195e-06
2.58546e-06
2.39972e-06
2.81684e-06
2.57492e-06
2.47587e-06
2.48203e-06
2.60328e-06
2.40409e-06
6.48308e-06
2.52342e-06
2.45851e-06
2.45497e-06
2.50565e-06
2.87961e-06
2.59382e-06
3.12659e-06
3.44892e-06
3.99863e-06
2.49884e-06
3.42468e-06
4.24429e-06
2.85309e-06
2.41051e-06
4.48431e-06
2.48407e-06
2.36789e-06
2.60524e-06
2.87738e-06
2.39656e-06
3.74018e-06
2.2838e-06
2.42228e-06
2.93741e-06
2.33768e-06
2.65899e-06
1.9856e-06
2.50345e-06
2.36987e-06
2.43004e-06
2.34639e-06
2.44791e-06
2.34927e-06
2.78287e-06
2.5313e-06
2.55795e-06
2.20956e-06
2.33622e-06
2.74642e-06
2.49366e-06
2.31827e-06
2.29753e-06
4.9377e-06
4.37639e-06
4.41322e-06
4.34566e-06
2.27139e-06
2.66859e-06
2.25163e-06
2.25051e-06
2.80145e-06
2.49651e-06
2.65052e-06
4.16532e-06
2.23437e-06
2.2341e-06
3.74766e-06
2.41673e-06
2.25886e-06
2.89009e-06
2.18714e-06
2.35698e-06
2.17845e-06
2.23228e-06
2.15548e-06
3.70445e-06
1.89069e-06
2.15274e-06
2.22275e-06
3.81749e-06
2.13467e-06
2.50874e-06
2.59125e-06
2.12559e-06
2.99521e-06
2.19831e-06
2.11845e-06
2.27067e-06
3.6833e-06
2.12228e-06
2.17874e-06
2.16438e-06
2.06635e-06
2.07575e-06
2.07357e-06
2.13871e-06
3.35549e-06
3.41807e-06
2.29108e-06
1.95503e-06
2.66328e-06
2.27232e-06
2.51168e-06
3.44313e-06
2.68663e-06
2.02394e-06
2.55429e-06
2.01871e-06
2.09184e-06
2.00197e-06
2.37532e-06
2.35857e-06
2.08658e-06
1.96931e-06
2.05462e-06
2.17457e-06
4.78581e-06
2.36613e-06
1.94794e-06
2.11216e-06
1.62935e-06
1.92861e-06
2.2996e-06
3.21361e-06
2.03685e-06
2.5652e-06
1.91095e-06
2.47463e-06
1.89302e-06
1.99598e-06
1.88336e-06
1.91177e-06
2.30295e-06
2.17974e-06
3.31325e-06
2.66433e-06
1.83997e-06
1.9381e-06
3.31589e-06
2.82554e-06
2.3666e-06
1.8025e-06
3.76757e-06
1.80509e-06
1.80514e-06
1.92295e-06
1.89163e-06
3.29976e-06
1.87709e-06
1.75763e-06
1.74911e-06
1.71633e-06
2.71226e-06
2.02652e-06
1.71257e-06
1.88376e-06
3.17797e-06
1.29416e-06
3.6979e-06
1.89435e-06
2.03338e-06
3.19819e-06
3.28487e-06
1.86997e-06
2.4924e-06
1.62425e-06
1.96032e-06
1.58227e-06
2.46486e-06
1.58267e-06
1.58027e-06
1.57097e-06
1.74437e-06
1.53489e-06
1.66599e-06
1.93106e-06
1.65422e-06
1.65548e-06
1.5294e-06
2.7544e-06
2.8131e-06
1.49983e-06
1.50813e-06
3.77903e-06
3.37942e-06
1.75427e-06
1.4574e-06
1.44239e-06
1.93529e-06
2.82535e-06
2.39299e-06
2.55822e-06
1.52051e-06
1.77609e-06
1.89628e-06
3.07923e-06
4.09287e-06
1.32494e-06
1.75807e-06
1.86811e-06
1.29091e-06
1.98247e-06
1.27524e-06
1.25256e-06
1.23779e-06
1.29494e-06
2.54542e-06
4.24831e-06
1.33552e-06
1.22637e-06
1.20219e-06
2.62334e-06
1.1711e-06
2.50965e-06
1.15508e-06
1.10025e-06
1.12462e-06
1.5939e-06
2.44699e-06
1.30657e-06
1.14126e-06
1.10694e-06
3.36713e-06
1.07557e-06
2.96543e-06
1.22934e-06
1.59717e-06
4.07669e-06
9.95606e-07
2.07866e-06
2.62498e-06
9.73754e-07
2.9983e-06
1.13566e-06
1.28584e-06
8.9162e-07
4.59847e-06
2.53729e-06
2.13737e-06
2.10141e-06
1.82634e-06
1.97873e-06
1.76354e-06
1.4205e-06
6.65876e-07
6.43336e-07
6.45318e-07
1.96412e-06
2.40449e-06
2.53766e-06
5.7638e-07
2.10099e-06
3.88521e-07
3.58987e-07
1.32234e-06
4.35648e-06
3.0665e-07
2.75892e-06
2.4917e-07
1.28472e-06
2.72385e-06
1.80838e-06
2e-07
2e-07
2e-07
2.70865e-06
2e-07
2.48531e-06
2.38537e-06
1.68187e-06
8.98675e-07
1.27061e-06
2e-07
2.22768e-06
1.50219e-06
2e-07
2.40483e-06
2.5979e-06
2.43407e-06
2e-07
1.37173e-06
9.93138e-07
2e-07
1.93976e-06
3.16189e-06
2.89142e-06
2e-07
2e-07
1.76186e-06
2e-07
2e-07
2.41175e-06
2.16946e-06
2e-07
2e-07
2e-07
2e-07
1.78997e-06
2e-07
2.07594e-06
6.72021e-07
2e-07
2.72749e-07
1.07605e-06
7.18639e-07
1.09774e-06
1.08776e-06
1.34161e-06
7.96423e-07
1.86709e-06
1.41702e-06
1.71399e-06
7.7826e-07
1.47802e-06
1.47892e-06
1.13472e-06
1.37055e-06
3.20645e-06
1.15731e-06
6.64622e-07
1.42188e-06
1.4064e-06
1.64815e-06
1.63196e-06
1.19001e-06
3.81136e-06
1.2486e-06
2.05143e-06
3.30869e-06
1.83931e-06
1.97482e-06
2.117e-06
1.89252e-06
1.88148e-06
1.36499e-06
2.18885e-06
1.50469e-06
)


// ************************************************************************* //
