/*--------------------------------*- C++ -*----------------------------------*\
  =========                 |
  \\      /  F ield         | OpenFOAM: The Open Source CFD Toolbox
   \\    /   O peration     | Website:  https://openfoam.org
    \\  /    A nd           | Version:  7
     \\/     M anipulation  |
\*---------------------------------------------------------------------------*/
FoamFile
{
    version     2.0;
    format      ascii;
    class       labelField;
    location    "0.145/lagrangian/reactingCloud1";
    object      origId;
}
// * * * * * * * * * * * * * * * * * * * * * * * * * * * * * * * * * * * * * //


1205
(
1611
1638
1642
1649
1647
1648
1651
1645
1646
1653
1625
1652
1655
1656
1650
1659
1664
1667
1623
1669
1662
1668
1643
1663
1644
1654
1672
1661
1673
1598
1637
1676
1678
1660
1665
1679
1686
1685
1677
1687
1689
1690
1681
1671
1680
1691
1688
1670
1675
1682
1693
1699
1684
1697
1692
1704
1695
1707
1837
1842
1843
1844
1845
1846
1847
1848
1849
1850
1851
1852
1853
1854
1855
1856
1857
1858
1859
1860
1861
1862
1863
1864
1865
1866
1867
1868
1869
1870
1871
1872
1873
1874
1875
1876
1877
1878
1879
1880
1881
1882
1883
1884
1885
1886
1887
1888
1889
1890
1891
1892
1893
1894
1895
1896
1897
1898
1899
1900
1901
1902
1903
1904
1905
1906
1907
1908
1909
1657
1710
1771
1776
1779
1781
1769
1791
1792
1794
1795
1796
1798
1797
1799
1800
1801
1802
1803
1784
1804
1805
1806
1808
1809
1807
1811
1810
1812
1813
1815
1814
1818
1816
1817
1819
1821
1820
1823
1822
1824
1825
1827
1826
1828
1829
1830
1832
1833
1831
1834
1835
1836
1838
1839
1840
1841
1639
1703
1591
1617
1716
1696
1742
1743
1736
1741
1740
1747
1751
1744
1746
1722
1750
1752
1755
1756
1749
1757
1748
1754
1753
1762
1760
1745
1759
1765
1767
1764
1770
1773
1775
1758
1763
1772
1774
1766
1777
1768
1780
1761
1674
1782
1785
1787
1789
1788
1778
1715
1790
1658
1783
1793
1786
1508
1666
1698
1706
1527
1702
1701
1708
1712
1705
1694
1700
1711
1713
1718
1709
1720
1488
1723
1719
1714
1724
1721
1726
1730
1729
1727
1728
1725
1735
1734
1732
1733
1738
1683
1737
1717
1731
1739
1269
1160
1246
1258
1283
1196
1320
1324
1354
1336
1356
1346
1387
1367
1372
1396
1339
1389
1392
1388
1400
1226
1403
1393
1345
1407
1406
1412
1369
1399
1410
1408
1402
1415
1418
1416
1398
1390
1353
1360
1394
1409
1414
1401
1417
1422
1424
1420
1380
1428
1373
1419
1436
1425
1429
1439
1413
1443
1378
1426
1447
1405
1448
1309
1375
1441
1411
1434
1444
1455
1423
1432
1456
1454
1442
1421
1458
1463
1445
1427
1468
1467
1466
1451
1469
1459
1471
1472
1465
1438
1474
1475
1460
1478
1435
1479
1452
1457
1123
1470
1481
1464
1483
1433
1484
1487
1397
1462
1489
1437
1491
1490
1492
1485
1404
1473
1476
1450
1482
1499
1497
1374
1496
1477
1503
1486
1341
1509
1498
1505
1506
1446
1480
1493
1495
1501
1494
1502
1510
1512
1507
1453
1515
1519
1511
1523
1522
1525
1524
1521
1513
1526
1514
1504
1430
1529
1500
1528
1440
1532
1518
1533
1520
1461
1534
1540
1542
1516
1539
1535
1538
1531
1546
1544
1543
1537
1549
1536
1530
1552
1554
1553
1517
1559
1550
1545
1548
1556
1547
1551
1560
1558
1562
1561
1449
1564
1563
1567
1576
1578
1574
1569
1431
1570
1568
1572
1580
1583
1577
1541
1581
1586
1587
1589
1573
1571
1565
1593
1594
1595
1600
1582
1588
1579
1601
1585
1557
1592
1555
1575
1566
1604
1606
1596
1603
1610
1612
1607
1602
1614
1609
1615
1605
1621
1618
1619
1599
1584
1616
1620
1622
1590
1624
1608
1626
1597
1631
1613
1633
1628
1629
1634
1635
1632
1627
1640
1630
1636
1641
892
960
1105
1081
806
1140
953
1047
1046
1050
1073
1090
986
1075
998
1074
1082
1020
905
1099
988
1092
1088
957
1112
1111
1093
1005
970
1001
1078
1072
1114
1115
1116
1122
1126
1121
1106
1108
1133
1009
1131
1135
1096
1127
1103
1137
1136
1130
1057
1143
1146
1149
1119
1138
1118
1154
1142
1113
1070
1152
1117
1150
1156
1158
1159
1089
1101
1048
1128
1166
1165
1157
1168
1170
1153
1063
1141
939
1083
1169
1172
1132
1155
1181
1124
947
1167
1076
1178
1175
1192
1187
1120
1184
1139
1164
1190
1201
1102
1163
1060
1202
1179
1189
1077
1208
1185
1054
1194
1209
1212
1176
1213
1223
1107
1225
1200
1217
1220
1098
1228
1207
1171
1230
1216
1197
1229
1238
1058
1232
1186
1161
1147
1198
1206
1222
1188
1110
1235
1237
1199
1231
1233
1219
1247
1094
1211
1218
1249
1134
1191
1251
1177
1210
1250
1144
1252
1180
1236
1079
1109
1224
1240
1227
1221
1241
1125
1254
1104
1214
1162
1259
1268
1262
1248
1265
1195
1253
1086
1275
1148
1182
1267
1270
1151
1244
1245
1260
1273
1277
1285
1257
1239
1261
1272
1281
1284
1234
1282
1271
1266
1290
1291
1279
1095
1286
1296
1174
1193
1302
1288
1301
1173
1297
1308
1278
1183
1289
1299
1205
1314
1274
1287
1310
1280
1305
1242
1300
1317
1292
1129
1293
1263
1303
1312
1315
1295
1319
1311
1306
1298
1256
1323
1316
1332
1204
1313
1329
1318
1327
1328
1276
1338
1333
1215
1344
1145
1264
1347
1243
1334
1304
1342
1350
1330
1349
1357
1203
1337
1359
1358
1352
1364
1351
1343
1255
1370
1371
1340
1294
1348
1322
1366
1381
1365
1331
1362
1368
1006
1361
1321
1326
1335
1383
1385
1376
1384
1363
1355
1391
1386
1307
1377
1325
1379
1382
1395
507
580
666
618
743
547
749
687
611
690
653
698
772
728
773
775
780
774
766
719
770
782
788
796
754
784
738
755
725
794
665
748
730
804
723
795
786
776
769
802
758
649
787
779
791
761
799
790
805
781
810
792
816
797
793
808
811
823
801
818
817
825
712
763
716
729
824
821
840
833
778
837
842
767
848
845
819
847
830
803
809
846
841
800
863
753
681
870
858
785
854
851
839
852
740
862
831
865
703
827
864
882
677
884
838
722
814
869
861
855
856
871
843
859
850
868
853
894
898
874
888
866
897
908
890
891
807
881
911
844
744
879
901
875
883
563
916
732
914
876
889
829
896
906
813
878
903
932
834
826
910
927
822
925
930
912
920
872
929
945
924
941
895
935
923
946
909
812
815
952
915
867
857
936
798
961
951
963
849
984
969
944
955
938
964
948
967
965
949
943
926
974
956
877
922
918
980
966
904
959
950
886
978
968
982
913
885
990
985
989
981
973
993
983
954
987
762
934
1002
1008
976
962
1003
958
1012
1013
880
994
937
1017
1016
997
917
1018
972
1000
1007
676
1015
992
828
995
979
1024
1028
1019
931
975
1010
1014
1031
1025
1023
1041
1042
1022
1035
1027
902
971
1036
977
1033
1051
1040
1011
1043
928
1055
1049
996
1044
991
1053
1021
933
1059
630
919
686
1038
699
1065
1034
1037
1032
900
999
907
1068
1069
751
1061
1052
1004
1030
1071
1062
1045
1085
1091
942
1029
1097
1080
1066
1087
1039
1056
1064
1067
1100
1084
447
568
515
707
619
472
586
700
565
588
777
789
717
706
737
887
667
750
899
771
820
921
591
836
832
783
835
860
641
940
642
893
873
1026
)


// ************************************************************************* //
