/*--------------------------------*- C++ -*----------------------------------*\
  =========                 |
  \\      /  F ield         | OpenFOAM: The Open Source CFD Toolbox
   \\    /   O peration     | Website:  https://openfoam.org
    \\  /    A nd           | Version:  7
     \\/     M anipulation  |
\*---------------------------------------------------------------------------*/
FoamFile
{
    version     2.0;
    format      ascii;
    class       Cloud<passiveParticle>;
    location    "0.145/lagrangian/reactingCloud1";
    object      positions;
}
// * * * * * * * * * * * * * * * * * * * * * * * * * * * * * * * * * * * * * //

1205
(
(0.00484235 0.0695012 0.430856 0.494801) 46109 91537 2
(0.384624 0.13272 0.18436 0.298296) 46148 91615 2
(0.351969 0.15684 0.323473 0.167718) 46196 91714 2
(0.094475 0.453543 0.0670177 0.384964) 46191 91704 1
(0.66355 0.175051 0.0605916 0.100808) 46193 91793 1
(0.0379102 0.161108 0.480708 0.320274) 46237 91796 2
(0.435374 0.294037 0.123833 0.146756) 46235 91789 1
(0.173914 0.41399 0.239516 0.17258) 46236 91792 1
(0.310642 0.346989 0.0503649 0.292004) 46283 91885 1
(0.322169 0.339314 0.127249 0.211268) 46280 91882 1
(0.157236 0.452514 0.107285 0.282965) 46233 91873 1
(0.0606461 0.478391 0.300983 0.15998) 46283 91973 1
(0.227676 0.386763 0.313085 0.0724758) 46325 91970 1
(0.671497 0.172945 0.154852 0.000706039) 46415 92149 1
(0.513843 0.243312 0.088112 0.154733) 46551 92422 1
(0.391655 0.304012 0.0484797 0.255853) 46503 92326 1
(0.440238 0.281917 0.032868 0.244978) 46546 92411 1
(0.0284924 0.495826 0.34 0.135681) 46545 92497 1
(0.559649 0.111127 0.108955 0.220269) 46585 92490 2
(0.33572 0.343715 0.121336 0.199229) 46587 92493 1
(0.968045 0.0122715 0.00374689 0.0159367) 46592 92504 2
(0.425448 0.287681 0.240891 0.0459791) 46589 92498 1
(0.349449 0.0944564 0.231047 0.325047) 46636 92592 2
(0.267144 0.368065 0.318208 0.0465832) 46638 92683 1
(0.476786 0.127836 0.254992 0.140387) 46591 92589 2
(0.303969 0.3556 0.130766 0.209665) 46682 92771 1
(0.636692 0.104329 0.174891 0.0840883) 46677 92761 2
(0.0596433 0.270755 0.469688 0.199914) 46724 92770 2
(0.406204 0.314578 0.00271279 0.276505) 46721 92761 2
(0.0989453 0.0937907 0.45094 0.356324) 46815 92952 2
(0.0469135 0.485079 0.334633 0.133375) 46816 92951 1
(0.0556439 0.472947 0.0304754 0.440934) 46718 92758 1
(0.292076 0.378149 0.168834 0.160941) 46760 92839 1
(0.444154 0.280395 0.168338 0.107112) 46816 93039 1
(0.273333 0.363274 0.0324204 0.330973) 46812 92944 1
(0.48743 0.262768 0.150875 0.0989269) 46854 93115 1
(0.0787948 0.485483 0.234999 0.200723) 46893 93193 1
(0.0801635 0.458546 0.0383196 0.422971) 46939 93197 2
(0.598316 0.202029 0.174288 0.0253672) 46943 93293 1
(0.324924 0.337769 0.139839 0.197467) 46938 93196 1
(0.370919 0.331727 0.0954993 0.201855) 47028 93463 1
(0.702746 0.121636 0.0358407 0.139778) 47072 93463 2
(0.147281 0.0981728 0.426193 0.328353) 47165 93652 2
(0.0571175 0.471623 0.17396 0.2973) 47123 93566 1
(0.876917 0.0409525 0.0206527 0.0614775) 47164 93648 2
(0.185217 0.414955 0.268836 0.130992) 47163 93733 1
(0.472735 0.131446 0.138136 0.257683) 47208 93735 2
(0.39216 0.304384 0.271508 0.0319482) 47210 93740 1
(0.0116301 0.271907 0.485251 0.231212) 47210 93827 2
(0.264746 0.370512 0.0423925 0.32235) 47251 93821 1
(0.221175 0.296159 0.108745 0.373922) 47251 93821 2
(0.653789 0.0978754 0.0840074 0.164328) 47290 93899 2
(0.158674 0.425725 0.348536 0.0670649) 47336 94079 1
(0.218569 0.391799 0.0246529 0.36498) 47382 94086 1
(0.66343 0.0433997 0.126594 0.166577) 47429 94177 2
(0.015009 0.507065 0.327582 0.150344) 47423 94253 1
(0.0214472 0.509347 0.467377 0.00182884) 47517 94353 1
(0.786078 0.0928946 0.106837 0.0141902) 47508 94338 2
(0.743594 0.12748 0.105778 0.0231488) 3362 6532 1
(0.320733 0.333552 0.138937 0.206778) 3443 6728 1
(0.0960726 0.431373 0.454342 0.0182125) 3361 6532 2
(0.601992 0.19834 0.126198 0.0734692) 3428 6661 1
(0.00131011 0.0643282 0.433006 0.501355) 3423 6650 2
(0.309825 0.0301536 0.313677 0.346344) 3407 6619 2
(0.564747 0.0802537 0.13696 0.21804) 3388 6583 2
(0.0856735 0.456259 0.276341 0.181726) 3362 6534 1
(0.103513 0.0297047 0.449234 0.417549) 3344 6535 2
(0.668579 0.163729 0.0924039 0.0752878) 3321 6490 1
(0.155495 0.337284 0.167347 0.339874) 3318 6485 1
(0.243708 0.226522 0.0949938 0.434777) 3317 6444 2
(0.604109 0.178161 0.0189846 0.198745) 3293 6398 2
(0.105636 0.182088 0.453685 0.258591) 3265 6381 2
(0.526028 0.119109 0.246912 0.107951) 3253 6358 2
(0.48914 0.112043 0.142918 0.2559) 3241 6296 2
(0.557633 0.0103344 0.221225 0.210807) 3229 6275 2
(0.0251062 0.486298 0.299286 0.189309) 3208 6232 1
(0.29657 0.351962 0.162184 0.189283) 2980 96675 2
(0.155487 0.0637054 0.422804 0.358003) 3081 5986 2
(0.106081 0.017587 0.447021 0.429311) 3171 6162 2
(0.234281 0.370036 0.0512946 0.344389) 3158 6134 1
(0.396451 0.301317 0.155477 0.146755) 3123 6068 1
(0.357894 0.318664 0.24223 0.081212) 3103 6065 1
(0.437886 0.0239057 0.281127 0.257081) 3102 6027 2
(0.535431 0.232236 0.213158 0.0191744) 3071 5967 1
(0.0472352 0.0353424 0.440951 0.476471) 3073 5969 2
(0.948529 0.0256997 0.0156775 0.0100935) 3041 5906 1
(0.179425 0.312164 0.0974803 0.410931) 3035 5895 2
(0.593445 0.129332 0.207319 0.0699037) 3003 5870 2
(0.330355 0.280132 0.343577 0.0459359) 2983 5831 2
(0.250363 0.370368 0.210135 0.169134) 2961 5788 1
(0.00291657 0.489963 0.274527 0.232594) 2964 5755 1
(0.115385 0.21528 0.442543 0.226792) 2951 5733 2
(0.308135 0.340664 0.139915 0.211285) 2800 5475 1
(0.912997 0.0434829 0.0115915 0.0319281) 2912 5657 1
(0.122516 0.438627 0.0644395 0.374417) 2888 5610 1
(0.383242 0.307328 0.261138 0.0482923) 2720 5319 1
(0.0866731 0.450576 0.267949 0.194802) 2844 5560 1
(0.533566 0.232412 0.0241549 0.209867) 2845 5523 1
(0.6334 0.12028 0.1833 0.0630203) 2828 5493 2
(0.512314 0.243843 0.105261 0.138582) 2819 5474 1
(0.48215 0.258925 0.148412 0.110513) 2784 5407 1
(0.225454 0.377338 0.0993492 0.297858) 2795 5426 1
(0.124991 0.0269079 0.437505 0.410597) 2771 5382 2
(0.519746 0.141386 0.240127 0.0987408) 2742 5325 2
(0.135367 0.432317 0.349874 0.0824424) 2726 5292 1
(0.143214 0.428393 0.129152 0.299241) 2708 5257 1
(0.139975 0.114128 0.310178 0.435719) 2709 5258 2
(0.235093 0.0334568 0.382454 0.348997) 2682 5208 2
(0.194924 0.353254 0.0492841 0.402538) 2667 5177 2
(0.490646 0.243654 0.00115977 0.26454) 2648 5178 1
(0.26744 0.36628 0.345719 0.0205613) 2623 5093 1
(0.140326 0.429655 0.00364108 0.426378) 2630 5104 1
(0.628184 0.0621109 0.122163 0.187542) 2580 5007 2
(0.739959 0.0212376 0.130779 0.108025) 2585 5055 2
(0.0116274 0.494186 0.344964 0.149223) 2563 4976 1
(0.32164 0.288443 0.0387187 0.351199) 2567 4981 2
(0.045969 0.207682 0.263868 0.482481) 2540 4929 2
(0.630526 0.180064 0.0492161 0.140194) 2525 4938 1
(0.0579455 0.462421 0.290287 0.189347) 2509 4907 1
(0.198883 0.390605 0.278704 0.131808) 2506 4862 1
(0.649639 0.0147187 0.17518 0.160462) 2481 4816 2
(0.64627 0.0541276 0.176865 0.122737) 2460 4775 2
(0.199972 0.284479 0.0952152 0.420334) 2472 4796 2
(0.0877639 0.191311 0.264807 0.456118) 2447 4748 2
(0.0431327 0.478434 0.449732 0.0287015) 2430 4715 1
(0.0505851 0.193898 0.480094 0.275423) 2401 4696 2
(0.274863 0.0299485 0.33262 0.362568) 2402 4677 2
(0.00586694 0.492811 0.167754 0.333568) 3920 7620 1
(0.247605 0.19579 0.179927 0.376679) 4020 96623 1
(0.374174 0.162274 0.31254 0.151012) 3960 7700 2
(0.575307 0.139536 0.216209 0.0689475) 4101 8011 2
(0.517606 0.185653 0.24728 0.0494607) 4103 8015 2
(0.466016 0.262017 0.0824396 0.189528) 4001 7816 1
(0.636761 0.181531 0.137885 0.0438239) 3720 96638 2
(0.468409 0.0744955 0.188817 0.268278) 4084 7939 2
(0.269095 0.361769 0.243899 0.125237) 4023 7859 1
(0.0529176 0.473654 0.0455179 0.42791) 4067 7907 1
(0.00839334 0.478631 0.0321413 0.480835) 4046 7904 1
(0.664722 0.165321 0.0649004 0.105057) 4046 7865 1
(0.000684829 0.472747 0.0421705 0.484398) 4051 7914 1
(0.338257 0.284612 0.0344007 0.34273) 4047 7867 2
(0.812508 0.00347232 0.0902823 0.0937375) 4051 7876 2
(0.465504 0.25911 0.211588 0.0637974) 4007 7789 1
(0.203269 0.224128 0.165617 0.406986) 3986 7748 2
(0.130295 0.368816 0.0669051 0.433984) 3903 7587 2
(0.0370354 0.0547633 0.481351 0.42685) 3966 7712 2
(0.187645 0.0814232 0.32494 0.405992) 3742 7273 2
(0.438988 0.0583433 0.219919 0.28275) 3946 7670 2
(0.176223 0.412407 0.193156 0.218214) 3926 7634 1
(0.0653715 0.136415 0.466995 0.331219) 3883 7550 2
(0.190834 0.394111 0.205624 0.20943) 3910 7639 1
(0.545397 0.225626 0.202168 0.0268087) 3912 7643 1
(0.486192 0.238489 0.263663 0.0116563) 3761 7348 2
(0.234931 0.382757 0.0951649 0.287147) 3870 7523 1
(0.113757 0.441393 0.38955 0.0552994) 3824 7471 1
(0.593966 0.0809678 0.2088 0.116266) 3872 7565 2
(0.432041 0.27851 0.283331 0.00611844) 3876 7537 2
(0.615584 0.192496 0.0673915 0.124528) 3832 7451 1
(0.40584 0.121538 0.296858 0.175764) 3783 7355 2
(0.484153 0.258029 0.200187 0.0576307) 3792 7373 1
(0.71278 0.143637 0.137973 0.00561012) 3681 7154 1
(0.566262 0.00886311 0.207768 0.217107) 3722 7233 2
(0.0503132 0.453778 0.158862 0.337047) 3772 7370 1
(0.168602 0.167536 0.436641 0.227221) 3755 7337 2
(0.296481 0.35192 0.180867 0.170732) 3600 96644 2
(0.311496 0.344281 0.223567 0.120656) 3708 7209 1
(0.260204 0.368324 0.0535095 0.317963) 3683 7157 1
(0.291567 0.354205 0.27043 0.0837991) 3686 7166 1
(0.3091 0.299945 0.354824 0.0361324) 3643 7118 2
(0.32266 0.222969 0.338787 0.115584) 3670 7135 2
(0.197669 0.393131 0.241028 0.168172) 3665 7122 1
(0.376479 0.305428 0.2041 0.113993) 3651 7134 1
(0.116318 0.132033 0.447842 0.303806) 3628 7089 2
(0.624834 0.17062 0.187804 0.0167416) 3633 7063 2
(0.246048 0.372957 0.0401954 0.3408) 3615 7025 1
(0.422725 0.0509821 0.237549 0.288744) 3589 6975 2
(0.280064 0.225934 0.13351 0.360491) 3562 6922 2
(0.594822 0.20211 0.0094557 0.193612) 3568 6936 1
(0.0248985 0.248723 0.221062 0.505317) 3572 6941 2
(0.715753 0.138114 0.00982564 0.136307) 3523 6884 1
(0.408457 0.295598 0.0462662 0.249679) 3508 6817 1
(0.330346 0.262025 0.343015 0.0646142) 3483 6806 2
(0.273905 0.157479 0.367679 0.200937) 3462 6765 2
(0.136816 0.428236 0.433075 0.00187275) 3464 6733 2
(0.146957 0.424434 0.340751 0.0878581) 4760 96586 2
(1.96489e-05 0.495938 0.00175894 0.502284) 4320 96608 1
(1.81546e-05 0.0392129 0.460604 0.500165) 4680 96590 1
(0.0880229 0.455147 0.152909 0.303921) 4560 96596 2
(0.141236 0.134777 0.432998 0.290989) 4920 9612 2
(1.56806e-06 0.498895 0.234477 0.266626) 4360 96606 2
(0.464046 0.25831 0.107114 0.170531) 5110 9992 1
(0.307027 0.0477439 0.349152 0.296077) 5069 9910 2
(0.0252938 0.487455 0.137537 0.349714) 4984 9701 1
(0.237462 0.380914 0.0622228 0.319401) 5006 9745 1
(0.593601 0.0251963 0.204264 0.176938) 5045 9862 2
(0.493568 0.201943 0.262851 0.0416378) 4968 9708 2
(0.670962 0.00759215 0.156147 0.165299) 4974 9680 2
(0.409978 0.275321 0.0106514 0.30405) 4904 9540 2
(0.848199 0.0758064 0.0617775 0.014217) 4905 9543 1
(0.172602 0.414383 0.316651 0.0963646) 4742 9225 1
(0.228975 0.384764 0.017799 0.368462) 4908 9548 1
(0.0491148 0.415234 0.0631958 0.472455) 4869 9471 2
(0.171864 0.308439 0.413019 0.106678) 4896 9527 2
(0.179027 0.40204 0.407654 0.0112783) 4854 9444 2
(0.201529 0.0849608 0.31477 0.39874) 4703 9147 2
(0.33336 0.264001 0.34532 0.0573182) 4728 9234 2
(0.0866424 0.459308 0.432721 0.0213279) 4662 9067 1
(0.620957 0.189729 0.155325 0.0339886) 4684 9112 1
(0.119298 0.439923 0.0145391 0.426239) 4623 8990 1
(0.169151 0.360757 0.0568453 0.413247) 4693 9128 2
(0.198514 0.395687 0.121345 0.284454) 4668 9078 1
(0.698048 0.151119 0.0271116 0.123721) 4561 8870 1
(0.0801761 0.461225 0.216899 0.2417) 4543 8837 1
(0.501037 0.0872326 0.248998 0.162733) 4589 8927 2
(0.126978 0.429073 0.178514 0.265435) 4528 8805 1
(0.113606 0.139098 0.442493 0.304803) 4463 8681 2
(0.376223 0.00470249 0.30721 0.311865) 4468 8689 2
(0.00353 0.334158 0.165768 0.496544) 4473 8699 2
(0.106545 0.448724 0.396113 0.0486183) 4456 8666 1
(0.211349 0.370416 0.404712 0.0135231) 4361 8518 2
(0.195453 0.403692 0.339607 0.0612479) 4342 8443 1
(0.460693 0.269978 0.0679715 0.201358) 4365 8488 1
(0.0887489 0.451071 0.341768 0.118412) 4367 8530 1
(0.68578 0.157032 0.137022 0.0201659) 4342 8445 1
(0.0220435 0.486507 0.446973 0.0444764) 4371 8538 1
(0.213072 0.393927 0.106175 0.286826) 4303 8367 1
(0.116532 0.44208 0.0744186 0.36697) 4332 8424 1
(0.35995 0.321157 0.0497902 0.269102) 4281 8326 1
(1.2595e-06 0.499623 0.122097 0.378279) 4160 96616 2
(0.274296 0.274441 0.374287 0.0769757) 4247 8296 2
(0.630807 0.0667176 0.184307 0.118169) 4228 8223 2
(0.16537 0.394957 0.402446 0.0372275) 4231 8226 1
(0.31447 0.194917 0.341929 0.148685) 4213 8194 2
(0.26735 0.166487 0.190589 0.375574) 4210 8185 2
(0.242043 0.320999 0.0593765 0.377582) 4183 8133 2
(0.323256 0.339017 0.100339 0.237388) 4160 8090 1
(0.12818 0.436262 0.297821 0.137737) 4148 8067 1
(0.171981 0.41373 0.108129 0.306159) 4120 96618 2
(0.038752 0.481731 0.442096 0.0374205) 4121 8012 1
(0.0984077 0.449984 0.00194668 0.449661) 4131 8032 2
(0.345054 0.197037 0.124278 0.33363) 4123 8015 2
(0.224966 0.394264 0.345154 0.0356159) 47745 94809 1
(0.0568695 0.529936 0.043088 0.370107) 47551 94509 1
(0.360016 0.0327264 0.288381 0.318876) 47605 94529 2
(0.50182 0.25926 0.104897 0.134023) 47557 94521 1
(0.0679856 0.0561841 0.409297 0.466533) 47875 95070 2
(0.805831 0.0841958 0.0970984 0.0128748) 47604 94530 2
(0.444464 0.278018 0.0321145 0.245403) 47693 94708 1
(0.281571 0.359221 0.00665972 0.352548) 47646 94612 1
(0.118365 0.288202 0.296716 0.296716) 47636 94680 1
(0.244282 0.377957 0.0683412 0.30942) 47692 94704 1
(0.109871 0.445391 0.159651 0.285087) 47781 94884 1
(0.436678 0.281608 0.191757 0.0899571) 47781 94884 1
(0.169129 0.267256 0.397486 0.166129) 47821 95049 2
(0.0974583 0.451357 0.42811 0.0230749) 47866 95054 1
(0.0241547 0.509702 0.379457 0.0866855) 47858 95123 1
(0.276658 0.365019 0.0790508 0.279272) 47957 95233 1
(0.00143754 0.0266441 0.497315 0.474604) 48040 95487 2
(0.10574 0.454045 0.335767 0.104448) 48313 95945 1
(0.0477549 0.476407 0.275618 0.20022) 48080 95480 1
(0.484743 0.257733 0.187982 0.0695413) 48175 95672 1
(0.366414 0.288623 0.0415112 0.303452) 48220 95759 2
(0.807146 0.0964965 0.0904065 0.00595079) 48306 95932 1
(0.751476 0.0730095 0.120677 0.0548377) 48308 96023 2
(0.235844 0.0310151 0.352907 0.380234) 48438 96195 2
(0.298126 0.333469 0.0718826 0.296522) 5389 10550 1
(0.442695 0.240353 0.292178 0.024774) 5388 10548 2
(0.699099 0.0152391 0.134313 0.151349) 5387 10506 2
(0.838757 0.0182336 0.0623489 0.0806604) 5368 10469 2
(0.144242 0.427836 0.0377933 0.390129) 5326 10385 1
(0.421227 0.288523 0.27923 0.0110202) 5332 10436 1
(0.653009 0.173567 0.0698446 0.10358) 5330 10395 1
(0.0900682 0.4469 0.15245 0.310581) 5308 10348 1
(0.387692 0.191814 0.316792 0.103702) 5288 10348 2
(0.641728 0.169434 0.102741 0.0860974) 5294 10320 1
(0.475154 0.165421 0.0967762 0.262649) 5242 10217 2
(0.800378 0.0998574 0.0261012 0.0736632) 5250 10235 1
(0.225117 0.0676371 0.389867 0.317378) 5224 10220 2
(0.849222 0.0239532 0.0759416 0.0508833) 5226 10224 2
(0.689652 0.155169 0.0485038 0.106675) 5190 10113 1
(0.245218 0.377432 0.0250998 0.35225) 43436 86192 1
(0.228276 0.161152 0.385338 0.225234) 43384 86090 2
(0.223813 0.0549651 0.333449 0.387773) 43482 86284 2
(0.594072 0.0340157 0.20254 0.169373) 43428 86178 2
(0.407047 0.0202269 0.276231 0.296495) 43471 86262 2
(0.357216 0.335498 0.0292434 0.278043) 43335 86077 1
(0.0375177 0.192245 0.473549 0.296689) 43336 86079 2
(0.0387449 0.480705 0.00390683 0.476643) 43379 86078 1
(0.308075 0.346151 0.00671052 0.339063) 43558 86435 1
(0.00797722 0.304401 0.192543 0.495078) 43516 86352 2
(0.401052 0.30033 0.177456 0.121163) 43516 86352 1
(0.33007 0.118594 0.216715 0.334622) 43694 86708 2
(0.0466145 0.0610723 0.418656 0.473657) 43598 86515 2
(0.206112 0.223805 0.174008 0.396075) 43828 86976 2
(0.476604 0.180367 0.0884115 0.254618) 43644 86607 2
(0.787846 0.114984 0.0121666 0.0850034) 43594 86595 1
(0.00950578 0.499402 0.445774 0.0453185) 43640 86687 1
(0.640648 0.179763 0.159032 0.0205565) 43641 86604 1
(0.53575 0.176863 0.0563173 0.23107) 43687 86694 2
(0.475092 0.200263 0.258206 0.0664396) 43692 86791 2
(0.10013 0.451285 0.315365 0.13322) 43591 86502 1
(0.50941 0.247562 0.131247 0.111781) 43869 87145 1
(0.864668 0.0347365 0.0389679 0.0616273) 43590 86499 2
(0.366892 0.0186531 0.316304 0.298151) 43735 86877 2
(0.196525 0.409611 0.205653 0.188211) 43821 86961 1
(0.448122 0.251887 0.0249548 0.275036) 43637 86594 2
(0.609136 0.160148 0.0351607 0.195555) 43635 86590 2
(0.126489 0.0473139 0.389867 0.43633) 43683 86686 2
(0.0773332 0.470208 0.179622 0.272837) 43778 86963 1
(0.860516 0.0726122 0.0233512 0.0435208) 43725 86769 1
(0.648083 0.176875 0.0169632 0.158079) 43725 86772 1
(0.312805 0.0660475 0.283722 0.337425) 43725 86769 2
(0.25812 0.370993 0.265525 0.105362) 44007 87336 1
(0.71094 0.144337 0.131872 0.012851) 43727 86776 1
(0.156601 0.457963 0.251616 0.13382) 43724 86767 1
(0.773118 0.113456 0.0902084 0.0232175) 43727 86776 1
(0.440027 0.095944 0.279728 0.184301) 44055 87432 2
(0.393034 0.290836 0.278955 0.0371749) 43726 86859 2
(3.83754e-08 1.12434e-07 0.764004 0.235996) 43720 189686 2
(0.0446247 0.478456 0.33508 0.141839) 44001 87322 1
(0.0101537 0.411733 0.493928 0.0841854) 43910 87142 2
(0.597025 0.18932 0.198272 0.015383) 44004 87415 2
(5.44525e-09 0.709942 0.290058 1.62532e-10) 43764 141170 1
(0.548459 0.167191 0.225138 0.0592118) 43815 86952 2
(0.251157 0.375555 0.349359 0.0239283) 43770 86860 1
(0.249429 0.400602 0.282836 0.0671324) 43815 86949 1
(0.23756 0.0766387 0.318332 0.367469) 43810 86939 2
(0.648987 0.10693 0.0688725 0.175211) 43812 86944 2
(4.23792e-09 0.320592 0.679408 4.86567e-09) 43808 141214 1
(0.358864 0.251446 0.0901847 0.299505) 43858 87035 2
(0.354037 0.000390769 0.322384 0.323188) 44092 87504 2
(0.542189 0.0806226 0.149065 0.228124) 43855 87030 2
(0.3739 0.313897 0.224776 0.0874271) 43857 87034 1
(0.911461 0.0468749 0.0109028 0.0307614) 43905 87217 1
(0.400871 0.323021 0.0801735 0.195935) 43857 87121 1
(0.0426198 0.120685 0.478348 0.358347) 43902 87126 2
(0.15685 0.246135 0.40535 0.191665) 43904 87215 2
(0.899826 0.0515086 0.00993285 0.0387329) 43901 87121 1
(0.69349 0.100525 0.151062 0.0549225) 44186 87779 2
(0.329145 0.336085 0.259083 0.0756865) 43900 87122 1
(0.20649 0.126802 0.380155 0.286553) 43899 87205 2
(0.606093 0.206321 0.0672679 0.120318) 43944 87207 1
(0.0326743 0.107632 0.375569 0.484125) 43942 87204 2
(0.521347 0.00441068 0.229605 0.244638) 43940 189906 2
(0.613769 0.193313 0.0509681 0.14195) 44182 87684 1
(0.164565 0.0989155 0.32612 0.4104) 43991 87301 2
(0.782077 0.0763104 0.0345136 0.107099) 44087 87493 2
(0.693552 0.0136354 0.139577 0.153236) 44039 87398 2
(0.43429 0.240817 0.266716 0.0581773) 43992 87391 2
(0.438145 0.167383 0.261291 0.133181) 43988 87383 2
(0.854679 0.0134625 0.0598462 0.0720123) 44130 87579 2
(0.560594 0.0265443 0.194933 0.217929) 44035 87389 2
(0.424173 0.306547 0.180959 0.0883205) 44034 87387 1
(0.602479 0.199129 0.0503799 0.148012) 44035 87392 1
(0.478709 0.278049 0.0484374 0.194805) 44035 87477 1
(0.37861 0.206705 0.104509 0.310176) 44270 87860 2
(0.108071 0.446371 0.0787753 0.366784) 44036 87392 1
(0.0491183 0.1921 0.453857 0.304925) 44032 87471 2
(0.311329 0.353665 0.114227 0.220778) 44079 87477 1
(0.152552 0.444165 0.153514 0.249769) 44077 87473 1
(0.0439456 0.407376 0.124313 0.424366) 44119 87557 2
(0.0690284 0.119573 0.464812 0.346586) 44122 87566 2
(0.160886 0.429496 0.0972439 0.312374) 44122 87563 1
(0.99053 0.00114175 0.00498642 0.00334172) 44126 87574 2
(0.506717 0.0299602 0.216829 0.246494) 44122 87564 2
(4.49762e-09 0.77658 0.22342 4.48899e-10) 44116 141522 1
(0.147716 0.446141 0.212257 0.193886) 44122 87651 1
(0.104031 0.0253074 0.422808 0.447853) 44166 87652 2
(0.684056 0.158156 0.0125132 0.145275) 44169 87658 1
(0.53892 0.157879 0.22821 0.0749908) 44266 87939 2
(0.293529 0.214421 0.139487 0.352564) 44167 87654 2
(0.0791758 0.41201 0.45895 0.0498639) 44164 87650 2
(0.47794 0.18461 0.246874 0.0905756) 44167 87741 2
(0.0734117 0.463754 0.205147 0.257688) 44163 87646 1
(0.594915 0.0675384 0.139158 0.198388) 44213 87745 2
(0.407048 0.295937 0.0375261 0.259489) 44165 87650 1
(0.149472 0.426553 0.395667 0.0283079) 44216 87839 1
(0.446009 0.276632 0.189704 0.0876555) 44212 87744 1
(0.383444 0.308464 0.0692984 0.238793) 44306 87932 1
(0.385021 0.0646708 0.243006 0.307302) 44257 87834 2
(0.0225996 0.0901821 0.481179 0.406039) 44210 87827 2
(0.0207837 0.498426 0.430757 0.0500334) 44207 87821 1
(0.16013 0.434784 0.145006 0.26008) 44254 87827 1
(0.592752 0.203557 0.169306 0.034385) 44257 87836 1
(0.226506 0.387199 0.378783 0.0075126) 44254 87828 1
(0.00862761 0.496383 0.19904 0.29595) 44253 87826 1
(0.293167 0.233427 0.133898 0.339508) 44301 87921 2
(0.428323 0.149381 0.146759 0.275537) 44300 87919 2
(0.0323615 0.148304 0.484051 0.335283) 44297 87916 2
(0.236604 0.381737 0.162495 0.219164) 44302 87924 1
(0.263683 0.369038 0.365465 0.00181402) 44297 87914 1
(0.365843 0.318483 0.145204 0.170469) 44297 87914 1
(0.618804 0.191475 0.00715822 0.182563) 44295 87910 1
(0.170943 0.307897 0.388232 0.132928) 44298 88003 2
(0.505546 0.249766 0.242927 0.00176059) 44489 88385 2
(0.261261 0.369684 0.308189 0.0608659) 44346 88014 1
(0.568768 0.21557 0.0192161 0.196446) 44343 88006 1
(0.065716 0.481798 0.444275 0.00821119) 44347 88101 2
(0.568774 0.215697 0.0383398 0.177189) 44345 88010 1
(0.271736 0.37789 0.269374 0.0810009) 44339 88085 1
(0.0893452 0.490916 0.124545 0.295194) 44341 88089 1
(0.0153573 0.375837 0.117428 0.491377) 44391 88102 2
(0.204662 0.398939 0.352274 0.044125) 44390 88100 1
(0.330021 0.345477 0.20358 0.120923) 44435 88189 1
(0.439888 0.253741 0.0269301 0.279441) 44430 88180 2
(0.21923 0.335483 0.372376 0.0729113) 44434 88275 2
(0.13627 0.445819 0.351767 0.066144) 44525 88369 1
(0.287074 0.365369 0.0627518 0.284805) 44472 88263 1
(0.00213138 0.275359 0.224136 0.498374) 44480 88280 2
(0.815874 0.0591918 0.0328949 0.0920392) 44477 88274 2
(0.158425 0.421534 0.248977 0.171065) 44474 88270 1
(0.341204 0.0706131 0.324483 0.263699) 44476 88359 2
(0.0462366 0.194935 0.467609 0.291219) 44523 88453 2
(0.297479 0.361557 0.244973 0.0959907) 44569 88457 1
(0.0204573 0.438948 0.468716 0.0718792) 44523 88453 2
(0.666129 0.167293 0.0494786 0.117099) 44523 88366 1
(0.356691 0.108297 0.315655 0.219357) 44610 88627 2
(0.727851 0.00842375 0.135987 0.127739) 44516 88354 2
(0.399854 0.300869 0.297358 0.00191973) 44521 88364 1
(0.718856 0.147882 0.0968655 0.0363965) 44520 88359 1
(0.354838 0.336984 0.0709394 0.237238) 44566 88539 1
(0.262198 0.369692 0.0939585 0.274151) 44654 88630 1
(0.727431 0.114974 0.0299706 0.127624) 44563 88445 2
(0.515975 0.25078 0.0846812 0.148564) 44562 88443 1
(0.160458 0.446951 0.390447 0.0021438) 44609 88537 1
(0.517472 0.140357 0.217047 0.125124) 44558 88523 2
(0.184576 0.0089263 0.400115 0.406382) 44605 88529 2
(0.201394 0.419196 0.138114 0.241296) 44604 88527 1
(0.277305 0.191637 0.360615 0.170443) 44607 88536 2
(0.247934 0.376009 0.190415 0.185643) 44608 88538 1
(0.0819507 0.121614 0.459074 0.337361) 44744 88810 2
(0.344918 0.328379 0.246368 0.0803345) 44606 88532 1
(0.112132 0.351067 0.442735 0.0940658) 44744 88810 2
(0.0233062 0.488419 0.0143477 0.473927) 44793 88906 1
(0.44501 0.279308 0.0550515 0.22063) 44745 88809 1
(0.46305 0.280813 0.12003 0.136107) 44650 88619 1
(0.0395795 0.493259 0.187925 0.279236) 44744 88895 1
(0.673406 0.066129 0.0976025 0.162863) 44652 88624 2
(0.040755 0.245947 0.257585 0.455713) 44649 88617 2
(0.419534 0.290375 0.246991 0.0430997) 44648 88618 1
(0.52973 0.0412883 0.193994 0.234988) 44788 88896 2
(0.0310097 0.484814 0.387182 0.0969939) 44647 88616 1
(0.169298 0.288239 0.128351 0.414112) 44742 88804 2
(0.86816 0.0673214 0.0225525 0.0419658) 44881 89169 1
(0.343844 0.070533 0.257791 0.327832) 44740 88800 2
(0.521782 0.239556 0.083056 0.155607) 44739 88800 1
(0.233978 0.332181 0.325818 0.108022) 44734 88875 2
(0.0678986 0.466961 0.454166 0.010974) 44786 88979 1
(0.659924 0.0227779 0.148755 0.168543) 44784 88887 2
(0.744545 0.132265 0.0399712 0.0832192) 44783 88885 1
(0.0686305 0.380505 0.114427 0.436438) 44827 88973 2
(0.54846 0.0278126 0.225412 0.198315) 44874 89070 2
(0.216015 0.395527 0.363885 0.0245734) 44780 88967 1
(0.511197 0.250869 0.11772 0.120214) 44831 89069 1
(0.0402387 0.513166 0.0318971 0.414698) 44828 89063 1
(0.117472 0.379543 0.0851908 0.417794) 44873 89065 2
(0.381175 0.28829 0.281914 0.0486201) 44825 89057 2
(0.371835 0.105793 0.209141 0.31323) 44873 89066 2
(0.411769 0.405081 0.0913159 0.0918336) 44864 89048 1
(0.555518 0.0999444 0.221763 0.122775) 44918 89158 2
(0.238152 0.197106 0.184611 0.380131) 44915 89150 2
(0.0509453 0.30149 0.444984 0.202581) 44913 89233 2
(0.263089 0.0720732 0.364948 0.29989) 45007 89421 2
(0.105586 0.503744 0.320617 0.070053) 44955 89229 1
(0.249627 0.376232 0.0333388 0.340802) 45007 89336 1
(0.0937491 0.453373 0.0850283 0.36785) 44962 89244 1
(0.206052 0.404791 0.00522199 0.383934) 45098 89515 2
(0.255491 0.268298 0.117054 0.359157) 45051 89421 2
(0.499046 0.135872 0.114701 0.250381) 45147 89614 2
(0.450402 0.275065 0.161768 0.112765) 45051 89424 1
(0.437846 0.0106538 0.280908 0.270593) 45004 89330 2
(0.173691 0.413962 0.0976622 0.314685) 45005 89332 1
(0.333501 0.336256 0.280587 0.0496563) 45006 89419 1
(0.0444766 0.478473 0.211489 0.265561) 45051 89422 1
(0.0597066 0.407521 0.0631027 0.46967) 45141 89602 2
(0.0634028 0.359042 0.110278 0.467278) 45093 89506 2
(0.49428 0.0630024 0.193528 0.24919) 45138 89595 2
(0.438468 0.281167 0.275296 0.00507002) 45184 89690 1
(0.379591 0.318329 0.0462472 0.255833) 45131 89581 1
(0.152773 0.424449 0.307254 0.115523) 45130 89580 1
(0.0568275 0.473028 0.0113476 0.458796) 45135 89592 1
(0.0624974 0.469585 0.248852 0.219065) 45135 89590 1
(0.972123 0.0139882 0.00724752 0.00664125) 45228 89778 1
(0.314045 0.343794 0.329047 0.013114) 45177 89674 1
(0.214723 0.0219247 0.371398 0.391954) 45272 89863 2
(0.611569 0.203217 0.163743 0.0214718) 45227 89773 1
(0.215417 0.13801 0.381661 0.264911) 45179 89765 2
(0.0249874 0.0957457 0.392039 0.487228) 45220 89760 2
(0.490311 0.0519487 0.202941 0.254799) 45273 89866 2
(0.27542 0.5167 0.105977 0.101903) 45216 89840 1
(0.353466 0.102239 0.32297 0.221325) 45269 89860 2
(0.00750927 0.33776 0.45855 0.196181) 45220 89847 2
(0.3892 0.172972 0.132926 0.304901) 45265 89850 2
(0.0416933 0.479421 0.386594 0.0922921) 45264 89850 1
(0.629961 0.187413 0.00574625 0.176879) 45360 90039 2
(0.419429 0.0807373 0.28952 0.210313) 45448 90218 2
(0.148825 0.366793 0.407466 0.0769157) 45359 90125 2
(0.457807 0.271357 0.116298 0.154537) 45356 90032 1
(0.722997 0.138711 0.0442622 0.0940298) 45449 90220 1
(0.141806 0.429272 0.0736917 0.35523) 45401 90122 1
(0.0586931 0.479669 0.417137 0.0445009) 45396 90199 2
(0.0450599 0.483859 0.134721 0.33636) 45492 90303 1
(0.175801 0.397061 0.0156541 0.411484) 45446 90212 2
(0.443503 0.278618 0.148032 0.129847) 45446 90214 1
(0.617322 0.0147276 0.191299 0.176652) 45440 90202 2
(0.006388 0.375374 0.496526 0.121712) 45491 90304 2
(0.856879 0.0634964 0.00820714 0.0714176) 45538 90396 2
(0.34326 0.336357 0.196611 0.123772) 45537 90393 1
(0.82184 0.0771447 0.0860707 0.0149448) 45537 90481 2
(0.0802611 0.480663 0.436712 0.00236397) 45536 90391 1
(0.794184 0.0166842 0.0861784 0.102953) 45583 90486 2
(0.215 0.392078 0.118715 0.274206) 45486 90294 1
(0.160436 0.420124 0.125373 0.294067) 45484 90288 1
(0.158548 0.428636 0.120148 0.292668) 45534 90387 1
(0.139085 0.340966 0.0905475 0.429401) 45579 90478 2
(0.517885 0.0953055 0.146001 0.240808) 45574 90468 2
(0.172334 0.414524 0.154013 0.25913) 45571 90464 1
(0.688586 0.15598 0.00616701 0.149267) 45623 90565 1
(0.235157 0.360652 0.021959 0.382233) 45670 90660 2
(0.0778116 0.462218 0.432489 0.0274818) 45618 90556 1
(0.20805 0.396022 0.257495 0.138433) 45621 90562 1
(0.247185 0.0315511 0.373303 0.347961) 45617 90641 2
(0.0509984 0.475067 0.182845 0.29109) 45711 90744 1
(0.4119 0.235607 0.293504 0.0589891) 45701 90724 2
(0.135296 0.432502 0.10953 0.322672) 45709 90738 1
(0.0148296 0.491887 0.457714 0.0355701) 45708 90823 2
(0.0885403 0.315116 0.433296 0.163048) 45708 90823 2
(0.697123 0.0730365 0.148811 0.0810292) 45801 91009 2
(0.0958793 0.149585 0.443002 0.311534) 45754 90915 2
(0.0880251 0.337094 0.434654 0.140227) 45753 90913 2
(0.833002 0.0858008 0.0516518 0.0295453) 45797 91001 1
(0.0618248 0.469376 0.0181568 0.450642) 45894 91107 1
(0.530919 0.247019 0.196899 0.0251629) 45842 91003 1
(0.312005 0.15675 0.337936 0.193309) 45845 91097 2
(0.606759 0.121983 0.188808 0.0824505) 45841 91089 2
(0.414167 0.233303 0.0686349 0.283896) 45889 91097 2
(0.682403 0.0443536 0.158696 0.114548) 45882 91086 2
(0.445395 0.288556 0.0345592 0.23149) 45888 91183 1
(0.70116 0.0731247 0.13095 0.0947649) 45877 91161 2
(0.140555 0.43524 0.339852 0.0843527) 45886 91179 1
(0.441622 0.29216 0.261666 0.0045527) 45932 91183 1
(0.0934018 0.312733 0.141303 0.452561) 45926 91172 2
(0.739576 0.140454 0.0397852 0.0801849) 45922 91163 1
(0.320747 0.339961 0.0933817 0.24591) 45928 91178 1
(0.462143 0.0234666 0.270122 0.244267) 46015 91352 2
(0.119493 0.471326 0.0796414 0.32954) 46015 91437 1
(0.199823 0.404258 0.0161491 0.37977) 46063 91445 2
(0.411421 0.248508 0.0462519 0.293818) 46062 91444 2
(0.446914 0.174534 0.264093 0.114459) 46060 91527 2
(0.574718 0.120672 0.212981 0.0916294) 36480 72896 2
(0.222403 0.389192 0.366759 0.0216453) 42084 83575 1
(0.638897 0.181169 0.168032 0.0119022) 42516 84352 1
(0.138336 0.44062 0.41183 0.00921403) 42958 85235 1
(0.525313 0.237575 0.144951 0.0921608) 42386 84094 1
(0.029223 0.248424 0.47976 0.242593) 43135 85677 2
(0.0128245 0.503714 0.0641556 0.419306) 41771 82949 1
(0.286553 0.106101 0.250856 0.356491) 42034 83388 2
(0.642501 0.179209 0.10405 0.0742393) 41758 82836 1
(0.0905887 0.382568 0.0733766 0.453467) 41837 82994 2
(0.503962 0.255073 0.0921529 0.148812) 41883 83173 1
(0.527205 0.181969 0.235743 0.0550828) 41788 82898 2
(0.720278 0.140238 0.0181879 0.121296) 41797 82914 1
(0.496089 0.252411 0.0101649 0.241335) 41883 83085 2