/*--------------------------------*- C++ -*----------------------------------*\
  =========                 |
  \\      /  F ield         | OpenFOAM: The Open Source CFD Toolbox
   \\    /   O peration     | Website:  https://openfoam.org
    \\  /    A nd           | Version:  7
     \\/     M anipulation  |
\*---------------------------------------------------------------------------*/
FoamFile
{
    version     2.0;
    format      ascii;
    class       scalarField;
    location    "0.145/lagrangian/reactingCloud1";
    object      tTurb;
}
// * * * * * * * * * * * * * * * * * * * * * * * * * * * * * * * * * * * * * //


1205
(
0.00087505
0.00255
0.000637798
0.006193
0.001121
0.001105
0.006145
0.00240505
0.00234709
0.006097
0.0022912
0.001001
0.00020235
0.00196935
0.000770199
0.00199115
0.000713
0.005761
0.00533508
0.005713
0.00199705
0.005737
0.0021055
0.00013
0.00198085
0.0006662
0.005641
0.00165018
0.005617
0.0009357
0.000882582
0.005545
0.005497
0.00108285
0.00159762
0.000353
0.005329
0.00535263
0.00163705
0.005305
0.005257
0.005233
0.0016662
0.00064455
0.0012165
0.00115573
0.00139705
0.0002312
0.000152749
0.001645
0.000895292
0.005017
0.00218905
0.00100935
0.001427
0.004897
0.00136876
0.004825
0.00111485
0.001609
0.00046505
0.001561
0.001537
0.001513
0.001489
0.001465
0.001441
0.001417
0.001393
0.001369
0.001345
0.001321
0.001297
0.001273
0.001249
0.001225
6.45984e-05
0.000587795
0.001153
0.001129
0.001105
0.001081
0.001057
0.001033
0.001009
0.000985
0.000961
0.000937
0.000913
0.000889
0.000865
0.000841
0.0002285
0.000793
0.000769
0.00015035
0.000721
0.000697
0.000673
0.000649
0.000625
0.000601
0.000577
0.000553
0.000529
0.000505
0.000481
0.000457
0.000433
0.000409
0.000385
0.000361
0.000337
0.000313
0.000289
0.000265
0.000241
0.000217
0.000193
0.000169
0.000145
0.000121
9.7e-05
7.3e-05
4.9e-05
2.5e-05
1e-06
0.00078355
0.0003872
4.685e-05
0.00058135
0.0011212
0.00163966
0.00056655
0.002833
0.002809
0.002761
0.002737
0.002713
0.002665
0.002689
0.002641
0.002617
0.002593
0.002569
0.002545
0.00127055
0.002521
0.002497
0.002473
0.002425
0.002401
0.001032
0.002353
0.002377
0.002329
0.002305
0.002257
0.002281
0.002185
0.000818555
0.0002092
0.002161
0.002113
0.000720175
0.002065
0.002089
0.002041
0.002017
0.001969
0.001993
0.001945
0.001921
0.001897
0.001849
0.001825
0.000452
0.001801
0.001777
0.001753
0.001705
0.001681
0.001657
0.00105705
0.000195258
0.00010405
0.000476846
8.68452e-05
8.505e-05
0.000467346
0.003985
0.003961
0.000363116
0.000127151
0.00135324
0.003889
0.003793
5.305e-05
0.00391263
0.00203005
0.003817
0.003769
0.003697
0.003673
7.45784e-05
0.003649
0.0018652
0.003721
0.003745
0.003529
0.003577
0.00071455
0.003601
0.003457
0.003409
0.003481
0.003337
0.003265
0.003217
0.0004312
0.0015052
0.003289
0.003241
0.00115806
0.003169
0.00197003
0.003097
0.00034435
0.00048585
0.003049
0.002977
0.002929
0.002881
0.002905
0.000586578
8.32e-05
0.002857
0.00054985
0.00160978
0.002785
0.002953
0.00120574
0.00462105
0.00130955
0.004849
0.00112316
0.00106105
0.00112127
0.004801
0.004705
0.000950633
0.0009505
0.00055835
0.0006765
0.00041555
0.004561
0.000935627
0.004513
0.000789
0.004441
0.0006005
0.00092555
0.004417
0.000610065
0.004369
0.004273
0.000247676
0.000429163
0.0003655
0.000636179
0.004153
0.004177
0.0002795
0.004201
0.004081
0.000465
0.004105
0.000422229
0.00035018
0.004057
0.00465705
0.001126
0.00272385
0.00193685
0.00312135
0.0034012
0.00037135
0.00153705
0.0007225
0.0019385
0.00394585
0.00223335
0.00263919
0.0021575
0.00131005
0.0019262
0.00332835
0.0022945
0.00107735
0.00252505
0.003576
0.0036967
0.00175805
0.00421005
0.00322985
0.00404731
0.00537535
0.00271027
0.00312185
0.00263185
0.0033347
0.00458085
0.0004197
0.00069635
0.003168
0.00155635
0.0048262
0.00378935
0.00201152
0.0034635
0.004611
0.00057855
0.00164191
0.0003122
0.00252485
0.00229735
0.00773334
0.00304957
0.00299871
0.0028805
0.001914
0.0069985
0.0040207
0.0007847
0.00409953
0.003945
0.00084785
0.00453535
0.00435285
0.0044737
0.0024985
0.0063632
0.0012727
0.000308
0.00238929
0.00383235
0.0021892
0.00305735
0.00371906
0.003585
0.00272955
0.00329355
0.003561
0.00229035
0.00302085
0.00171035
0.0004862
0.001512
0.00318205
0.00581305
0.00139
0.00265404
0.00398335
0.00271305
0.00261158
0.00222171
0.003201
0.00252705
0.00250255
0.00418085
0.00379135
0.00182479
0.00155905
0.0005527
0.00331221
0.00591155
0.00079955
0.00069385
0.00358558
0.00311705
0.00428235
0.00620705
0.00226417
0.00217855
0.002889
0.00153617
0.00282185
0.00122935
0.00212313
0.0020802
0.0020825
0.00209505
0.0002167
0.00155426
0.00199655
0.0021202
0.00176135
0.00199055
0.00067735
7.27e-05
0.00326335
0.00242385
0.0010915
0.00123135
0.00311935
0.00099085
0.0032102
0.000427655
0.0023336
0.00236705
0.00153805
0.00065535
0.0028385
0.00116035
0.00252055
0.00059035
0.00205255
0.00574303
0.00097035
0.00100127
0.0004362
0.00115485
0.004217
0.00144705
0.0021737
0.009169
0.002025
9.61898e-05
0.00200055
0.00073035
0.00196355
0.0013046
0.00118185
0.0021977
0.0005607
0.00123673
0.0027277
4.82e-05
0.00336105
0.008977
0.00151535
0.008953
0.0002492
0.00288655
0.003809
0.0016205
0.008737
0.0013367
0.00296235
0.0050012
0.00216008
0.00089105
0.008641
0.00072505
0.003593
0.00318235
0.000118
0.00061105
0.00303621
0.00199135
0.001281
0.00420755
0.0016322
0.008329
0.00236119
0.00197185
0.001559
0.0015242
0.0036182
0.0005712
0.00245835
0.001671
0.0002977
0.00157655
0.00036105
0.000976295
0.00226722
0.00013805
0.007945
0.007897
0.002873
0.00422905
0.00103505
0.0042105
0.00021435
0.00134405
0.00134335
0.007777
0.00116635
0.000403208
0.002705
0.007705
0.007681
0.007633
0.0016363
0.0017845
0.00200235
0.00103135
0.0019472
0.002377
0.007369
0.00052135
0.00134235
0.0013931
0.007345
0.00044785
0.00170605
0.00027955
0.0003347
0.00194919
0.00096885
0.000105
0.007225
0.001738
0.000627758
0.007129
0.007081
0.00048785
6.12e-05
0.007033
0.0031998
0.007009
0.00157
0.006865
0.00109035
0.00106635
0.00417585
0.00085135
0.00126935
0.00262355
0.001721
0.00187505
0.001673
0.0013662
0.001625
0.00071585
0.006625
0.0011387
0.006577
0.001577
0.001553
0.006553
0.006529
0.00075435
0.00180971
0.006409
0.00291529
0.00260133
0.006385
0.0147682
0.0122952
0.00222185
0.0055215
0.00584805
0.00716385
0.00702935
0.0041237
0.0054347
0.00214405
0.0032232
0.00404785
0.00251855
0.0037382
0.00426635
0.00667085
0.00277979
0.0069492
0.00423685
0.002709
0.00441935
0.00460935
0.00579299
0.00450555
0.00244048
0.00472335
0.00524255
0.00264855
0.00534305
0.00525485
0.00592635
0.000238701
0.0066989
0.0019495
0.0011272
0.00054585
0.000886529
0.0009352
0.00019885
0.0039727
0.00547305
0.00411055
2.63226e-05
7.705e-05
0.00203135
0.00221332
0.00034055
0.00534209
0.0039402
0.0037885
0.0035382
0.0053312
0.0029232
0.00520955
0.00371564
0.0017965
0.00347005
0.00454071
0.000948
0.00194805
0.00436885
0.00464585
0.00377685
0.00597535
2.205e-05
0.00190685
0.0056237
0.00603085
0.00363905
0.00678635
0.0007712
0.0032497
0.0034982
0.00492606
0.0054205
0.0019147
0.00254705
0.0048195
0.00371385
0.00097435
0.00094255
0.00285705
0.00070385
0.0051995
0.0037962
0.00193929
0.00235033
0.00309935
0.00348035
0.000225362
0.00353035
0.00442585
0.00202255
0.00130485
0.00541605
0.00258626
0.0002272
0.004377
0.00525335
0.0036617
0.0043962
0.0012042
0.0001907
0.00601916
0.0032645
0.00278785
0.00582818
0.0010875
0.00201155
0.00129835
0.0007222
0.004136
0.00375284
0.00143035
0.00616021
0.00387961
0.006141
0.00593405
0.00377985
0.00187154
0.0022235
0.00227535
0.000568202
0.00163155
0.00106055
0.0037975
0.0008017
0.00450835
0.00112335
0.00564605
0.00457005
0.00442555
0.00043535
0.00109605
0.00579435
0.0014785
0.0001817
0.00248805
0.00214208
0.00221435
0.00066385
0.0052027
0.00521855
0.000845
0.0048472
0.0028912
0.0024807
0.00258485
0.00338508
0.00250905
0.00013585
0.0003212
0.0025532
0.00036885
0.0010007
0.00521705
0.00078585
0.00260235
0.0037982
0.0034372
0.00035385
0.00150705
0.0004987
0.00512735
0.0044002
0.0002152
0.0005747
0.0025367
0.0072805
0.0024575
0.00355121
0.000607
0.0044382
0.00401468
0.0003795
0.00418334
0.00020135
0.0034852
0.0040842
0.00082735
0.0003792
0.0053047
0.00282019
0.0015057
0.00287355
0.00477128
0.00570885
0.00142485
0.00399655
0.00626535
0.00206835
0.0015697
0.00012435
0.001403
0.0052477
0.001779
0.00299285
0.00426535
0.0011302
0.000831602
0.0036307
0.00115285
0.00539155
0.00214053
0.0028652
0.00301985
0.000233726
0.00166505
0.0009307
0.00337155
0.002888
0.0064875
0.00363235
0.0031747
0.00575835
0.00457235
0.00513159
0.001689
0.00505755
0.00426655
0.0005192
0.00411035
0.00158744
0.000529031
0.0039562
0.00103055
0.00193835
0.0004182
0.0050482
0.00229855
0.00492085
0.00035235
0.00453435
0.00079535
3.185e-05
0.0028512
0.00237335
0.0033762
0.0014562
0.00175035
0.0018272
0.00225735
0.00025085
0.00348235
0.00291465
0.00020755
0.00086705
0.0015455
0.0013125
0.0030187
0.0012382
0.00524235
0.00238985
0.00519355
0.00279705
0.00347635
0.0040855
0.00312605
0.0045962
0.00490885
0.005456
0.00452235
0.0048597
0.0040502
0.0037902
0.0014932
0.00314355
0.00271571
0.00283805
0.00182255
0.00250805
0.00186785
0.00131016
0.00025755
0.00069435
0.00273305
0.00150785
0.0044517
0.00490629
0.00427353
0.00215455
0.00255205
0.0001055
0.0034207
0.0015272
0.0034275
0.00278505
0.0025175
0.00355455
0.0032307
0.00226505
0.002964
0.00278805
0.0040047
0.00152905
0.00224585
0.000739848
0.00411435
0.00452605
0.0028897
0.00295905
0.007975
0.00435181
0.00368305
0.00133305
0.0019952
0.0021432
0.00122585
0.0002875
0.00701255
0.008921
0.00760955
0.0065382
0.0104007
0.00787355
0.0096075
0.0063805
0.00806858
0.00377
0.0115746
0.0027362
0.0106172
0.00483235
0.0052757
0.00209705
0.00437305
0.00544935
0.00559581
0.00547235
0.00577555
0.0044227
0.00494036
0.0109088
0.0060242
0.00866505
0.00809135
0.00300371
0.00324335
0.00122371
0.0103181
0.00352071
0.00528455
0.0100471
0.00758605
0.00227405
0.0092777
0.00538055
0.0063082
0.000913008
0.000218
0.00990755
0.0107963
0.00649755
0.00774616
0.005001
0.0046982
0.0102709
0.003303
0.0095812
0.0083997
0.00104313
0.0037617
0.00951005
2.08676e-05
0.00499705
0.0017465
0.00440414
0.0110151
0.00340685
0.00117446
0.0109456
0.0061837
0.00598735
0.00847135
0.000760838
0.0064037
0.00909235
0.0019012
0.00097605
0.0054282
0.00342555
0.00620485
0.0078957
0.00305599
0.0046472
5.32014e-05
0.0011515
0.00930073
0.00636305
0.00383384
0.00636785
0.00579799
0.00090535
0.0026047
0.00081755
0.00060485
0.0074987
0.00932285
0.00267635
0.00907849
0.0080695
0.0054242
0.00828649
0.00407405
0.0076257
0.0030801
0.00629055
0.00506305
0.0070095
0.00449205
0.0072107
0.00641406
0.00254833
4.22223e-05
0.010226
0.00962005
0.00880285
0.00272835
0.00470105
0.00374885
0.00262155
0.0032957
0.0005817
0.00556655
0.00498481
0.0025752
0.00839825
0.00888768
0.0072731
0.00856405
0.0080637
0.00831955
0.00537447
0.00533235
0.0071335
0.00592255
0.00804085
0.000413493
0.00857485
0.0100449
0.00174683
0.0009035
0.00132255
0.00753755
0.0087397
0.00830857
0.00864567
0.00441236
0.00889105
0.00186613
0.0030505
0.00897405
0.0083125
0.0052705
0.00126935
0.00642521
6.585e-05
0.00498905
0.00205035
0.0046367
0.0071582
0.0056982
0.00822636
0.0023487
0.0064985
0.00667485
0.00712035
0.0019847
0.0058562
0.001548
0.0079452
0.0044835
0.0065972
0.00553033
0.00662405
0.00534555
0.00873535
0.00551785
0.00082755
0.00166335
0.0069657
0.0004887
0.00231435
0.00930305
0.00639905
0.0014627
0.00331297
0.00148405
0.00159199
0.00852221
0.00166671
0.00330385
0.00318713
0.0008705
0.00760235
0.00719805
0.00811016
0.00321347
0.00630605
0.00501
0.00154678
0.000965495
0.0044762
0.00363485
0.00256035
0.00635271
0.00400659
0.00795905
0.0059412
0.00215185
0.0040145
0.00362249
0.0063702
0.00662935
0.00228285
0.0040775
0.00253
0.00061155
0.00541405
0.00213421
0.00441705
0.0044375
0.0022445
0.00104762
0.002326
0.00090505
0.00436159
0.0021407
0.000828
0.00643948
0.00501105
0.00457655
0.00273055
0.00361382
0.00252435
0.00119829
0.00386635
0.00664085
0.00525085
0.00538435
0.00436442
0.00537085
0.000644137
0.0060815
0.0012635
0.00139035
0.00662855
0.00029745
0.0017527
0.00367955
0.00315838
0.00599555
0.00763235
0.00447639
0.00272835
0.00355035
0.00743805
0.007441
0.003419
0.00172835
0.00094555
0.0002517
0.00545755
0.0063075
0.00287831
0.000378997
0.0059715
0.0074292
0.00179985
0.0071415
0.00572035
0.00154905
0.0061577
0.00722455
0.0019392
0.0012947
0.0062305
0.00405605
0.0059192
0.00556205
0.00660285
0.0023745
0.00726672
0.00455335
0.00779835
0.000286
0.0068447
0.00709405
0.0040965
0.00515135
0.0075017
0.0003792
0.00271355
0.0051207
0.0059972
0.00512205
0.0044005
0.00446035
0.00024305
0.006023
0.00834705
0.000229479
0.00676105
0.00350635
0.00602505
0.000347704
0.00644764
0.00433855
0.00569905
0.00538658
0.0034992
0.00694905
0.00315537
0.00132355
0.005793
0.0049447
0.00523135
0.000989058
0.0069157
0.00152085
0.00103255
0.0048212
0.0217327
0.0236284
0.0206612
0.0163471
0.0151816
0.0021847
0.0124766
0.0156426
0.0145929
0.00186805
0.0116931
0.0127079
0.0146609
0.0123179
0.0141751
0.0110816
0.000694806
0.0101449
0.0089897
0.0126547
0.00577605
0.0073737
0.00489685
0.00072005
0.0095257
0.00401205
0.00237255
0.00203505
0.00820505
0.00638785
0.0107979
0.0088567
0.00750485
0.0079502
)


// ************************************************************************* //
