/*--------------------------------*- C++ -*----------------------------------*\
  =========                 |
  \\      /  F ield         | OpenFOAM: The Open Source CFD Toolbox
   \\    /   O peration     | Website:  https://openfoam.org
    \\  /    A nd           | Version:  7
     \\/     M anipulation  |
\*---------------------------------------------------------------------------*/
FoamFile
{
    version     2.0;
    format      ascii;
    class       vectorField;
    location    "0.145/lagrangian/reactingCloud1";
    object      U;
}
// * * * * * * * * * * * * * * * * * * * * * * * * * * * * * * * * * * * * * //


1205
(
(389.826 -1.39185 -3.23957)
(430.882 -7.61664 1.51664)
(426.971 -5.66676 -7.92414)
(440.579 -0.0467436 6.94565e-06)
(438.443 -0.933456 10.3337)
(440.518 -0.0349159 -0.869379)
(440.647 -0.0397512 -5.95768e-06)
(441.422 -12.5725 -7.0503)
(432.684 -1.27659 11.9187)
(440.159 -0.0679604 5.19424e-07)
(457.368 -28.9895 31.2908)
(434.063 9.37315 6.80746)
(440.261 -0.366741 -0.34648)
(435.742 2.2858 1.20954)
(386.25 8.54968 -3.53939)
(431.522 -1.16289 5.30236)
(440.662 -0.00566059 2.01303)
(439.58 -0.0176694 -2.82254e-05)
(432.207 -16.9675 2.49185)
(439.98 -0.00402876 -1.19389e-07)
(433.232 0.691312 -0.562444)
(439.543 -0.0048943 -4.18584e-05)
(433.053 -2.73947 -2.24645)
(389.333 14.3257 1.2355)
(459.94 -9.84835 -2.26857)
(409.309 0.22602 -0.595402)
(439.229 0.0464382 -1.22212e-05)
(427.785 -4.19129 -3.32676)
(439.21 0.0622079 -3.55879e-05)
(363.214 4.05604 17.4369)
(374.43 14.3267 2.08692)
(439.701 0.0530564 -8.67298e-05)
(439.8 0.0350034 1.05906e-06)
(361.73 9.19784 9.31751)
(434.03 -3.82012 2.53036)
(440.535 1.69448 0.170149)
(439.329 0.131329 2.22502e-06)
(439.137 0.212872 5.57208e-07)
(433.741 -5.20212 5.79788)
(439.178 0.187282 -4.29815e-05)
(438.604 0.405831 -8.06369e-06)
(438.495 0.450053 -4.22558e-06)
(423.754 1.89917 -1.67247)
(404.118 0.806718 0.270035)
(435.863 0.233648 -0.377011)
(439.723 0.975104 -0.360457)
(433.355 0.858934 0.220163)
(416.784 -2.1551 -4.8444)
(404.488 2.41827 5.50382)
(419.577 -8.35449 -9.3931)
(437.821 4.86298 -4.26114)
(437.542 0.591118 -1.12877e-06)
(428.219 -20.0317 9.4644)
(432.338 -1.90279 -14.285)
(427.774 1.47283 0.235898)
(435.965 0.872202 -2.83284e-06)
(427.136 1.71081 1.02752)
(435.279 0.544071 -2.20565e-05)
(131.342 17.2104 9.26379)
(111.377 21.9332 -0.00100902)
(116.489 14.9652 9.78619)
(126.428 13.5478 0.000639597)
(119.066 22.5507 -0.000464585)
(128.453 14.9428 -0.000164356)
(130.493 14.3136 0.00029149)
(122.216 26.2343 0.00110829)
(129.657 21.553 -0.000307094)
(122.041 32.294 9.97516e-05)
(139.391 1.68471 0.000245986)
(140.38 2.4305 6.77277e-05)
(140.876 7.22944 1.9837e-05)
(140.527 19.7465 -0.00131703)
(143.477 6.71345 -0.000146071)
(137.592 31.8564 -0.000198152)
(146.042 11.6217 -1.31021e-05)
(147.495 14.1574 -0.000805987)
(96.1377 9.63389 -0.495031)
(157.212 4.56662 15.6349)
(150.437 7.72333 -3.13789e-05)
(150.586 1.62016 3.33749e-05)
(158.203 20.0423 -0.00130885)
(160.442 19.9312 -0.000343123)
(162.282 19.0881 -0.000235151)
(155.867 6.38038 -6.48534e-05)
(155.976 5.08916 -8.25187e-05)
(167.48 20.2022 -0.000284803)
(156.877 3.17381 -0.000542447)
(166.88 12.1913 -8.45314e-05)
(167.39 10.8008 1.95616e-05)
(169.217 11.8123 -1.9135e-05)
(166.947 7.93703 -0.000639108)
(161.037 3.82319 -0.000612702)
(115.056 3.56217 -0.619841)
(161.76 3.02536 -7.58295e-05)
(163.812 3.9013 -0.00136503)
(117.41 4.26884 -7.04373)
(167.132 3.76062 0.000447576)
(166.38 3.44381 4.8174e-05)
(164.707 2.78696 -0.000324138)
(162.723 0.233116 -2.59155e-05)
(166.56 2.28267 -0.000342629)
(163.511 1.08596 1.13684e-05)
(164.316 1.53662 -3.60943e-05)
(166.936 1.01103 -0.000286961)
(165.927 1.57759 -0.000667565)
(165.432 1.45774 -0.000190666)
(165.126 1.27912 8.26069e-05)
(166.396 0.52222 -3.54632e-05)
(165.66 1.09538 -0.000406841)
(165.455 1.02852 0.000185726)
(166.061 0.516446 -1.65444e-05)
(165.339 0.848818 2.48223e-06)
(157.447 -0.206337 -3.31907e-05)
(165.767 0.598016 2.71948e-05)
(165.845 0.345064 -5.28801e-05)
(165.6 0.659201 0.000256247)
(144.239 -0.148463 -0.00011764)
(165.689 0.440903 0.000159068)
(165.54 0.615782 8.7296e-05)
(165.629 0.482319 0.000263043)
(165.616 -0.0377562 1.0923e-07)
(164.807 -0.195894 1.83508e-06)
(165.535 0.502318 7.01847e-05)
(165.598 0.494305 -1.14795e-05)
(165.575 0.564386 -7.88787e-06)
(165.565 -0.0349008 0.000218257)
(165.702 -0.001478 -2.3738e-07)
(37.3976 -8.52888 6.27996)
(42.1933 -5.86001 -0.0802476)
(79.6732 -11.4548 0.831351)
(99.5401 -18.1568 -0.644488)
(104.337 -27.6474 11.8806)
(91.4151 -14.4724 -0.621056)
(37.5664 -0.572084 -0.0190405)
(114.035 -15.9752 -0.000192271)
(107.232 -14.9812 -0.000583109)
(118.073 -13.8007 0.000337821)
(116.081 -13.5919 -0.000415833)
(115.228 -13.1405 -4.62119e-05)
(122.942 -8.78947 -8.58027e-05)
(116.913 -12.0575 -0.000239428)
(122.226 -8.56419 1.11983e-05)
(114.787 -10.7713 -9.23563e-05)
(112.466 -10.5361 8.55806e-06)
(99.7723 -10.2956 0.00266504)
(112.082 -9.54719 0.000359194)
(66.4293 -10.6492 -5.13476)
(110.925 -9.08684 3.75485e-05)
(110.833 -8.56114 0.00153379)
(102.132 -8.67664 0.00104921)
(115.441 -5.77217 5.41877e-05)
(117.732 -4.45104 3.85399e-06)
(74.38 0.860458 6.90378)
(114.132 -4.49904 0.000606578)
(100.727 -6.48311 0.000160523)
(117.24 -3.22295 2.11073e-05)
(120.436 -1.32569 0.000536208)
(116.955 -2.05852 0.000584128)
(97.9447 -3.93809 0.00126272)
(117.028 -1.0225 0.000278019)
(71.3929 10.041 -2.57661)
(91.2572 -1.47224 -1.10969)
(116.598 -0.675408 7.26583e-05)
(119.879 -0.00155596 1.08628e-05)
(28.4431 25.1115 -8.2642)
(111.856 1.68749 0.00096796)
(94.1084 3.12158 0.000196192)
(107.845 2.8137 0.000846744)
(96.716 5.17463 0.00111091)
(116.277 3.16781 0.00137401)
(104.253 4.96583 0.000349531)
(117.267 3.38781 -1.8679e-05)
(113.726 5.21584 8.267e-06)
(120.885 3.01827 0.000632757)
(123.015 2.72148 -7.328e-06)
(116.86 7.34124 0.00038287)
(90.1783 10.8421 -1.9445)
(116.743 8.39956 0.00147573)
(122.82 5.23405 -0.000247972)
(103.533 15.6921 8.09039e-05)
(119.414 11.2041 0.000365236)
(107.41 18.6749 -0.000559342)
(104.108 21.4122 0.000599437)
(116.618 -3.27633 -20.8523)
(107.37 -33.749 4.88634)
(39.4295 -11.8593 0.317613)
(75.8528 -22.6212 1.09932)
(66.6702 -23.2435 -0.295624)
(249.049 -7.71146 7.59351)
(43.7421 -12.0991 0.116233)
(341.102 -6.9992 0.00035298)
(332.575 -9.97234 3.25403e-05)
(319.544 -25.9792 -8.74493)
(329.465 -23.6685 6.63188)
(350.2 -29.2469 3.91386)
(305.693 -20.4327 0.000348183)
(296.613 -8.57556 1.61652e-05)
(286.775 -37.0109 -3.18146)
(288.2 -35.7601 -0.00152625)
(210.116 -56.5324 -2.01264)
(281.294 -27.8974 0.00010638)
(267.757 -27.1894 -0.00310448)
(270.464 -6.59929 -0.0008365)
(258.753 -12.0708 -0.000992435)
(204.66 -50.5417 0.910515)
(222.889 -31.7763 0.00113191)
(193.864 -50.4909 -1.18737)
(205.065 -42.9338 0.000396451)
(181.898 -44.3287 -7.54261e-05)
(212.331 -18.2544 0.0010302)
(201.879 -31.6551 0.000290023)
(162.333 -42.9425 0.255996)
(169.943 -39.2084 0.00298669)
(186.068 -25.7063 0.000541345)
(171.237 -27.681 8.70872e-05)
(153.409 -35.0722 0.00151508)
(161.179 -25.9205 2.50896e-05)
(166.712 -15.4332 0.00149246)
(165.926 -8.56821 0.00101686)
(130.571 -32.5893 4.13584)
(128.954 -32.8454 7.81878)
(142.756 -28.6326 0.000683517)
(146.933 -25.121 -8.48639e-05)
(132.598 -32.38 7.04028)
(152.112 -17.6271 -6.39096e-06)
(129.608 -34.4678 1.02382)
(147.652 -14.7308 0.000393922)
(129.259 -34.3698 3.90864)
(30.1877 -5.05738 -0.643124)
(133.047 -19.9557 -0.000246357)
(131.83 -17.2545 0.000444132)
(134.714 -12.9598 -0.000111848)
(135.51 -9.15973 0.000708932)
(132.15 -13.6164 -6.14136e-05)
(111.614 -24.6141 -2.90933)
(89.383 -18.3924 2.31974)
(126.138 -14.5326 0.000928995)
(32.5486 -6.99913 -0.352722)
(102.922 -11.6492 0.672129)
(126.891 -11.1435 0.00237865)
(113.182 -18.5318 -0.00140586)
(350.586 17.6528 -1.95138)
(420.15 -22.7383 17.1786)
(421.277 4.1807 5.1103)
(433.951 1.40667 -7.88611e-06)
(329.566 11.5373 20.3694)
(435.822 1.24266 2.38662)
(413.932 5.23341 -1.00771)
(432.067 1.61792 -9.57859e-07)
(432.674 0.0922371 -4.57878e-08)
(427.622 0.185876 -0.786057)
(416.932 -2.1803 -2.4304)
(421.533 -4.89507 3.56562)
(426.275 -16.9712 -5.01408)
(427.098 2.56752 -1.34701)
(426.532 0.232625 -8.52922e-06)
(422.112 0.523961 1.95474)
(419.672 0.645335 6.52962e-06)
(333.033 1.9683 13.2731)
(418.267 0.139522 0.000187619)
(410.847 1.08928 -1.20036)
(403.375 -6.81522 -1.33539)
(407.748 -0.436383 0.000170461)
(417.972 -1.70124 -5.47261)
(401.114 -1.11528 -1.45657e-05)
(390.309 -1.81726 0.000626943)
(402.289 -3.95335 -9.89218)
(387.359 -6.7506 3.03168)
(374.699 -14.8166 0.326205)
(383.607 -8.35356 -0.677632)
(381.433 -1.00402 1.42832e-05)
(380.763 -1.73777 -0.000153719)
(386.461 -14.1081 10.1157)
(375.208 -3.56366 0.000642962)
(373.461 -0.516661 0.000149771)
(317.535 -6.26144 0.858108)
(367.63 -2.69962 -0.000198107)
(362.225 -17.5439 7.25678)
(372.039 -18.1513 -10.8324)
(357.099 -4.11884 -0.000261918)
(314.311 6.37284 1.58038)
(335.596 18.324 -3.34973)
(295.212 17.6178 -11.5914)
(356.227 -16.335 -15.826)
(336.573 -9.68046 3.33827)
(377.097 -5.63769 -4.9282)
(363.637 -0.452276 0.0181747)
(361.844 4.02524 -2.08418)
(359.905 0.73192 1.19248)
(343.904 22.2649 -3.20354)
(349.39 15.3544 -15.809)
(334.63 18.7288 -0.879996)
(387.135 6.47684 4.62906)
(344.502 2.73202 -13.5587)
(393.055 16.6615 7.90894)
(425.158 -6.64553 -3.61202)
(400.07 -6.3802 -14.2091)
(392.647 4.40473 -0.568808)
(378.487 -0.550979 -15.4254)
(356.788 20.3328 13.5496)
(431.51 -2.59754 -1.56238)
(347.975 -0.697105 -0.394886)
(441.46 0.221334 0.189371)
(357.726 13.0544 10.7565)
(370.306 -1.16703 -0.31157)
(434.487 0.140964 0.220314)
(441.329 -4.93758 4.71184)
(424.255 8.62387 -4.61371)
(360.981 8.95589 3.11714)
(418.956 -9.93807 -0.850222)
(414.617 -3.66264 -5.02465)
(431.796 -5.17398 3.12367)
(312.587 -1.49386 12.1154)
(416.872 -6.33322 4.91001)
(438.584 -0.351218 0.107195)
(422.333 4.65333 1.34446)
(297.315 23.4378 -1.18294)
(425.933 -5.21348 2.74778)
(441.771 0.00142255 0.0785918)
(352.044 -3.5848 5.89316)
(358.494 8.77163 6.04167)
(346.513 1.74115 -11.0646)
(442.688 0.00215822 -0.0283273)
(424.404 -27.495 -1.33829)
(441.214 -0.783204 1.841)
(422.955 2.88172 -4.98335)
(448.621 -7.90775 -2.67429)
(440.571 -7.4273 0.819179)
(449.332 0.00106687 -0.0437868)
(432.467 -2.83813 5.41182)
(354.996 1.68292 10.1816)
(438.486 -7.59695 -3.31895)
(435.976 -1.41859 -0.338125)
(412.202 -3.74181 -12.1678)
(435.663 -6.54788 0.830132)
(430.492 1.67974 1.31428)
(420.663 -0.411695 6.58709)
(442.21 -2.51649 -2.63476)
(319.587 5.67304 -1.71609)
(450.392 -13.1226 -4.38952)
(445.24 -3.16515 1.80371)
(432.613 -9.33906 2.89387)
(440.969 -5.71638 3.48413)
(435.201 6.74258 4.58521)
(344.324 0.875726 -3.58351)
(421.613 -2.07052 3.06583)
(367.663 16.07 7.63553)
(382.86 4.49921 1.54484)
(418.034 -1.34786 1.30961)
(441.068 -3.39298 -10.3279)
(367.788 7.14399 -9.11751)
(425.607 -5.57922 4.63321)
(433.635 -0.0808435 -0.395139)
(427.13 -2.4077 2.50677)
(426.941 -1.7805 -0.440532)
(341.15 1.55712 -0.561565)
(423.821 -2.40808 -2.8043)
(441.224 3.45721 -1.12147)
(439.124 -9.45114 14.3969)
(444.936 -9.26006 -22.0567)
(439.559 -3.27892 1.47576)
(430.781 4.43949 -4.45289)
(437.873 -1.50429 1.08902)
(415.031 2.08385 7.34633)
(437.96 2.96223 -0.598119)
(448.822 0.000741061 -0.0219532)
(437.202 -0.389884 -0.0867802)
(437.507 0.445745 -0.597798)
(407.192 2.00155 -3.21862)
(348.73 9.7147 13.4083)
(437.975 0.875787 0.865852)
(439.755 -0.0324565 -0.17477)
(429.422 -11.4652 -2.59136)
(447.035 -2.03734 1.48448)
(409.542 2.28011 -2.28769)
(453.124 -4.69805 7.35992)
(390.198 2.63964 -0.301641)
(418.514 -13.6779 18.9553)
(368.251 0.973681 0.0224792)
(417.23 0.276469 0.337202)
(438.198 -0.953318 3.26874)
(443.485 -7.84787 0.890035)
(440.365 1.68649 1.79311)
(417.301 -5.85961 4.31203)
(438.501 -0.892762 11.4555)
(441.515 -0.055198 -0.0033909)
(413.027 -1.13491 4.58065)
(415.153 -6.8019 -3.79798)
(443.871 0.962002 9.88087)
(410.742 -2.26883 11.3114)
(445.279 -1.07051 4.20506)
(439.337 -2.97995 -9.65816)
(436.133 -4.38212 -5.23847)
(430.024 -12.4267 1.7656)
(342.219 -4.97514 -1.1335)
(393.599 0.563726 -3.82894)
(416.277 -10.3058 1.75919)
(395.882 -0.619562 0.0321032)
(436.805 2.41027 0.771333)
(441.784 -2.69682 4.31392)
(443.149 -4.52706 0.624783)
(395.56 -3.52938 3.73977)
(414.679 -2.17096 -5.38203)
(391.103 -0.274309 5.79912)
(436.815 -2.06083 3.05977)
(409.838 1.8242 2.22527)
(380.428 2.58279 -3.35804)
(436.111 -5.04992 1.02411)
(389.071 10.1267 5.89977)
(426.875 -0.579538 3.35523)
(441.66 -11.0442 -2.95638)
(426.906 -1.03321 -2.00515)
(396.052 0.295153 1.30499)
(376.74 7.60972 -20.7637)
(399.866 -0.703842 -2.37363)
(394.145 13.8232 -5.92936)
(391.247 -6.6321 -3.27842)
(431.067 -6.89154 -0.62161)
(408.731 6.27941 -19.1601)
(435.527 4.29514 6.46126)
(412.618 -4.76152 0.344575)
(409.108 -1.6046 -0.984821)
(437.085 -2.02753 2.77525)
(442.062 0.6636 0.535655)
(424.971 0.189795 -0.972312)
(442.9 0.071832 -2.18586e-05)
(440.426 -2.81561 -5.88419)
(442.722 -0.0755438 -0.163497)
(436.785 3.59375 -2.6509)
(431.737 -4.73392 12.1575)
(375.005 7.43657 11.4594)
(441.537 -0.13069 -0.410069)
(379.116 11.6725 -10.0401)
(353.983 14.7372 -1.58017)
(377.017 21.1205 12.0026)
(440.822 1.73403 2.18781)
(394.003 -0.655523 -4.27225)
(419.09 6.74962 -4.23208)
(459.659 -16.0923 0.922368)
(442.515 -0.0143156 3.63321e-06)
(395.091 -0.841682 -1.19127)
(442.722 0.0204667 1.3385e-05)
(421.579 -18.797 -10.329)
(363.55 8.98709 -21.4958)
(436.208 -1.29501 -0.630418)
(446.165 5.71748 0.394245)
(442.858 0.00898909 -2.24593e-05)
(427.343 -2.37685 -5.57016)
(433.68 0.657788 1.49988)
(436.977 -4.3276 -13.5141)
(438.066 -9.39449 1.89375)
(404.194 -3.64853 -7.46452)
(442.696 -0.0235363 -3.44074e-06)
(403.997 14.4716 -0.883271)
(428.663 -1.07714 -1.55349)
(434.374 -4.57564 -2.41663)
(439.571 -0.770172 8.26558)
(445.19 -12.3272 -11.3352)
(443.594 0.740809 0.474796)
(415.049 12.6395 -5.73091)
(440.157 1.97207 -3.02366)
(440.043 -6.48854 -0.743642)
(403.522 -3.21334 -0.0268689)
(442.726 -0.0432855 3.3915e-05)
(405.237 2.9852 -5.86079)
(425.934 -0.1978 -0.470453)
(372.995 10.4975 0.092444)
(401.596 4.25455 -1.21709)
(368.62 10.1066 8.02095)
(406.256 -4.49478 0.241947)
(438.706 0.796618 -2.81955)
(431.803 -4.76758 0.56469)
(432.656 8.49941 1.5002)
(417.423 3.46837 -4.55057)
(388.37 7.41782 14.1512)
(436.174 -5.30841 -1.19341)
(422.343 -0.900556 -4.84824)
(391.366 -12.2172 -11.8602)
(442.619 -0.0203211 6.38424e-06)
(442.648 -0.0188704 -2.11527e-05)
(445.016 -3.21357 -2.94952)
(441.269 -7.51425 -1.748)
(400.589 -1.22344 -1.05406)
(435.801 -10.331 1.49147)
(384.142 -9.20226 7.88219)
(411.454 3.23657 -2.85966)
(441.084 1.37684 2.01105)
(442.499 0.00725336 -6.94149e-06)
(394.545 14.4795 2.13051)
(444.785 4.64849 3.5639)
(427.783 2.05048 -1.01167)
(442.404 0.0202049 1.08583e-05)
(442.336 0.025261 -2.32266e-06)
(442.342 0.0242974 -1.1567e-06)
(404.178 5.47517 -1.49671)
(384.097 -6.25611 -17.7313)
(418.619 -3.06966 -1.49066)
(440.081 2.31826 0.718197)
(400.017 3.78232 -0.496309)
(439.142 -1.29545 0.156172)
(442.243 0.0255077 -4.60061e-05)
(397.152 4.97461 0.183854)
(433.521 -7.75412 6.91598)
(430.003 -3.78538 -1.83196)
(442.216 0.0258696 -3.56498e-07)
(419.699 -2.25514 14.3229)
(382.063 0.257733 -0.507681)
(397.777 0.485292 1.63185)
(391.615 0.249849 -2.822)
(413.601 -1.08876 -0.725738)
(369.79 6.00662 2.64105)
(450.064 -14.4428 15.596)
(442.175 0.0273418 1.25839e-06)
(440.731 -10.6524 -7.36658)
(424.747 -2.81545 -7.62384)
(441.876 0.00210237 2.42689e-06)
(442.07 0.0237186 4.91766e-06)
(430.745 0.0714224 1.61266)
(374.462 -35.8098 15.946)
(441.841 0.00263158 3.67728e-06)
(442.095 -3.82059 10.3316)
(441.845 0.00497596 -3.516e-06)
(415.547 -1.77028 0.594581)
(441.939 0.0130736 5.88516e-06)
(436.553 1.44664 1.82852)
(440.2 -2.51326 -1.58553)
(443.362 -10.0769 -2.75125)
(387.571 -3.90583 4.9898)
(437.824 -10.4234 -14.7266)
(438.846 -0.986156 0.472612)
(436.547 -0.906817 -2.84385)
(354.198 15.3249 1.20488)
(432.573 4.70135 1.2202)
(397.646 1.70857 -2.21821)
(440.15 0.281451 -1.3745)
(403.885 0.165132 -3.28651)
(441.368 -0.0140257 4.11009e-06)
(422.033 -2.1605 -2.53226)
(441.611 0.00104262 -6.48092e-07)
(427.189 3.77359 -2.72605)
(418.436 12.8334 -9.38361)
(441.365 -0.016345 9.81354e-06)
(441.538 -0.00090901 -9.69356e-07)
(441.121 -3.2055 3.38131)
(437.596 -24.1807 19.1989)
(440.96 -0.0354686 -2.39608e-05)
(431.825 -2.73622 0.145578)
(439.042 -3.02562 0.231692)
(440.542 -0.0555206 -2.25384e-05)
(247.999 27.8161 1.89895)
(241.919 21.6239 -1.02055)
(278.194 -8.29787 -13.5097)
(264.128 4.9928 2.38257)
(233.839 23.1035 1.91589)
(277.833 15.4354 -11.2963)
(252.87 29.5486 -1.5228)
(270.698 28.0544 3.92768)
(313.468 23.8856 -11.9739)
(355.385 -5.07908 -3.12823)
(341.528 -0.604159 0.0739682)
(376.796 -1.23611 -1.2523)
(327.557 12.2746 -15.4263)
(331.673 22.9383 12.8214)
(320.972 0.327955 7.61092)
(354.022 6.19486 -2.22225)
(371.289 12.9692 4.63639)
(309.12 -7.23035 -22.1282)
(345.677 -8.92182 -5.2202)
(371.795 3.29268 -8.14411)
(327.33 -0.437394 -1.52176)
(370.554 -13.4373 2.368)
(386.905 0.00099021 0.0554404)
(307.96 16.3498 1.06269)
(383.98 0.00247232 0.0821354)
(365.49 6.35834 9.81473)
(401.24 -4.45181 2.27848)
(328.585 4.64366 11.8209)
(330.767 -3.88621 4.60353)
(314.564 -3.26105 4.04684)
(390.17 -5.5798 1.64883)
(394.142 0.00497425 0.173272)
(391.907 0.261058 -1.02933)
(410.317 -2.77077 -10.7958)
(393.682 -3.69921 3.16877)
(389.075 4.67663 1.66455)
(388.529 0.00134496 -0.0433622)
(389.334 2.98299 5.7301)
(342.321 11.1515 -7.30657)
(342.874 9.35301 -27.9998)
(382.96 4.32753 -5.82153)
(315.41 10.4207 -26.4568)
(390.43 -0.0113688 0.0156465)
(394.96 -0.585737 -0.864585)
(400.246 -39.4583 -10.7653)
(386.967 26.0849 22.6011)
(381.097 -4.8732 5.25528)
(399.909 0.221248 -1.85722)
(384.611 -3.45604 -7.67514)
(388.909 -3.91072 -11.0417)
(374.061 -16.0995 -15.8773)
(345.893 12.7458 7.16619)
(397.12 0.00206353 -0.0671232)
(353.846 13.547 6.45336)
(385.338 3.56926 0.132308)
(402.92 2.53124 6.91641)
(374.048 1.43715 26.8939)
(398.967 0.150305 -0.00815496)
(400.98 2.73294 0.362644)
(383.184 0.807476 -2.323)
(350.689 3.29049 5.01911)
(397.264 1.40295 13.6451)
(340.046 15.8785 -6.63008)
(384.94 1.70112 0.261091)
(401.928 0.523238 0.0109575)
(402.364 0.720787 0.898192)
(386.118 -0.622911 -1.21093)
(339.135 0.609217 -3.55538)
(324.415 10.0285 17.8973)
(284.336 10.1143 2.4072)
(366.897 12.5243 -16.9832)
(389.416 -3.885 2.61064)
(400.885 -0.757655 -0.986962)
(401.8 3.32602 -2.43169)
(384.277 4.9493 -5.32527)
(395.26 -0.830736 0.25029)
(399.675 -4.25291 -4.56163)
(352.183 0.0944234 -0.875966)
(382.836 0.124557 2.64071)
(282.389 8.13051 7.48128)
(348.492 -4.53459 4.12459)
(357.351 7.24276 -1.06869)
(357.342 7.19507 -7.19205)
(408.715 0.00103576 -0.0312909)
(398.507 -1.21088 -2.24291)
(400.867 21.5779 15.9192)
(410.673 0.001261 0.042332)
(377.799 1.60889 -3.15445)
(391.116 -5.20015 -4.01447)
(402.357 0.0101759 0.509918)
(398.072 -1.8947 15.6889)
(402.113 2.53114 -0.761701)
(410.415 5.72954 -9.56795)
(390.075 -2.46349 0.869467)
(370.079 -0.166088 9.54232)
(412.723 -0.671661 -0.384758)
(386.282 5.07825 -2.32044)
(405.539 2.10364 -1.97413)
(314.138 23.3119 1.57885)
(411.911 4.37173 3.66802)
(363.605 -8.47929 3.8442)
(409.831 6.90901 12.0512)
(302.516 39.8337 3.40107)
(416.133 0.0387033 1.48541)
(364.315 3.99949 2.15189)
(405.86 -0.865872 0.345194)
(412.364 0.291669 1.59848)
(418.266 10.9398 -7.56549)
(411.676 -6.96356 -1.19278)
(300.266 -2.28704 -10.4321)
(375.155 -5.04045 -2.08656)
(354.563 11.1998 -9.58858)
(411.889 -3.44426 0.176536)
(419.216 0.00304705 0.167948)
(413.985 0.00109884 -0.0378024)
(419.448 1.24259 -0.132667)
(309.757 11.8386 -4.50436)
(417.744 -2.02533 -2.88913)
(436.75 -15.1823 -14.1966)
(424.985 0.000293012 0.00587666)
(379.247 14.3999 -12.2769)
(333.537 -15.0359 -2.75962)
(423.19 0.0300333 -0.0298927)
(422.203 -3.58863 -17.5003)
(353.733 1.43721 1.20928)
(426.89 1.10957 0.416658)
(410.518 -1.22577 -0.409112)
(380.92 0.191412 3.45066)
(394.926 17.067 -1.62958)
(421.955 -1.40768 1.2217)
(362.186 -3.37253 5.02132)
(402.369 4.97089 0.159345)
(318.389 5.19955 -4.46379)
(346.827 1.70052 -14.7139)
(351.849 2.76786 -2.62962)
(422.508 1.53171 -3.22233)
(391.413 -1.71026 3.35262)
(395.329 0.344799 9.93852)
(425.157 0.486066 0.545058)
(321.991 3.12835 3.66233)
(414.071 3.98005 -18.1431)
(405.184 -0.613541 -0.288443)
(361.014 6.00544 -9.49437)
(423.049 9.19024 11.0581)
(414.991 -3.41727 7.24679)
(391.451 -1.64038 -2.00627)
(414.176 -4.47289 -17.9508)
(286.129 19.7485 -2.52154)
(426.126 0.560359 -0.371594)
(408.577 -1.88817 3.67609)
(417.8 6.5196 -8.52743)
(303.221 -22.3383 11.4915)
(336.229 0.24733 -0.694076)
(423.705 0.389889 -4.26199)
(365.217 -1.61755 1.60376)
(411.37 -4.51637 -3.08993)
(418.694 -0.0864281 -4.14034)
(357.314 16.8616 16.6678)
(390.49 8.27743 -1.96073)
(381.006 -6.15069 -4.168)
(367.607 3.27847 8.31134)
(365.393 0.717065 5.9937)
(433.114 -0.215881 0.076679)
(379.712 -0.664963 -0.405564)
(407.706 -3.36601 -1.30563)
(387.145 1.02891 8.99046)
(398.072 24.3647 -1.27347)
(421.201 4.30282 9.52959)
(290.711 6.14439 -9.5888)
(416.517 -0.0257636 4.46074)
(356.819 -2.36658 8.72343)
(363.653 -4.47291 -0.796778)
(348.366 -2.50603 0.536622)
(428.011 -0.0234956 1.06273)
(404.066 -2.70695 4.26584)
(428.33 -2.79689 3.48093)
(401.922 2.0282 8.60396)
(405.504 -2.28918 6.728)
(351.314 2.62051 -27.0317)
(434.64 0.72521 0.92209)
(294.395 7.24421 -15.5494)
(425.961 0.542369 -0.278524)
(430.971 0.203347 5.74787)
(335.916 -3.53672 1.85106)
(404.518 -0.856292 -0.0247568)
(420.788 -2.53847 -1.80263)
(327.87 2.57488 1.4451)
(387.534 -2.4049 -0.446318)
(377.066 -2.89937 7.34502)
(423.95 -9.70334 11.0764)
(389.233 1.9549 14.335)
(417.849 -0.848842 0.475318)
(422.598 -0.305845 0.180591)
(377.207 0.291642 8.33843)
(429.172 -11.876 8.55597)
(433.198 0.00120258 0.0379433)
(365.199 1.87276 7.81377)
(413.526 1.53898 3.10729)
(439.59 -15.0493 1.76303)
(430.718 0.00157802 -0.0770343)
(421.067 -7.78667 -2.23695)
(414.154 -10.3083 8.25883)
(412.039 -9.79123 -3.77508)
(427.226 3.52598 -0.405548)
(423.305 2.10494 8.30381)
(412.462 -1.51198 0.405917)
(435.314 2.34419 0.647316)
(442.92 -16.8755 16.1155)
(431.103 3.75064 3.79629)
(322.07 1.05144 -1.25087)
(414.972 -17.3057 -6.40062)
(431.045 -4.67612 6.99374)
(403.749 -1.25653 1.13053)
(389.728 6.38809 1.16364)
(315.026 7.02607 8.17941)
(387.445 4.66434 9.97672)
(425.743 -0.197102 8.51743)
(409.873 -19.45 0.507027)
(357.473 -3.19496 3.31362)
(410.71 -2.25224 -2.19537)
(403.345 4.18834 -12.6685)
(332.265 0.925262 -3.95521)
(442.223 0.00287367 -0.0858447)
(437.416 0.14753 -0.271562)
(402.188 -4.15454 16.9261)
(402.195 9.62771 6.96732)
(389.595 -2.90549 1.80882)
(409.787 -3.73646 9.22145)
(351.827 6.76419 -10.515)
(410.99 -2.33078 1.21859)
(440.651 -3.43514 0.196594)
(410.024 -3.19514 8.57988)
(322.075 -0.100414 -1.28351)
(413.572 -1.39845 -16.3827)
(369.183 -1.26643 -0.378459)
(407.055 -2.36429 -1.27232)
(411.002 3.09446 5.0352)
(387.529 10.7953 -1.70177)
(390.525 5.27141 -1.91295)
(436.423 -12.7787 9.26649)
(386.259 14.8322 -1.12735)
(426.002 -6.57377 -12.9828)
(449.129 -4.26782 -10.3024)
(355.582 6.16149 -7.85917)
(437.477 0.653271 0.433347)
(408.086 -1.42492 9.76846)
(416.574 -8.3162 0.692969)
(409.976 -4.36582 -0.394722)
(438.088 0.829044 -0.242387)
(411.113 2.85562 -1.20067)
(426.152 -34.3428 -15.149)
(429.668 -8.38019 -4.15001)
(418.876 -0.501329 -0.116656)
(384.908 4.23377 -6.11356)
(439.355 1.43096 0.594145)
(417.631 -1.25238 -2.1702)
(341.053 -0.326284 -5.45208)
(436.512 -0.713 -0.328398)
(414.698 -5.497 -3.85878)
(368.695 6.64003 -2.70947)
(435.017 -1.9168 3.55238)
(334.763 9.24199 -12.2375)
(414.7 -5.89553 -3.43658)
(436.778 0.000471139 -0.0277662)
(406.371 3.09203 -1.99179)
(416.86 -0.254391 -2.06308)
(403.506 3.66564 -0.950098)
(441.229 6.71115 -6.17978)
(441.374 0.255412 4.1544)
(398.794 -1.03976 10.758)
(440.574 -20.181 6.44268)
(420.473 -1.40244 -0.601356)
(424.453 2.44913 -1.21137)
(401.547 12.5257 5.35441)
(436.652 -3.88645 3.52356)
(424.375 -6.17705 4.53301)
(432.252 0.0726034 -0.0711995)
(354.979 6.24099 8.28198)
(434.403 -1.18346 -2.14813)
(423.247 3.63864 1.37699)
(415.859 -0.6332 -1.80796)
(347.862 14.0748 -25.0435)
(393.613 14.2947 -9.4985)
(442.461 2.08177 -1.5953)
(400.485 5.39057 2.22462)
(428.489 -0.95391 -1.30352)
(400.001 1.01416 -0.755245)
(370.308 2.49171 -14.7794)
(396.887 -1.05844 4.8863)
(441.914 0.000117591 0.0206086)
(345.399 11.1996 -11.2501)
(400.028 1.9088 -2.17252)
(329.336 32.6945 -0.771982)
(387.44 3.07678 8.49815)
(384.826 -1.26532 0.0354615)
(427.592 -6.12764 -5.71842)
(442.793 1.0521 -4.57029)
(393.101 3.97341 6.80114)
(433.643 -6.23728 0.0420319)
(398.503 -7.02355 1.05652)
(396.259 0.495367 -0.120689)
(443.028 -5.97375 -0.877975)
(430.495 -5.78308 2.03542)
(362.083 6.95842 -6.30645)
(391.957 0.0497673 7.07489)
(385.343 -2.32532 0.454888)
(401.62 -0.234354 13.217)
(400.72 2.7155 0.655892)
(440.869 9.16563 6.4323)
(277.358 1.50078 0.617473)
(289.224 4.30084 -0.798673)
(318.176 -2.18792 -9.42189)
(299.428 -0.932292 -1.15283)
(318.304 6.37076 -3.38904)
(293.485 -0.189703 5.65186)
(326.085 1.86225 -7.95881)
(303.422 8.57681 -5.83434)
(325.808 6.41841 -2.11991)
(327.478 -5.63064 4.61365)
(307.714 3.88827 11.9272)
(340.318 -6.80839 -4.8807)
(324.639 9.84031 -5.74412)
(329.2 17.9787 -1.05367)
(330.842 -2.81092 -9.32995)
(341.626 -0.0743413 -0.925205)
(341.071 -0.000181864 -0.0142847)
(330.993 1.79768 2.5919)
(319.091 14.3027 -2.54994)
(299.715 5.15089 -24.8456)
(329.162 6.75748 0.779278)
(343.822 0.000539767 0.061048)
(339.455 -0.000962077 -0.0848928)
(336.88 1.9968 1.09554)
(336.862 -1.60444 -4.19943)
(343.324 -3.09953 1.85503)
(334.355 0.599834 6.98003)
(342.316 -0.00943431 0.174489)
(340.866 -5.05287 4.3179)
(334.827 -0.000391206 0.0693296)
(338.811 -7.43574 1.7331)
(359.328 3.91724 -15.0264)
(316.3 13.9855 31.8478)
(338.582 -0.00501643 -0.0269802)
(329.885 3.11465 5.26421)
(323.144 -3.20851 -12.1108)
(337.752 4.10105 2.01323)
(303.207 13.8831 -20.0283)
(327.66 1.56647 0.498527)
(339.657 12.4264 3.39626)
(335.801 0.004985 -0.094091)
(339.463 -4.01053 -29.5158)
(348.23 4.43007 2.90953)
(328.966 -4.89417 7.10856)
(337.369 10.3637 8.95642)
(313.74 2.59153 0.330007)
(312.787 35.6813 29.6875)
(316.543 8.72603 1.63854)
(337.038 0.00120476 0.0398432)
(342.406 0.306549 5.4122)
(342.729 -0.0814169 0.0039802)
(339.173 0.0259279 0.0776873)
(342.346 4.83964e-05 0.00809436)
(359.656 -3.50631 -42.2037)
(342.246 -0.452607 -1.5204)
(321.843 14.4466 -5.63577)
(283.798 7.45638 18.9817)
(341.977 -0.000219725 0.102696)
(353.063 2.44248 16.0864)
(313.912 10.5447 -3.76269)
(344.885 2.49624 13.3463)
(341.686 1.03823 -1.32743)
(329.032 1.69065 -0.719334)
(336.574 1.05515 -4.36767)
(332.351 -9.83556 -29.9226)
(329.983 0.00078777 0.439115)
(346.824 -0.000609277 -0.0510734)
(347.451 0.820778 4.95349)
(357.291 -2.06483 -8.25125)
(347.024 8.76655 0.811368)
(327.117 7.4624 9.99915)
(339.268 -13.2993 -7.49805)
(338.277 0.117983 -1.21519)
(325.204 7.33139 -5.49239)
(348.713 6.12342 10.5437)
(346.015 -0.000781951 0.0673691)
(350.814 3.70458 -6.49154)
(328.842 -0.142251 -0.0171051)
(331.009 8.19426 5.66607)
(341.647 -3.9852 6.82818)
(347.868 0.680733 2.66213)
(329.328 14.5489 10.9001)
(347.14 4.27772e-05 -0.00561156)
(357.469 -7.36734 -36.6816)
(351.491 6.49362 -12.8353)
(308.394 4.27122 -6.42849)
(327.599 0.99974 0.861183)
(345.751 0.0657098 -0.0379402)
(340.478 -0.285158 -1.58035)
(340.546 -1.53953 -3.40021)
(351.124 0.0245817 -0.0127668)
(327.477 4.10368 6.38253)
(337.784 0.23685 0.337152)
(340.759 0.600057 6.08227)
(312.621 11.9737 13.5066)
(329.081 10.147 9.94774)
(350.27 5.86315e-05 -0.0172481)
(341.662 2.112 0.0352602)
(301.462 -0.766955 3.03032)
(335.588 12.982 -1.55869)
(351.435 0.840719 -23.1005)
(348.558 4.88328 -11.9469)
(355.604 4.41602 10.4337)
(351.387 5.01196 -0.941341)
(357.059 0.00360426 0.21884)
(302.038 7.43181 -7.88863)
(343.584 -4.1552 -3.69862)
(383.599 -10.5387 -1.72772)
(317.007 0.414217 1.02383)
(348.156 13.5991 -3.79914)
(343.428 0.178106 -1.09484)
(329.41 15.651 -4.19914)
(323.605 -0.1272 -11.0685)
(369.49 -4.65081 -21.6712)
(330.393 -2.71699 35.5983)
(350.482 0.000709672 0.0302809)
(348.283 -0.0420895 -0.010832)
(347.448 0.913255 0.804087)
(353.875 3.66593 -9.94382)
(351.213 0.00187026 0.0388429)
(352.218 7.82365 -9.91781)
(308.092 9.73885 -4.69439)
(346.304 0.321585 -0.666223)
(353.625 -0.0280178 -0.618015)
(362.939 -0.498065 7.03086)
(364.064 -4.11939 -0.576354)
(344.546 -1.59662 -0.638075)
(344.523 2.83508 2.30054)
(350.77 3.84264 20.1434)
(364.005 -0.419458 -3.58887)
(320.68 2.76787 10.7263)
(353.379 0.00671784 0.00905737)
(361.341 20.9553 -16.2928)
(352.026 -14.6558 3.60063)
(299.459 15.4687 -5.42984)
(322.192 -15.3049 11.9303)
(353.336 0.287376 1.37129)
(331.811 -2.61668 -12.4285)
(362.093 5.83272 21.5967)
(354.759 0.901079 3.54859)
(365.629 -0.000417664 -0.169296)
(308.744 -24.1653 16.712)
(361.785 1.11765 -14.3279)
(351.946 -0.128235 -0.128709)
(306.136 7.8486 -12.1257)
(346.545 -1.62052 -2.22779)
(351.622 -0.000900144 0.0226002)
(353.729 -3.09271 -0.701212)
(316.781 -9.07012 -4.75333)
(331.627 2.24802 5.93631)
(346.291 0.06038 -0.567026)
(354.881 0.0492643 4.73562)
(375.582 -11.1915 7.94175)
(355.779 0.000770088 -0.0360849)
(358.231 0.000580937 -0.0680408)
(342.679 6.55704 10.1012)
(355.02 -1.98463 -0.013114)
(352.773 -3.42658 -6.46575)
(355.922 -3.79255 -16.1027)
(357.88 -0.695171 -0.209604)
(354.641 2.35647 7.53753)
(359.488 1.16606 0.585689)
(325.995 8.46383 -10.0006)
(349.783 7.3778 -7.45913)
(358.15 1.00099 1.48689)
(328.97 17.2938 14.173)
(367.148 -9.59045 5.93827)
(302.132 -0.63659 1.05169)
(349.484 -1.24076 7.55383)
(349.96 -2.5886 -3.63214)
(355.263 0.786627 2.708)
(341.113 -1.7525 -0.227891)
(331.278 5.23454 -1.63979)
(359.994 0.13918 0.146119)
(309.334 2.75164 1.11134)
(358.483 -0.340255 -0.207844)
(331.858 13.7281 -2.24664)
(362.739 5.54396 7.2705)
(314.071 19.99 2.69378)
(347.662 0.00491642 -0.20535)
(360.881 -0.00159777 0.135696)
(360.082 4.96062 -0.611217)
(350.093 11.4022 -3.49197)
(365.844 7.97797 -7.59174)
(358.723 -1.6153 -1.75808)
(356.97 -0.314759 -0.0273144)
(354.569 -0.0490455 -5.77378)