/*--------------------------------*- C++ -*----------------------------------*\
  =========                 |
  \\      /  F ield         | OpenFOAM: The Open Source CFD Toolbox
   \\    /   O peration     | Website:  https://openfoam.org
    \\  /    A nd           | Version:  7
     \\/     M anipulation  |
\*---------------------------------------------------------------------------*/
FoamFile
{
    version     2.0;
    format      ascii;
    class       vectorField;
    location    "0.145/lagrangian/reactingCloud1";
    object      UTurb;
}
// * * * * * * * * * * * * * * * * * * * * * * * * * * * * * * * * * * * * * //


1205
(
(-11.1434 -0.831704 -3.23954)
(-9.54504 -7.55699 1.51665)
(5.26045 -5.22897 -7.92414)
(0 0 0)
(-1.50897 -0.845452 10.3338)
(1.13902 0.0874909 -0.869376)
(0 0 0)
(0.956283 -12.522 -7.05031)
(-3.97661 -1.02957 11.9187)
(0 0 0)
(16.5921 -28.9639 31.2908)
(-2.54231 9.60755 6.80759)
(0.276897 -0.29188 -0.346474)
(-0.617922 2.52329 1.20966)
(-1.52395 9.09864 -3.53937)
(-6.03303 -1.00566 5.30237)
(1.66078 0.0629105 2.01305)
(0 0 0)
(-7.91239 -16.9648 2.49186)
(0 0 0)
(0.495368 0.917701 -0.56244)
(0 0 0)
(-1.30482 -2.57335 -2.24641)
(-21.2879 14.6837 1.23554)
(23.5144 -9.71162 -2.26849)
(1.09966 0.553534 -0.595231)
(0 0 0)
(-1.354 -4.04861 -3.32662)
(0 0 0)
(-16.2899 4.38535 17.4369)
(1.36183 14.6643 2.08685)
(0 0 0)
(0 0 0)
(-11.5688 9.49615 9.3175)
(-1.30443 -3.91932 2.53038)
(2.07928 1.46966 0.170174)
(0 0 0)
(0 0 0)
(-3.60937 -5.56549 5.79789)
(0 0 0)
(0 0 0)
(0 0 0)
(0.305419 1.15782 -1.67234)
(-0.23553 0.248122 0.270244)
(1.14166 -0.624313 -0.376965)
(3.04557 0.115226 -0.360402)
(-0.242504 -0.0887762 0.220253)
(-3.77265 -3.06905 -4.84404)
(-6.6206 1.49965 5.50423)
(-16.9199 -9.34821 -9.39306)
(1.89155 3.8449 -4.26103)
(0 0 0)
(-8.56983 -20.9272 9.46438)
(-3.29946 -3.2375 -14.2847)
(0.121751 -0.185855 0.235939)
(0 0 0)
(-0.17769 -0.146138 1.02799)
(0 0 0)
(10.7136 -10.3952 9.2627)
(0 0 0)
(-2.32814 -14.5415 9.78246)
(0 0 0)
(0 0 0)
(0 0 0)
(0 0 0)
(0 0 0)
(0 0 0)
(0 0 0)
(0 0 0)
(0 0 0)
(0 0 0)
(0 0 0)
(0 0 0)
(0 0 0)
(0 0 0)
(0 0 0)
(-0.294495 3.10736 -0.493987)
(-7.59735 -16.2315 15.6355)
(0 0 0)
(0 0 0)
(0 0 0)
(0 0 0)
(0 0 0)
(0 0 0)
(0 0 0)
(0 0 0)
(0 0 0)
(0 0 0)
(0 0 0)
(0 0 0)
(0 0 0)
(0 0 0)
(-1.77642 3.11932 -0.621353)
(0 0 0)
(0 0 0)
(9.80974 4.30048 -7.04382)
(0 0 0)
(0 0 0)
(0 0 0)
(0 0 0)
(0 0 0)
(0 0 0)
(0 0 0)
(0 0 0)
(0 0 0)
(0 0 0)
(0 0 0)
(0 0 0)
(0 0 0)
(0 0 0)
(0 0 0)
(0 0 0)
(0 0 0)
(0 0 0)
(0 0 0)
(0 0 0)
(0 0 0)
(0 0 0)
(0 0 0)
(0 0 0)
(0 0 0)
(0 0 0)
(0 0 0)
(0 0 0)
(0 0 0)
(0 0 0)
(0 0 0)
(3.06806 -3.82336 6.291)
(1.1128 0.629229 -0.0806014)
(0.0571886 0.178347 0.830505)
(-0.995394 -0.191893 -0.641171)
(-8.156 -9.44733 11.8821)
(-1.94746 -0.169855 -0.618132)
(-0.0208464 0.0434956 -0.019537)
(0 0 0)
(0 0 0)
(0 0 0)
(0 0 0)
(0 0 0)
(0 0 0)
(0 0 0)
(0 0 0)
(0 0 0)
(0 0 0)
(0 0 0)
(0 0 0)
(-18.5206 -8.62531 -5.13578)
(0 0 0)
(0 0 0)
(0 0 0)
(0 0 0)
(0 0 0)
(-3.31152 5.48971 6.90474)
(0 0 0)
(0 0 0)
(0 0 0)
(0 0 0)
(0 0 0)
(0 0 0)
(0 0 0)
(-2.54769 8.79957 -2.57827)
(0.581285 -1.31752 -1.10975)
(0 0 0)
(0 0 0)
(1.09023 21.2706 -8.26504)
(0 0 0)
(0 0 0)
(0 0 0)
(0 0 0)
(0 0 0)
(0 0 0)
(0 0 0)
(0 0 0)
(0 0 0)
(0 0 0)
(0 0 0)
(0.567362 -1.99937 -1.94843)
(0 0 0)
(0 0 0)
(0 0 0)
(0 0 0)
(0 0 0)
(0 0 0)
(0.690998 -21.4323 -20.8563)
(1.7341 -5.2209 4.88328)
(-1.75072 -0.231321 0.315201)
(-0.652286 -1.33564 1.09902)
(-1.70566 -4.25391 -0.296586)
(-23.5172 16.2066 7.60181)
(-0.0501273 -0.138957 0.115098)
(0 0 0)
(0 0 0)
(-0.719529 -2.79782 -8.74114)
(7.14228 -4.2683 6.63357)
(18.0019 -13.4249 3.91405)
(0 0 0)
(0 0 0)
(-0.64959 1.57397 -3.18448)
(0 0 0)
(-10.9242 -5.13163 -2.0141)
(0 0 0)
(0 0 0)
(0 0 0)
(0 0 0)
(0.569676 -1.72982 0.909386)
(0 0 0)
(3.65532 -0.676852 -1.19496)
(0 0 0)
(0 0 0)
(0 0 0)
(0 0 0)
(0.842445 2.95764 0.255536)
(0 0 0)
(0 0 0)
(0 0 0)
(0 0 0)
(0 0 0)
(0 0 0)
(0 0 0)
(2.56913 1.60764 4.14324)
(-0.158099 -0.537211 7.81513)
(0 0 0)
(0 0 0)
(0.178534 -1.3515 7.04024)
(0 0 0)
(0.356687 -5.08852 1.02265)
(0 0 0)
(10.2533 -4.1499 3.90562)
(-0.584108 1.26537 -0.643642)
(0 0 0)
(0 0 0)
(0 0 0)
(0 0 0)
(0 0 0)
(-3.71171 -2.27168 -2.91331)
(-0.539364 0.471869 2.31632)
(0 0 0)
(-7.20858 0.141277 -0.353102)
(10.2241 5.63741 0.667686)
(0 0 0)
(0 0 0)
(2.12573 14.9357 -1.95184)
(-14.1329 -23.155 17.1786)
(-3.66367 2.07976 5.11031)
(0 0 0)
(-11.3657 9.52355 20.3693)
(5.0323 -0.771704 2.38666)
(-9.89763 3.00178 -1.00764)
(0 0 0)
(0 0 0)
(-2.14495 -1.82483 -0.786047)
(-3.85183 -4.40408 -2.43047)
(-0.57739 -7.10644 3.56558)
(-1.44869 -18.3592 -5.01407)
(1.10895 1.02574 -1.34703)
(0 0 0)
(1.15002 -1.25058 1.95474)
(0 0 0)
(-9.14712 2.41597 13.2735)
(0 0 0)
(-2.90202 0.696739 -1.20051)
(-8.56982 -7.12614 -1.33546)
(0 0 0)
(11.3593 -1.22008 -5.47264)
(0 0 0)
(0 0 0)
(12.3014 -1.67164 -9.89281)
(-1.18976 -3.85343 3.03165)
(-11.4977 -12.1359 0.326245)
(3.92268 -3.60819 -0.677492)
(0 0 0)
(0 0 0)
(10.5433 -10.2954 10.1153)
(0 0 0)
(0 0 0)
(-0.398949 0.713093 0.85895)
(0 0 0)
(0.593391 -9.67542 7.25696)
(7.45063 -11.6773 -10.8326)
(0 0 0)
(1.01537 5.86203 1.58038)
(-3.64603 18.2675 -3.34974)
(-8.29705 17.0471 -11.5914)
(15.3016 -16.3684 -15.826)
(-12.905 -9.53296 3.33827)
(2.66433 -5.06325 -4.9286)
(-0.0332963 -0.0187587 0.0179516)
(-17.8623 4.64578 -2.08419)
(1.99832 1.04593 1.19247)
(-2.39295 22.3284 -3.20357)
(3.77696 15.3984 -15.809)
(-6.19384 18.6119 -0.880011)
(2.09775 7.13944 4.62903)
(7.45938 2.47238 -13.5587)
(21.2317 17.1654 7.90876)
(-0.0551755 -5.99433 -3.61209)
(-13.5535 -5.93236 -14.2091)
(-5.56541 5.04457 -0.568811)
(-5.79033 0.0727033 -15.4254)
(9.02334 20.3796 13.5494)
(-9.08139 -2.73031 -1.56247)
(0.186911 -0.701009 -0.395023)
(0.0976968 0.0179683 0.189401)
(5.23214 13.2064 10.7564)
(0.700612 -0.679768 -0.311699)
(0.503257 0.545425 0.220261)
(0.834429 -5.0015 4.71176)
(2.06121 9.14601 -4.6137)
(-1.42665 9.3278 3.11673)
(-15.5722 -9.47208 -0.85021)
(-18.7044 -3.17844 -5.02461)
(-0.497807 -4.67938 3.1237)
(-13.5781 -2.03095 12.1154)
(-2.18165 -5.9583 4.91002)
(0.0481961 -0.123798 0.107564)
(3.04514 5.02832 1.34447)
(-6.22916 22.7808 -1.18293)
(-2.16444 -4.73678 2.74745)
(-0.955764 -0.604541 -2.2809)
(0.362293 -3.51455 5.89312)
(-1.56448 9.07604 6.04162)
(6.54881 1.4698 -11.0647)
(-0.0697683 -2.97893 -1.02877)
(4.10918 -27.1879 -1.33828)
(9.78218 -0.326079 1.84112)
(0.420524 3.21771 -4.98352)
(6.66307 -7.7842 -2.67427)
(0.700229 -7.1217 0.819145)
(6.50248 -3.34733 2.39904)
(2.47054 -2.5041 5.41153)
(12.5058 1.4518 10.1816)
(-3.31768 -7.3682 -3.31898)
(-1.75878 -1.03607 -0.338104)
(6.07016 -3.02236 -12.1678)
(-1.29335 -6.1725 0.829939)
(2.41707 1.93439 1.31432)
(6.38803 0.115224 6.58749)
(4.82288 -2.15313 -2.63477)
(4.93173 5.00862 -1.71609)
(10.9367 -12.7769 -4.38951)
(3.75831 -2.8594 1.80368)
(-8.14401 -9.00657 2.89383)
(-1.72647 -5.51536 3.48412)
(-7.7407 6.78495 4.58522)
(7.07302 0.463555 -3.58351)
(-1.69077 -1.74787 3.06594)
(7.82285 16.3576 7.63546)
(-7.78443 5.02883 1.54484)
(0.456398 -0.809172 1.30997)
(0.391654 -3.09932 -10.328)
(1.72324 7.54126 -9.11753)
(-0.134907 -5.29135 4.63325)
(-0.974656 0.0820827 -0.395223)
(1.12607 -2.11504 2.50674)
(-1.27595 -1.53807 -0.440179)
(1.65366 1.165 -0.561574)
(0.60665 -1.97973 -2.80432)
(0.598911 3.69087 -1.12163)
(9.30966 -9.22848 14.3971)
(5.27625 -9.05767 -22.0569)
(-2.70079 -3.04846 1.47551)
(-2.04925 4.61301 -4.45291)
(0.95189 -1.38412 1.08905)
(14.1757 2.56659 7.34633)
(1.06835 3.06686 -0.598112)
(5.79738 -1.9722 1.06254)
(0.237033 -0.277834 -0.08665)
(-0.588305 0.538498 -0.597794)
(-6.79422 2.63608 -3.21862)
(-2.40837 9.68176 13.4081)
(5.2401 1.10223 0.865819)
(-1.31457 0.0775967 -0.174621)
(-0.659408 -11.1192 -2.59103)
(4.34898 -1.86905 1.48456)
(-2.14985 2.85949 -2.28779)
(12.3663 -4.6152 7.35994)
(2.9811 3.24317 -0.301672)
(-7.19478 -13.1156 18.9553)
(-2.68809 1.42907 0.0224202)
(-0.00374598 0.867503 0.337214)
(2.84051 -0.745199 3.26883)
(0.760803 -7.73777 0.890005)
(1.97601 1.78398 1.79329)
(4.85257 -5.33038 4.31204)
(-0.593969 -0.816052 11.4555)
(-0.00320687 -0.0285832 -0.00334271)
(-0.759417 -0.617063 4.58032)
(-8.53053 -6.20828 -3.79798)
(4.14739 1.0276 9.88086)
(1.59358 -1.81415 11.3115)
(3.77535 -1.059 4.20512)
(-2.13811 -2.9716 -9.65813)
(-6.59838 -4.35594 -5.23847)
(-7.81048 -12.2482 1.766)
(-4.79469 -5.25715 -1.13371)
(-8.58543 1.059 -3.82895)
(-19.1555 -9.959 1.75919)
(0.00695964 -0.0461154 0.0322766)
(17.8208 2.91035 0.771344)
(-0.990511 -2.71479 4.31392)
(1.775 -4.51094 0.625016)
(-5.65688 -3.01932 3.73975)
(3.41808 -1.73843 -5.38199)
(-7.01438 0.312578 5.79919)
(-3.54161 -1.93949 3.05975)
(2.12233 2.30257 2.22547)
(1.06974 3.09754 -3.35835)
(-6.44543 -5.10297 1.02414)
(-3.29872 10.7503 5.89977)
(5.97977 -0.190385 3.35525)
(2.8942 -10.7785 -2.95638)
(-0.534645 -0.58825 -2.0052)
(-0.142386 0.902346 1.30497)
(-3.42338 8.12307 -20.7639)
(1.08882 -0.110042 -2.37366)
(-6.59622 14.4458 -5.92937)
(-18.8642 -6.09876 -3.27833)
(-11.3852 -6.92528 -0.621611)
(-9.45446 6.66724 -19.1601)
(4.83197 4.73803 6.4612)
(0.185234 -4.28513 0.344803)
(-0.0479146 -1.04247 -0.984831)
(-0.260541 -1.67505 2.77532)
(1.21003 0.820254 0.53576)
(2.09569 0.563531 -0.972292)
(0 0 0)
(-1.19984 -2.71592 -5.88418)
(0.0903846 -0.110428 -0.163411)
(0.709923 3.93756 -2.65085)
(2.41395 -4.38912 12.1575)
(-11.8582 7.96404 11.4594)
(0.145391 0.00166144 -0.410073)
(-8.07734 12.2 -10.0401)
(-6.18677 14.9639 -1.58017)
(-6.61903 21.6498 12.0026)
(-0.403971 1.8843 2.18792)
(-0.835118 -0.108448 -4.27245)
(-15.1308 7.07076 -4.23206)
(17.8047 -16.0044 0.922517)
(0 0 0)
(-0.251343 -0.307904 -1.19127)
(0 0 0)
(1.401 -18.3454 -10.329)
(4.49931 9.17364 -21.4959)
(-0.146242 -1.04311 -0.630398)
(7.6517 5.93645 0.394289)
(0 0 0)
(4.94374 -1.92518 -5.57016)
(-0.707316 0.909637 1.49989)
(-2.99175 -4.15801 -13.5141)
(-1.21127 -9.23252 1.89385)
(-11.9948 -3.11259 -7.46452)
(0 0 0)
(-3.50786 15.0199 -0.883347)
(-7.50531 -0.862446 -1.55316)
(6.21238 -4.20151 -2.41627)
(-2.75777 -0.714006 8.26561)
(13.2018 -12.0159 -11.3352)
(0.724562 0.745886 0.474797)
(-2.42813 13.1589 -5.7309)
(-0.963287 2.04487 -3.02362)
(-2.25083 -6.45513 -0.743672)
(-3.1152 -2.734 -0.0268828)
(0 0 0)
(-0.0406641 3.46909 -5.86078)
(-0.672725 0.240799 -0.470449)
(-3.48712 10.9998 0.0920386)
(-7.81292 4.72435 -1.21714)
(11.6818 10.1447 8.02095)
(-1.54886 -4.02811 0.241949)
(2.00364 1.02313 -2.81955)
(3.11004 -4.35323 0.564719)
(6.81514 8.94025 1.5002)
(-0.174603 3.91409 -4.55054)
(-5.09171 7.97098 14.1512)
(-0.389582 -5.04382 -1.19339)
(-1.01499 -0.488844 -4.84825)
(-6.30746 -11.6643 -11.8602)
(0 0 0)
(0 0 0)
(4.49676 -3.12233 -2.94951)
(-0.444857 -7.50136 -1.74799)
(-1.32809 -0.679943 -1.05406)
(-6.59648 -10.3444 1.4915)
(-13.658 -8.64662 7.88221)
(-4.55272 3.64469 -2.8596)
(0.0619537 1.44702 2.01113)
(0 0 0)
(1.60954 15.0481 2.13051)
(2.20712 4.6491 3.5639)
(-6.43303 2.3583 -1.01165)
(0 0 0)
(0 0 0)
(0 0 0)
(-1.01888 6.00553 -1.49664)
(-19.0713 -5.71756 -17.7313)
(-0.0938497 -2.66488 -1.4904)
(-0.77173 2.40425 0.718209)
(8.69253 4.33287 -0.496311)
(-0.163712 -1.13392 0.156181)
(0 0 0)
(-15.9477 5.44121 0.183906)
(-1.59114 -7.50865 6.91602)
(0.102841 -3.48186 -1.83195)
(0 0 0)
(3.86718 -1.80655 14.3229)
(-0.37274 0.795767 -0.507689)
(1.06313 1.02343 1.6318)
(-3.26121 0.793269 -2.82201)
(4.00681 -0.60094 -0.72557)
(-2.39096 6.52378 2.64105)
(8.26987 -14.4362 15.596)
(0 0 0)
(5.60473 -10.4144 -7.36651)
(-4.57725 -2.49606 -7.62384)
(0 0 0)
(0 0 0)
(3.16745 0.418741 1.61266)
(-14.4388 -35.2589 15.946)
(0 0 0)
(2.0514 -3.72993 10.3316)
(0 0 0)
(-6.54017 -1.36245 0.594596)
(0 0 0)
(-3.71273 1.52139 1.82853)
(-0.571145 -2.4734 -1.58533)
(2.69325 -10.0302 -2.75112)
(-12.3818 -3.37169 4.98982)
(3.41134 -10.1524 -14.7265)
(-0.355874 -0.855575 0.472891)
(-3.39003 -0.809956 -2.84382)
(-3.53671 15.6205 1.20488)
(-4.49784 4.93134 1.22037)
(-1.8739 2.24594 -2.21817)
(0.442777 0.382888 -1.37441)
(1.90987 0.69382 -3.28644)
(0 0 0)
(2.14226 -1.73875 -2.53213)
(0 0 0)
(-11.2324 3.92738 -2.72597)
(-1.57146 13.2549 -9.38346)
(0 0 0)
(0 0 0)
(0.576973 -3.14206 3.38129)
(-3.33874 -24.1373 19.199)
(0 0 0)
(-0.933812 -2.42856 0.145872)
(0.124466 -2.87935 0.231686)
(0 0 0)
(-2.66099 27.7945 1.89895)
(-7.183 21.5842 -1.02055)
(-1.92026 -8.72941 -13.5097)
(-7.90088 4.57923 2.38282)
(-33.0101 22.7693 1.9159)
(11.1761 15.0709 -11.2961)
(-8.01793 29.3226 -1.52262)
(2.96726 27.7418 3.92769)
(5.34945 23.7366 -11.9739)
(2.1865 -4.73121 -3.12828)
(1.84716 -0.406523 0.0737873)
(-1.57791 -0.807842 -1.25233)
(0.00699401 12.332 -15.4264)
(-7.07051 23.1265 12.8213)
(-9.20575 0.410231 7.61091)
(6.38639 6.48598 -2.22227)
(-9.83833 13.3657 4.63639)
(-23.8005 -7.13538 -22.1282)
(-11.725 -8.53309 -5.22021)
(-6.93798 3.7249 -8.14413)
(-0.321105 -0.393365 -1.52191)
(-25.7848 -13.4056 2.36801)
(-3.34904 -1.83403 2.89338)
(20.6229 16 1.06269)
(-6.33865 -7.24745 -3.99963)
(-10.1562 6.82092 9.81456)
(12.4317 -4.2291 2.27846)
(-8.47457 4.81077 11.8209)
(-6.96345 -3.7167 4.60352)
(1.81792 -3.41449 4.04685)
(-0.621718 -5.28364 1.64878)
(2.34018 -10.4901 10.064)
(0.331608 0.286756 -1.02933)
(22.4084 -2.40685 -10.7959)
(1.53849 -3.56865 3.16877)
(-1.22995 4.91984 1.66453)
(-4.52812 -3.12586 -2.44409)
(9.6475 3.4728 5.73009)
(-5.15311 11.4349 -7.30674)
(-13.8166 9.74339 -28.0002)
(1.1003 4.81511 -5.82156)
(-4.36198 10.3502 -26.4568)
(-5.54087 -1.78395 0.409088)
(-1.43638 -0.403212 -0.864638)
(-3.11038 -39.4178 -10.7654)
(12.8728 26.5672 22.601)
(-3.9824 -4.33484 5.25526)
(3.66574 0.240247 -1.85723)
(-12.3332 -3.20043 -7.67517)
(-6.62933 -3.61509 -11.0418)
(-8.44385 -15.6151 -15.8773)
(-4.00672 13.0576 7.16603)
(-1.55497 -4.64954 -3.82038)
(6.61173 13.8251 6.45335)
(-11.4723 3.91423 0.132296)
(4.28872 2.68368 6.91642)
(-1.17102 1.9756 26.8939)
(-1.521 -1.33488 -0.0131256)
(0.807136 2.77427 0.362644)
(-5.6155 1.34821 -2.32303)
(0.154613 3.61121 5.01902)
(16.7599 1.94565 13.6451)
(-7.37577 16.1531 -6.63011)
(3.18934 2.25427 0.261024)
(0.00185684 0.530745 0.0109575)
(-0.417176 0.745673 0.898194)
(0.603958 -0.0601069 -1.21112)
(2.06618 0.750604 -3.55541)
(-6.43954 10.081 17.8972)
(-8.87216 9.72723 2.40722)
(-3.63761 13.0484 -16.9832)
(-12.5893 -3.56326 2.61063)
(1.1982 -0.420382 -0.987037)
(0.651237 3.61206 -2.43171)
(-2.45074 5.51682 -5.32535)
(-0.108969 -0.302071 0.250204)
(0.0984754 -3.80499 -4.56166)
(-1.25268 0.44839 -0.87602)
(5.18656 0.685671 2.64067)
(0.474146 7.71562 7.48129)
(-5.74565 -4.17098 4.12458)
(1.13092 7.62905 -1.06872)
(-12.5286 7.72196 -7.19227)
(1.98773 -2.18345 1.76632)
(-0.598042 -0.658003 -2.24297)
(14.8291 22.1478 15.9192)
(1.31453 -1.42947 2.23436)
(0.576107 2.18397 -3.1545)
(-2.33179 -4.59873 -4.01448)
(-6.93531 -15.9519 26.3426)
(-5.2345 -1.35525 15.6889)
(-4.8895 2.9566 -0.761717)
(10.8679 6.27433 -9.56805)
(-2.03304 -1.86629 0.869432)
(3.02244 0.332679 9.54186)
(1.16527 -0.63722 -0.384759)
(1.5677 5.65623 -2.31972)
(-3.1432 2.51629 -1.97427)
(-2.21244 23.1093 1.57885)
(2.27158 4.78488 3.66799)
(-7.03638 -7.94217 3.84416)
(-4.41818 7.17882 12.0512)
(9.12095 39.4126 3.40107)
(1.22548 0.0464214 1.48542)
(-1.09921 4.48866 2.15186)
(0.177973 -0.271679 0.344891)
(-3.39326 0.349185 1.59848)
(11.5661 11.5289 -7.56552)
(6.90627 -6.35257 -1.19279)
(-8.21674 -2.57772 -10.432)
(-7.21559 -4.40088 -2.08676)
(-7.71407 11.6513 -9.58859)
(-1.12842 -2.93467 0.176272)
(1.45628 -1.01619 -4.36631)
(-5.02753 -1.36905 2.02607)
(1.31101 1.42626 -0.132667)
(-1.93944 11.5793 -4.50436)
(-2.25013 -1.83048 -2.88914)
(16.5345 -15.0492 -14.1966)
(2.6899 -0.584275 0.198572)
(2.38291 14.9994 -12.2769)
(-17.7113 -14.7277 -2.76)
(-0.339905 -4.38741 0.477965)
(21.7611 -2.95712 -17.5004)
(0.381523 1.7752 1.20919)
(9.62439 1.57178 0.416576)
(0.477402 -0.677562 -0.409155)
(-2.91605 0.850892 3.45065)
(-2.86898 17.7368 -1.6296)
(-0.527699 -1.17605 1.2218)
(0.909889 -2.9294 5.02131)
(4.5923 5.64149 0.159325)
(-8.58821 5.13451 -4.46383)
(6.91293 1.83949 -14.7139)
(0.654556 3.07748 -2.62972)
(-0.657313 1.59268 -3.22234)
(-1.0393 -0.98869 3.35258)
(-3.13226 1.04314 9.93849)
(-0.484078 0.511143 0.54506)
(-2.34301 3.01466 3.6623)
(19.3812 4.7071 -18.1432)
(-0.540888 -0.00534209 -0.28845)
(-7.48523 6.52633 -9.49441)
(4.97483 9.60656 11.0582)
(10.1946 -2.7939 7.24678)
(0.536006 -0.927717 -2.0063)
(-4.14624 -4.06839 -17.9508)
(2.74618 19.2951 -2.52154)
(0.327282 0.60631 -0.371595)
(7.751 -1.18862 3.67605)
(-3.73758 6.84768 -8.52754)
(-14.4301 -22.5559 11.4915)
(5.8653 0.221907 -0.694079)
(5.47785 0.772534 -4.262)
(0.148736 -1.13296 1.60373)
(7.47966 -3.81481 -3.08994)
(3.58358 0.364133 -4.14035)
(-11.8191 17.3926 16.6678)
(9.618 8.90199 -1.9613)
(-7.19237 -5.48161 -4.16802)
(-6.57587 3.85661 8.31126)
(-1.39559 1.22095 5.99344)
(5.26198 -6.40065 0.624734)
(0.941836 -0.0598895 -0.405584)
(-4.03932 -2.7989 -1.30562)
(5.54447 1.6514 8.99047)
(-2.41381 25.1047 -1.27347)
(-5.31733 4.45551 9.5296)
(-0.0665301 5.67574 -9.58875)
(-7.40878 0.173806 4.46075)
(3.60969 -2.03647 8.72342)
(13.9832 -4.2019 -0.796806)
(-4.06703 -2.191 0.536487)
(-2.03227 -0.0245616 1.20042)
(-1.32479 -1.96396 4.26584)
(1.92623 -2.66903 3.48094)
(-0.830118 2.77249 8.60398)
(-8.67284 -1.69045 6.72813)
(-2.73515 2.95975 -27.0317)
(3.24086 0.728403 0.922091)
(-11.3119 6.84555 -15.5494)
(0.498159 0.703757 -0.278436)
(-1.02467 0.20407 5.74788)
(1.15957 -3.52105 1.85105)
(-0.0327348 -0.117732 -0.0248897)
(2.13809 -2.07315 -1.80269)
(-2.19741 2.51313 1.44509)
(1.76106 -1.76024 -0.446669)
(-12.646 -2.24975 7.34502)
(-7.97227 -9.70841 11.0764)
(-9.87866 2.60918 14.3351)
(-2.63951 -0.348757 0.475221)
(0.232064 0.113956 0.180548)
(-4.0916 0.953405 8.33839)
(-1.40089 -11.7814 8.55613)
(-0.839112 -2.71774 2.13815)
(-18.5902 2.54748 7.81377)
(0.440807 2.24885 3.1072)
(25.9415 -14.3357 1.76302)
(-3.68222 -4.98593 4.4343)
(-10.5346 -7.69389 -2.23712)
(-10.9051 -9.9045 8.25887)
(-16.1374 -9.46208 -3.77515)
(-6.88457 3.53589 -0.405639)
(18.599 2.78212 8.30333)
(-0.556622 -0.793861 0.405808)
(-1.01647 2.34641 0.647317)
(16.7974 -16.4024 16.1155)
(-4.68058 3.7659 3.79629)
(-0.894619 0.850764 -1.251)
(3.86636 -16.5871 -6.40069)
(-5.18441 -4.57828 6.99351)
(1.00945 -0.67331 1.13057)
(-8.34687 7.01321 1.16365)
(14.9389 6.55573 8.17941)
(8.53155 5.30483 9.97659)
(-0.254096 0.381425 8.51745)
(-17.8673 -18.859 0.506981)
(-4.90932 -2.75006 3.31343)
(-1.92568 -1.66042 -2.19528)
(-4.45859 4.7416 -12.6686)
(-0.966048 0.879549 -3.95522)
(4.85733 -2.90279 4.51136)
(0.0207766 0.149901 -0.271563)
(6.30778 -3.4826 16.926)
(0.740378 10.2273 6.96733)
(-1.0735 -2.19812 1.80871)
(-3.24753 -3.17257 9.22154)
(-3.48221 7.0986 -10.5151)
(0.896563 -1.80792 1.21858)
(3.42389 -3.27288 0.196432)
(2.47765 -2.66309 8.5799)
(-2.77736 -0.290084 -1.28351)
(3.95771 -0.87283 -16.3829)
(-0.209376 -0.887651 -0.446363)
(1.19549 -1.80566 -1.27233)
(4.73698 3.64478 5.0352)
(7.54069 11.4277 -1.70178)
(0.618859 5.99329 -1.91296)
(0.757709 -12.3547 9.26652)
(0.840316 15.5167 -1.12782)
(20.007 -6.00843 -12.9829)
(16.875 -3.6993 -10.3025)
(-15.4916 6.71306 -7.85953)
(-1.75523 0.734954 0.433349)
(-3.50828 -0.91401 9.7685)
(-11.1982 -7.78359 0.692371)
(-5.05314 -3.9015 -0.394714)
(-1.71465 0.868051 -0.242388)
(-0.616446 3.36518 -1.20066)
(-2.85969 -33.8284 -15.1489)
(-6.81417 -7.91815 -4.15035)
(0.121601 -0.0620115 -0.116655)
(24.9019 4.63293 -6.11361)
(1.60035 1.84277 0.594145)
(0.376792 -0.80268 -2.17017)
(-0.446225 -0.254283 -5.45214)
(-2.60877 -0.398956 -0.32847)
(-0.874708 -4.99633 -3.85857)
(5.16815 7.08655 -2.70973)
(2.61669 -1.48083 3.55251)
(2.02248 9.14409 -12.2376)
(-7.89498 -5.53445 -3.43659)
(-4.06618 -2.35846 -1.4132)
(4.77169 3.8387 -1.9918)
(-5.40096 0.139756 -2.06302)
(3.61506 4.38455 -0.950667)
(3.70616 7.0353 -6.17973)
(2.72736 0.532722 4.15431)
(19.8259 -0.409031 10.758)
(0.376519 -20.008 6.44284)
(-1.7948 -0.965788 -0.601367)
(-0.88032 2.7985 -1.21096)
(-8.33926 13.3144 5.35441)
(7.15425 -3.64984 3.52361)
(-1.56043 -5.84058 4.53328)
(2.03334 0.285303 -0.0711714)
(0.620576 6.53384 8.28195)
(1.1075 -1.06815 -2.14808)
(0.632452 4.16763 1.3769)
(-1.88217 0.0532074 -1.80792)
(-14.9765 14.5131 -25.0439)
(-4.63725 14.8811 -9.49845)
(0.702393 2.01138 -1.59528)
(-1.35293 5.963 2.22463)
(-9.62477 -1.04225 -1.30348)
(-0.355876 1.57522 -0.755223)
(-10.3209 3.09033 -14.7797)
(-5.67797 -0.487071 4.88608)
(-0.256571 -2.18045 0.68042)
(-10.4094 11.5079 -11.2502)
(0.803709 2.47344 -2.17253)
(15.363 32.2403 -0.771979)
(7.00077 3.68021 8.49815)
(-0.343312 -0.65922 0.0354619)
(2.44694 -5.50109 -5.71845)
(2.94968 0.891924 -4.57023)
(-3.72052 4.55876 6.80121)
(-0.785051 -6.057 0.0424438)
(-12.5162 -6.43672 1.05649)
(-0.645372 1.08626 -0.120635)
(1.3287 -6.1718 -0.877973)
(-2.64721 -5.48865 2.03536)
(6.5537 7.25245 -6.30653)
(-10.0593 0.587622 7.07491)
(-0.4917 -1.7183 0.454868)
(-15.7405 0.389326 13.2168)
(-6.73364 3.23511 0.655637)
(6.58231 9.43784 6.43237)
(-18.1358 1.69389 0.617465)
(-5.132 4.48576 -0.79866)
(-5.96875 -1.98937 -9.42189)
(0.165823 -0.767715 -1.1528)
(-5.40265 6.57405 -3.38904)
(-15.8507 -0.0384067 5.65188)
(-4.28587 2.03391 -7.95881)
(-11.0374 8.75962 -5.83432)
(-7.98072 6.55687 -2.11993)
(-3.47749 -5.4622 4.61364)
(-1.25818 4.04315 11.9272)
(24.6998 -6.63498 -4.88067)
(1.42234 10.0406 -5.74417)
(30.8852 18.1706 -1.05363)
(-8.02636 -2.80291 -9.32995)
(3.71212 -0.0542888 -0.925205)
(3.03 -0.666504 -0.836203)
(-4.80254 1.91989 2.5919)
(-10.1523 14.4804 -2.54994)
(-39.0553 5.26308 -24.8456)
(-1.9885 6.92512 0.779282)
(5.14055 -5.24129 3.1125)
(0.369544 -8.20637 -3.55843)
(-1.50458 2.08591 1.09554)
(-1.92241 -1.51203 -4.19943)
(3.51337 -3.07124 1.85503)
(4.3742 0.7669 6.98004)
(2.32121 -10.6169 -0.481691)
(2.65546 -4.9401 4.31789)
(-6.50696 -5.06496 -3.75777)
(7.49577 -7.27555 1.73309)
(19.8325 3.96299 -15.0265)
(5.45284 14.1201 31.8477)
(-2.14084 -3.75701 -0.692404)
(5.56459 3.28044 5.2642)
(-18.0973 -3.15378 -12.1108)
(-0.413863 4.20921 2.01321)
(-10.0741 14.0163 -20.0283)
(6.20081 1.72206 0.498501)
(-0.656288 12.4648 3.39626)
(-6.53775 -3.22193 5.13289)
(19.2865 -3.84117 -29.5158)
(11.8998 4.55799 2.90952)
(-11.6662 -4.79275 7.10855)
(6.81153 10.53 8.95642)
(-1.33298 2.70789 0.329965)
(25.0289 35.7853 29.6875)
(-0.869923 8.86334 1.63855)
(-5.00832 -2.86462 2.15912)
(1.40514 0.377134 5.41221)
(0.958928 -0.0401206 0.00398033)
(-3.16642 -8.45511 -1.93363)
(0.0691194 -0.648047 -0.418313)
(19.3577 -3.44042 -42.2037)
(-0.643081 -4.13444 6.8502)
(7.70374 14.5727 -5.63575)
(-24.4064 7.53852 18.9816)
(-0.550245 -7.49914 -5.88117)
(20.7136 2.59997 16.0864)
(-17.9653 10.7014 -3.76269)
(1.24623 2.50539 13.3463)
(-0.664961 1.10701 -1.32743)
(-3.93377 1.84849 -0.719339)
(-6.28607 1.14049 -4.36768)
(-13.0529 -9.79646 -29.9226)
(-15.9256 -29.9831 15.1934)
(2.55096 -3.70928 2.91853)
(7.98748 0.954797 4.95347)
(13.1334 -2.03685 -8.25125)
(2.44975 8.81202 0.811369)
(3.59135 7.59971 9.99913)
(3.40048 -13.1391 -7.4981)
(-2.99689 0.25239 -1.21524)
(-0.179447 7.47478 -5.49242)
(4.26787 6.18478 10.5437)
(0.542306 -5.38496 3.50874)
(3.52345 3.98093 -4.52195)
(-0.0147738 0.011298 -0.0171893)
(-5.19676 8.35721 5.66606)
(-3.76554 -3.89269 6.82817)
(1.22102 0.68884 2.66213)
(15.3989 14.6367 10.9001)
(0.142359 -0.365667 0.317716)
(12.7165 -7.265 -36.6817)
(5.38542 6.57484 -12.8353)
(2.54476 4.29 -6.42849)
(3.93589 1.13533 0.861164)
(-2.09967 -4.63238 0.388545)
(-6.83914 -0.195125 -1.58037)
(-0.504191 -1.36922 -3.40023)
(3.20596 -1.87684 0.112484)
(-11.715 4.28359 6.38252)
(-6.58374 0.389142 0.337114)
(-8.26132 0.617518 6.08227)
(0.396682 12.035 13.5066)
(-0.896377 10.3103 9.94774)
(2.02108 -1.85864 0.543221)
(-4.22711 2.24727 0.0352566)
(0.694045 -0.789071 3.03032)
(2.11718 13.1543 -1.55871)
(3.65066 0.929061 -23.1006)
(3.07735 5.01871 -11.9469)
(8.59528 4.51842 10.4337)
(3.02656 5.06207 -0.941356)
(7.61608 -1.99805 8.76451)
(1.61628 7.40718 -7.88867)
(-5.07753 -4.02995 -3.69863)
(35.6071 -10.5363 -1.72773)
(2.67082 0.484144 1.02383)
(6.76665 13.7773 -3.79918)
(-0.53238 0.361054 -1.09486)
(-8.52486 15.8411 -4.19916)
(-5.60341 0.0387315 -11.0686)
(18.6811 -4.5856 -21.6712)
(-1.84578 -2.53591 35.5983)
(-0.552877 -0.987668 1.61063)
(-0.0436082 0.100023 -0.0108536)
(-3.6138 0.960316 0.804085)
(5.22417 3.79212 -9.94383)
(-0.35963 -0.274199 -1.1217)
(23.6013 7.98436 -9.91785)
(-13.3294 9.85603 -4.69445)
(-4.61757 0.418056 -0.666226)
(1.36259 -0.137711 -2.97049)
(12.5305 -0.398949 7.03086)
(12.284 -4.07451 -0.576361)
(1.43426 -1.39159 -0.638093)
(1.59537 3.03619 2.30053)
(-2.10559 3.8493 20.1434)
(13.862 -0.294603 -3.58888)
(13.6506 2.77763 10.7263)
(0.00944258 0.00687397 0.00905738)
(8.31412 21.042 -16.2928)
(0.965072 -14.5029 3.6006)
(-4.01751 15.4404 -5.42988)
(14.8966 -15.1032 11.9303)
(-0.46344 0.2977 1.37129)
(3.62506 -2.45628 -12.4285)
(10.5407 5.94545 21.5967)
(1.996 1.0028 3.54859)
(11.5093 -4.3453 -8.26143)
(-15.6884 -24.0372 16.712)
(15.6423 1.32135 -14.3279)
(0.314686 0.0404453 -0.128716)
(1.0232 7.82921 -12.1257)
(15.3137 -1.4428 -2.22786)
(-4.06506 -2.39466 -0.781458)
(0.222314 -2.98242 -0.693957)
(-27.3518 -8.84278 -4.75335)
(-2.61437 2.441 5.93629)
(-4.26925 0.252006 -0.567105)
(-0.624278 0.131816 4.73562)
(21.5257 -11.081 7.94174)
(-0.504942 -2.76636 -2.20993)
(2.10291 -3.2094 -3.86554)
(-5.5257 6.77065 10.1011)
(-0.786784 -1.88569 -0.0131172)
(3.33361 -3.21517 -6.46579)
(-1.0399 -3.7208 -16.1028)
(0.573376 -0.672072 -0.209604)
(-2.58208 2.41487 7.53753)
(2.11905 1.24184 0.585673)
(-0.383722 8.60194 -10.0007)
(6.01231 7.6016 -7.45914)
(-0.162235 1.02813 1.48689)
(6.89404 17.4011 14.173)
(12.3734 -9.41398 5.93825)
(-1.36811 -0.691541 1.05169)
(-1.25241 -1.01765 7.55375)
(-6.22201 -2.44131 -3.63215)
(1.13798 0.980097 2.70799)
(-0.229498 -1.52915 -0.22791)
(-9.15475 5.4547 -1.63979)
(3.27633 0.300946 0.146114)
(-3.18706 2.76664 1.11126)
(-1.71409 -0.3159 -0.207844)
(-15.4843 13.9618 -2.24671)
(3.00384 5.64976 7.2705)
(6.16284 19.9569 2.69379)
(-13.8507 -3.97251 9.12097)
(-0.246765 -0.699953 3.52997)
(-1.0192 5.01237 -0.611218)
(-1.04397 11.6378 -3.49198)
(6.55287 8.11926 -7.59177)
(-1.83485 -1.49054 -1.75808)
(-0.0110082 -0.109197 -0.02732)
(-6.78432 0.0671226 -5.77379)
(-1.70608 -0.364598 1.35472)
(4.91763 0.819266 11.7239)
(0.416643 -1.56262 -0.880545)
(2.39972 -2.73187 17.0336)
(4.69182 15.9259 -12.635)
(0.017714 -0.0503609 0.0134651)
(-1.03078 -17.3815 -4.05028)
(-4.80572 1.16896 -4.15852)
(-1.12064 -1.9171 13.6294)
(8.92019 1.87631 1.47388)
(2.80903 3.04759 2.94554)
(5.95731 -6.74702 -1.977)
(-0.207194 -8.12661 7.11587)
(0.169784 17.4106 4.11837)
(-2.27568 7.08965 2.11785)
(10.5306 13.8142 2.31806)
(5.75849 4.60854 3.13127)
(1.44554 9.52559 3.14705)
(21.9713 -7.11242 18.9168)
(-0.0732364 -1.5934 -1.50529)
(-6.0344 3.05359 2.86109)
(-17.8669 -8.17326 11.4407)
(2.89276 8.30412 -1.6195)
(-6.91683 4.88359 18.1923)
(1.95696 12.06 -3.66496)
(-0.00807133 -0.0719407 -0.00841321)
(-0.342941 4.78915 -1.02877)
(-26.8253 1.5371 4.72482)
(-7.80958 12.8069 -7.56503)
(-0.0129374 -0.476754 -0.193894)
(-2.27832 4.83643 -7.15132)
(-10.8451 18.0362 1.47373)
(0.100412 -0.253862 -1.67721)
(0.774002 0.838856 0.338759)
(11.1199 -3.11916 12.3857)
(2.16642 1.52623 -0.735703)
(0.14549 -0.325143 -0.0538777)
(1.24942 1.20277 1.91774)
(-20.8507 6.32367 -2.12274)
(6.39515 -10.0404 -4.68221)
(-5.68218 24.3298 -1.43088)
(14.319 -6.63766 4.1993)
(4.19878 3.79075 3.81053)
(15.8957 -0.529868 2.99177)
(0.346756 0.00396251 -0.978018)
(-14.7461 5.72129 -6.98565)
(-1.85658 1.55459 6.78145)
(0.664895 -6.45004 10.8153)
(5.52885 6.71274 -6.68809)
(-1.75309 6.28294 -7.9634)
(-13.9405 7.83261 -10.0904)
(-1.35721 -7.50165 -4.64567)
(0.0995548 -0.778997 -0.546399)
(0.28418 -6.5741 0.528985)
(5.84481 -9.17643 0.870158)
(-17.7098 -7.75155 -18.5664)
(0.411566 0.941959 -4.81573)
(-3.47088 10.9485 0.09161)
(-0.48361 -0.177041 0.439236)
(-19.7241 -12.4869 11.383)
(0.3116 2.68833 -1.91918)
(6.50259 -3.67994 8.82814)
(-3.40174 -4.44953 -10.1942)
(5.28902 19.5472 -6.05125)
(3.18039 -4.78147 -4.96769)
(9.17493 -9.07724 -10.6214)
(15.8353 2.86707 8.2064)
(0.406051 -0.71991 1.16546)
(-2.45332 -7.37133 4.75905)
(-2.62661 -0.0936718 1.05259)
(-3.78584 5.03549 -4.02875)
(4.60781 -1.90097 -11.5871)
(-6.61465 -2.70449 -0.341811)
(4.03648 -3.85845 0.231577)
(-10.2481 6.62041 2.03377)
(-3.56382 -8.88818 -0.619691)
(-4.21858 -0.361881 3.63023)
(0.635952 4.1753 0.866602)
(18.3187 8.07136 -7.25104)
(5.3614 -0.315466 -0.97632)
(-26.7863 -8.05328 -4.60864)
(3.91579 -1.99157 -6.16568)
(1.02732 2.97473 -3.2252)
(5.19463 -5.26519 11.3784)
(-2.14484 8.62236 11.9409)
(-4.06503 -3.45834 -1.48969)
(-0.259666 0.389787 8.70416)
(5.60356 -7.84348 1.01749)
(-13.1598 7.87914 6.22224)
(-0.714082 -0.43242 -1.84558)
(12.1373 -5.41856 -6.63066)
(1.00321 1.3408 0.508042)
(-5.26407 -2.42017 13.4237)
(3.49363 0.93944 -1.62087)
(-0.954871 -8.65891 -4.76074)
(-3.38132 0.211905 -5.15283)
(-0.426943 -0.351132 2.47001)
(-10.4087 1.28389 -4.64208)
(-32.4875 -5.5206 -8.72719)
(12.1458 3.00935 28.9365)
(3.60336 2.44264 1.59544)
(6.01906 -22.4161 -6.14838)
(-0.546428 -3.32401 4.54143)
(1.43421 4.10702 -3.25739)
(2.1732 0.859644 -2.33043)
(-7.50939 0.825947 -4.85295)
(-3.04316 10.2844 5.58822)
(0.294917 -0.360316 -0.533197)
(-27.6364 -2.99271 -3.7428)
(-12.9339 -3.88904 12.5084)
(-4.46296 -2.5886 -1.5511)
(-1.09629 5.11359 5.93756)
(-1.8487 -2.22849 -0.637769)
(-0.728711 0.667017 -0.740466)
(-29.1954 13.6432 -8.16589)
(1.30572 7.53832 2.0323)
(-0.187372 -0.933297 -0.966829)
(0.0197816 1.42016 3.2524)
(-0.725294 4.74215 1.58451)
(-2.431 -5.50276 -11.922)
(-7.54572 18.2508 -1.92726)
(-14.7537 1.83948 -4.77472)
(-1.68745 9.78944 6.51651)
(-31.1595 21.4732 10.0721)
(-7.94197 -0.290908 4.86768)
(0.00719378 -0.0476669 0.0333624)
(1.1042 22.8676 -11.3484)
(18.0696 30.9053 -7.58588)
(-11.8709 26.2724 -8.88091)
(18.0501 30.8718 -7.57767)
(-3.55858 30.0159 -21.249)
(6.49669 -7.12005 -8.78494)
(-7.48701 6.78633 -0.765208)
(22.8428 21.2701 -5.19055)
(-37.4204 25.8114 2.17186)
(10.4207 -5.38446 -1.5157)
(-23.1791 20.3172 13.7302)
(11.4725 24.0757 -0.576482)
(6.12181 11.5802 -4.47848)
(-2.87047 26.7841 -3.84285)
(16.7968 24.0154 19.9231)
(16.8017 26.4113 -3.76356)
(-14.4026 6.70988 -8.51112)
(29.0509 31.4384 -0.670603)
(16.8868 22.7716 -17.068)
(8.83897 19.9632 13.2726)