/*--------------------------------*- C++ -*----------------------------------*\
  =========                 |
  \\      /  F ield         | OpenFOAM: The Open Source CFD Toolbox
   \\    /   O peration     | Website:  https://openfoam.org
    \\  /    A nd           | Version:  7
     \\/     M anipulation  |
\*---------------------------------------------------------------------------*/
FoamFile
{
    version     2.0;
    format      ascii;
    class       scalarField;
    location    "0.7/lagrangian/reactingCloud1";
    object      age;
}
// * * * * * * * * * * * * * * * * * * * * * * * * * * * * * * * * * * * * * //


2449
(
0.004325
0.004115
0.00401
0.003905
0.0038
0.003695
0.00359
0.003485
0.00338
0.003275
0.00317
0.003065
0.00296
0.002855
0.00275
0.002645
0.00254
0.002435
0.00233
0.002225
0.00212
0.002015
0.00191
0.001805
0.0017
0.001595
0.00149
0.00148625
0.001385
0.00128
0.001175
0.00107
0.000965
0.00086
0.000755
0.00065
0.000545
0.00044
0.000335
0.00023
0.000125
2e-05
0.058905
0.01948
0.01848
0.01598
0.01708
0.013465
0.014095
0.01063
0.010525
0.01042
0.01021
0.010105
0.01
0.0099
0.0098
0.0097
0.0096
0.0095
0.0094
0.0093
0.0092
0.009
0.0091
0.0089
0.0088
0.0087
0.0086
0.0085
0.0084
0.0082
0.0083
0.0081
0.008
0.0078
0.0079
0.0077
0.0075
0.0076
0.0074
0.0073
0.0072
0.0071
0.007
0.0069
0.0068
0.0067
0.0066
0.0065
0.0064
0.0063
0.0062
0.006
0.0061
0.0059
0.005795
0.00569
0.00548
0.005585
0.005375
0.005165
0.00527
0.004955
0.00506
0.004745
0.00464
0.004535
0.00485
0.00443
0.00422
0.012625
0.012415
0.0121
0.0120962
0.012205
0.0123062
0.01231
0.011785
0.011995
0.01189
0.0112562
0.01126
0.011365
0.01147
0.01105
0.011155
0.010945
0.010735
0.011575
0.0115712
0.01084
0.010315
0.01168
0.01378
0.0136712
0.013045
0.01294
0.01336
0.01273
0.01252
0.01315
0.013255
0.02103
0.012835
0.014935
0.01525
0.01588
0.01546
0.01504
0.01462
0.01483
0.014515
0.014725
0.01788
0.01399
0.0142
0.01441
0.01357
0.014305
0.013675
0.013885
0.02124
0.01698
0.01678
0.01688
0.01808
0.01638
0.01668
0.01748
0.01658
0.01618
0.01648
0.015775
0.01628
0.01608
0.01567
0.015565
0.015145
0.015355
0.12261
0.02019
0.01968
0.02636
0.020715
0.01978
0.01928
0.01958
0.01898
0.01988
0.01908
0.01918
0.01878
0.01888
0.01838
0.01868
0.01828
0.01858
0.01798
0.01818
0.01738
0.01758
0.01778
0.01718
0.01938
0.01728
0.01768
0.0273216
0.02397
0.023865
0.024285
0.02523
0.024075
0.02376
0.02355
0.023235
0.023445
0.02313
0.023025
0.02334
0.022815
0.02292
0.022395
0.02229
0.02966
0.022605
0.022185
0.02271
0.02208
0.02886
0.021345
0.021975
0.02166
0.0224962
0.021555
0.02145
0.02187
0.020925
0.02082
0.02061
0.0225
0.023655
0.0204
0.021135
0.020295
0.0214462
0.020505
0.021765
0.020085
0.01998
0.0339839
0.0362831
0.0294167
0.0288932
0.0299664
0.0270889
0.032165
0.03185
0.0308
0.05181
0.02986
0.030065
0.02956
0.02926
0.031115
0.0301662
0.0289835
0.032585
0.02896
0.02866
0.02936
0.02946
0.047125
0.02876
0.02976
0.02846
0.03143
0.02816
0.02806
0.02826
0.02766
0.02756
0.02836
0.02856
0.02796
0.032795
0.02786
0.02746
0.030275
0.02736
0.05496
0.02706
0.02696
0.02726
0.02776
0.02666
0.02676
0.02626
0.02656
0.02596
0.02606
0.02916
0.025545
0.0254362
0.025755
0.02686
0.02565
0.02586
0.02716
0.0250162
0.025335
0.02616
0.025125
0.039645
0.02544
0.02481
0.0246
0.024705
0.024915
0.02646
0.02439
0.02502
0.024495
0.02418
0.0376501
0.0380812
0.0364331
0.0414175
0.0331807
0.04267
0.0468245
0.0398585
0.0358661
0.0336436
0.0415506
0.0316816
0.0325411
0.0343507
0.0338869
0.046725
0.038245
0.037845
0.038145
0.036945
0.039445
0.037545
0.037445
0.037045
0.036245
0.035945
0.036045
0.035735
0.036445
0.035525
0.03542
0.03521
0.034895
0.034475
0.036145
0.036545
0.034685
0.034265
0.03416
0.03458
0.03395
0.033635
0.033845
0.043615
0.03353
0.035315
0.03479
0.033425
0.03437
0.035
0.037145
0.033215
0.03584
0.03311
0.033005
0.0331062
0.03563
0.0329
0.03269
0.036745
0.035105
0.036645
0.032375
0.03332
0.031955
0.031745
0.03206
0.0316362
0.034055
0.03374
0.03248
0.030905
0.03122
0.031535
0.03059
0.031325
0.030695
0.030485
0.03038
0.03227
0.036345
0.03164
0.02996
0.03101
0.03017
0.0420115
0.0421213
0.0420679
0.0429766
0.0414475
0.0452666
0.0408051
0.0412526
0.041609
0.0432028
0.0421365
0.0414613
0.040282
0.0438163
0.0399866
0.043745
0.0422406
0.0431021
0.0431085
0.0380378
0.0461595
0.0398529
0.0438746
0.0387892
0.0404485
0.0421927
0.0389047
0.0410063
0.0453982
0.043142
0.0416601
0.0380068
0.0382993
0.0381873
0.0435319
0.0385949
0.0413499
0.0438718
0.0373063
0.0419753
0.0450887
0.056405
0.049925
0.0433404
0.046825
0.04519
0.045505
0.044455
0.04477
0.046125
0.044245
0.04393
0.045295
0.042985
0.04288
0.045925
0.0433
0.044875
0.042775
0.043405
0.0430862
0.04309
0.043825
0.042355
0.0429685
0.045085
0.04246
0.04225
0.042565
0.0407382
0.041515
0.042145
0.0658845
0.04099
0.041305
0.0389897
0.05202
0.041725
0.04162
0.0405662
0.0391531
0.04267
0.040465
0.041095
0.04015
0.047225
0.049825
0.039845
0.04456
0.04057
0.039545
0.04078
0.041935
0.040045
0.0412
0.039045
0.040885
0.039245
0.038845
0.0414062
0.04183
0.040255
0.038545
0.039345
0.038945
0.038745
0.040675
0.038345
0.038445
0.0390644
0.04036
0.037645
0.037945
0.038045
0.038645
0.037345
0.039945
0.036845
0.037245
0.037745
0.039745
0.0505548
0.0485679
0.0532843
0.0523333
0.0529009
0.0532124
0.0510568
0.0537281
0.0512756
0.0539527
0.0516091
0.0532828
0.0534832
0.0508343
0.0545698
0.0550463
0.0498284
0.0488856
0.0490316
0.0560977
0.0533057
0.0538105
0.0462743
0.0526987
0.0531894
0.0501849
0.0457376
0.0541175
0.0486059
0.0635848
0.0500149
0.0556434
0.0545461
0.0517507
0.0536885
0.050959
0.0479583
0.0515835
0.0449622
0.0538145
0.04583
0.0472914
0.0518207
0.0496615
0.0522485
0.0556416
0.0529387
0.0465967
0.0559408
0.0471558
0.0506934
0.0584689
0.0553773
0.0521364
0.0454157
0.0553055
0.049862
0.0519173
0.0548893
0.049798
0.0510892
0.0537865
0.0566277
0.0542688
0.0539126
0.0525997
0.0438839
0.054634
0.060979
0.0455269
0.0483856
0.0558633
0.0558821
0.0491821
0.068085
0.061265
0.0450298
0.060845
0.06116
0.059605
0.0552439
0.06137
0.056505
0.056105
0.06389
0.056805
0.057005
0.056005
0.111055
0.05559
0.059505
0.05517
0.05475
0.055065
0.058605
0.057905
0.055905
0.054645
0.054855
0.056205
0.056705
0.05391
0.055485
0.058805
0.056305
0.054225
0.055275
0.057205
0.053385
0.06536
0.054015
0.053175
0.05349
0.05328
0.05286
0.057605
0.05244
0.052965
0.05223
0.052755
0.053805
0.05307
0.052125
0.06179
0.0558
0.051495
0.0524362
0.054435
0.05412
0.06263
0.056605
0.05118
0.052545
0.051705
0.055695
0.05139
0.051915
0.05265
0.0537
0.0516
0.05433
0.05454
0.05013
0.050025
0.05076
0.07156
0.050445
0.052335
0.058405
0.049625
0.06032
0.050865
0.051285
0.05097
0.05055
0.048925
0.048725
0.050655
0.048625
0.050235
0.051075
0.049025
0.047725
0.049725
0.048125
0.048425
0.0601062
0.049225
0.049125
0.059005
0.049525
0.053595
0.048325
0.047825
0.049425
0.047325
0.047025
0.0465322
0.0597029
0.047625
0.046925
0.046325
0.046225
0.047925
0.05034
0.047525
0.048225
0.049325
0.05538
0.04498
0.048025
0.046425
0.048825
0.047425
0.044665
0.04582
0.04435
0.0829775
0.045715
0.04414
0.046525
0.0454
0.0456082
0.044035
0.048525
0.0637335
0.0645326
0.0690146
0.068856
0.0643682
0.0667196
0.0662498
0.0697091
0.067412
0.0698766
0.0711708
0.0600825
0.0668162
0.0665753
0.0643865
0.0680853
0.0729766
0.0704461
0.0666864
0.0642019
0.0698075
0.0592379
0.0665042
0.0683887
0.0644684
0.0623485
0.0725044
0.0621087
0.0586327
0.072586
0.0603863
0.0631166
0.0689905
0.0672794
0.0678531
0.0660979
0.0628082
0.0672277
0.067847
0.0650262
0.0704648
0.0626457
0.0674777
0.0673215
0.0684059
0.0678102
0.0662297
0.0671494
0.0686114
0.0598984
0.0683293
0.06231
0.0714847
0.0674216
0.0698706
0.0671534
0.0700841
0.0698086
0.0653988
0.0766214
0.0623667
0.0641088
0.0701003
0.063486
0.0675129
0.0641476
0.0640065
0.0697361
0.0622548
0.0736341
0.068298
0.0581091
0.0664023
0.105165
0.0610333
0.0606475
0.0633144
0.0652164
0.0632286
0.0672872
0.0654329
0.0654068
0.0676294
0.0581107
0.0671054
0.0666482
0.0660823
0.0619506
0.0640261
0.0642047
0.0688602
0.0652019
0.0671684
0.0619434
0.0686158
0.0663032
0.0692672
0.0684547
0.0591789
0.0610844
0.0811433
0.0664841
0.072451
0.0709592
0.0689054
0.065934
0.0721936
0.0714694
0.0574227
0.0644894
0.070643
0.0593644
0.072618
0.0613781
0.0679182
0.0613021
0.0647686
0.072015
0.0767275
0.0769297
0.0658288
0.0586604
0.0870231
0.0617418
0.0645015
0.0704509
0.0802825
0.0674758
0.0600673
0.0709685
0.0583809
0.0584533
0.0651054
0.0680939
0.0647944
0.0715749
0.0625695
0.0702859
0.0587794
0.0704466
0.0657474
0.0689515
0.0654573
0.0581232
0.0567781
0.0612915
0.06295
0.0701866
0.0652153
0.0654685
0.0583399
0.0689502
0.0642127
0.0605825
0.061403
0.0574934
0.0626146
0.0737085
0.0636547
0.0596734
0.0659591
0.0661935
0.0630053
0.0589419
0.0626238
0.0600274
0.0582875
0.0563866
0.0561306
0.0659004
0.063632
0.0590891
0.0659102
0.0690072
0.0651069
0.0673165
0.0575037
0.0609123
0.0615365
0.0679481
0.06142
0.0589028
0.0595283
0.0597759
0.0647208
0.0655404
0.0689259
0.064251
0.0562469
0.0618063
0.0636495
0.0654899
0.0647847
0.0630937
0.0610222
0.0669052
0.0554336
0.0557074
0.0605627
0.0558471
0.0564356
0.0686924
0.0659878
0.08248
0.0564442
0.076665
0.07492
0.07282
0.0609387
0.07576
0.074395
0.071455
0.07009
0.073765
0.072715
0.074605
0.0750056
0.07093
0.069785
0.0808652
0.072295
0.0707393
0.071245
0.070615
0.0703
0.077665
0.072505
0.069585
0.081745
0.068885
0.07303
0.068585
0.075025
0.070405
0.069285
0.073345
0.07429
0.0692867
0.066485
0.075445
0.078965
0.0663296
0.067385
0.066385
0.0565163
0.068485
0.07408
0.067785
0.066085
0.066285
0.07114
0.068185
0.07177
0.067285
0.0668341
0.067585
0.07051
0.069485
0.0887442
0.069085
0.072925
0.067885
0.0607974
0.065045
0.071035
0.06473
0.06494
0.069885
0.0724
0.068285
0.069985
0.063995
0.0633326
0.066785
0.064205
0.066885
0.06368
0.067685
0.068385
0.071875
0.066185
0.063785
0.067485
0.068985
0.064625
0.072085
0.08038
0.069385
0.07072
0.064415
0.07198
0.06242
0.0647262
0.08017
0.062525
0.0613821
0.065465
0.0608017
0.07555
0.062315
0.065675
0.065985
0.06557
0.067185
0.062735
0.057329
0.0622062
0.064835
0.06158
0.0635712
0.060635
0.06347
0.061895
0.062
0.067985
0.065255
0.059905
0.063155
0.06452
0.062945
0.062105
0.060005
0.06326
0.06074
0.059405
0.06053
0.066985
0.058505
0.058105
0.070825
0.068685
0.0593003
0.061685
0.057505
0.057405
0.057105
0.0588737
0.06578
0.057305
0.060425
0.058305
0.06284
0.056905
0.059805
0.058005
0.06011
0.0641
0.058205
0.057805
0.0554812
0.06221
0.058705
0.0787337
0.0796761
0.0754234
0.0858406
0.0760194
0.0823603
0.0799251
0.0827723
0.0867281
0.0804435
0.08555
0.0843421
0.0851393
0.0782767
0.0839967
0.0797825
0.0760328
0.0890956
0.0894822
0.0857917
0.0826403
0.0787889
0.0779405
0.0857808
0.080981
0.0899428
0.0886941
0.0834981
0.0907049
0.079209
0.0820746
0.0816009
0.087395
0.0777633
0.0759812
0.0765431
0.076289
0.0771855
0.0821313
0.0797369
0.0769178
0.0785553
0.0814368
0.0835473
0.0805533
0.0849603
0.0739038
0.0787837
0.0854963
0.0745317
0.0851832
0.0858206
0.0741071
0.082628
0.0844874
0.0875612
0.0852429
0.0888848
0.0779161
0.0804608
0.0824902
0.0744945
0.0805677
0.0884395
0.0900874
0.0729601
0.073259
0.0752705
0.0834303
0.0869168
0.0821839
0.0828539
0.0946075
0.0742118
0.0823746
0.0952055
0.076782
0.0784254
0.0810572
0.0833964
0.0752077
0.0877669
0.0772919
0.0797163
0.0752882
0.0902768
0.0881579
0.0806528
0.0789801
0.0774706
0.0807508
0.0895224
0.0746266
0.0786617
0.0909682
0.0781754
0.0776711
0.082129
0.0741974
0.0790943
0.0781246
0.0871541
0.0782127
0.0713757
0.0819825
0.082553
0.07903
0.0790374
0.0884415
0.0812191
0.0722144
0.0846392
0.0838116
0.0870488
0.0781642
0.0813618
0.0853497
0.0859295
0.0752382
0.074562
0.0822685
0.0862276
0.0753623
0.0773034
0.0798534
0.0816843
0.0803754
0.0836145
0.0777749
0.0867894
0.0745717
0.0836848
0.079223
0.0869766
0.074752
0.0990411
0.0724068
0.0745345
0.0724211
0.0827663
0.0850581
0.0781313
0.0836425
0.084933
0.0797475
0.078865
0.0716314
0.0759052
0.0722933
0.0828475
0.0781631
0.0788726
0.0708495
0.0825656
0.0837843
0.0751011
0.0804935
0.076125
0.0806475
0.0826968
0.0722689
0.0804387
0.0858739
0.0807276
0.0808836
0.0811712
0.0760278
0.0778354
0.0719827
0.0888479
0.0752015
0.0716371
0.076513
0.0763139
0.0719014
0.0782116
0.0876474
0.0855764
0.0755675
0.0836324
0.0734546
0.0729433
0.0797862
0.0862393
0.0724168
0.0751085
0.0820276
0.08385
0.087256
0.0810446
0.0737314
0.0872954
0.0763355
0.0740907
0.0703683
0.10034
0.0867819
0.10454
0.091935
0.092985
0.0712358
0.093405
0.092355
0.09015
0.087804
0.089845
0.106105
0.0853929
0.09225
0.088845
0.091725
0.0912
0.0884139
0.088145
0.0897377
0.099025
0.08542
0.0700485
0.086245
0.090255
0.09414
0.0871874
0.0847959
0.087145
0.08458
0.08353
0.09351
0.0857232
0.095505
0.08374
0.0746474
0.084895
0.10244
0.11032
0.090045
0.086745
0.0827917
0.084055
0.083005
0.107605
0.0833162
0.08395
0.085525
0.101915
0.087245
0.08185
0.09057
0.081012
0.089745
0.08311
0.08416
0.085945
0.080905
0.087745
0.0809108
0.08584
0.088345
0.0803762
0.080275
0.08269
0.081325
0.09288
0.08164
0.083425
0.0808
0.089045
0.0782194
0.079265
0.088245
0.078765
0.073643
0.082375
0.08206
0.087445
0.08122
0.0776452
0.079865
0.08332
0.08227
0.078065
0.089345
0.08059
0.084475
0.085315
0.078165
0.09204
0.08563
0.079665
0.077465
0.087545
0.08479
0.078665
0.089445
0.078865
0.081955
0.077965
0.086445
0.08143
0.085
0.077165
0.078265
0.084265
0.075865
0.083845
0.0793999
0.082165
0.080695
0.079365
0.08437
0.077765
0.076065
0.078365
0.076565
0.076365
0.0749543
0.076965
0.1037
0.0828994
0.0745
0.080485
0.085105
0.082585
0.0740906
0.086145
0.079765
0.076165
0.086345
0.076465
0.077065
0.079565
0.083635
0.073135
0.077565
0.075655
0.076265
0.0715691
0.07534
0.077365
0.07513
0.073555
0.07387
0.0800612
0.07471
0.07219
0.0727356
0.070195
0.07366
0.07345
0.07261
0.103325
0.103446
0.0921507
0.0967582
0.0985457
0.0954526
0.0959077
0.106001
0.0918291
0.0923537
0.0923396
0.103037
0.1044
0.0903522
0.100021
0.105206
0.0919726
0.0891648
0.106842
0.103769
0.0980548
0.106129
0.0973116
0.107132
0.110008
0.0976339
0.116019
0.0953779
0.102269
0.119723
0.0893545
0.105523
0.103431
0.105508
0.0980138
0.0897575
0.0893858
0.0944677
0.104816
0.0996176
0.0897072
0.0951691
0.0941475
0.0948106
0.105229
0.101213
0.0958382
0.103288
0.101839
0.099355
0.0994321
0.101314
0.100153
0.0941305
0.100832
0.0972183
0.107497
0.0882885
0.0875315
0.103905
0.0903754
0.089286
0.106359
0.0916187
0.087534
0.0948763
0.097703
0.100716
0.0960712
0.101675
0.107063
0.0988505
0.0906033
0.106018
0.0974916
0.0916017
0.0907365
0.0970986
0.0890948
0.100741
0.0917116
0.101873
0.102525
0.0921687
0.0932609
0.10525
0.0952095
0.095458
0.101453
0.103748
0.0947456
0.101436
0.0918674
0.0943216
0.10004
0.0956236
0.106635
0.112799
0.102451
0.0950553
0.0915057
0.101687
0.0956646
0.109093
0.101278
0.107696
0.0961878
0.0936299
0.0961764
0.103598
0.0920275
0.101044
0.0944259
0.102634
0.101203
0.0864558
0.100442
0.097063
0.0959598
0.0938665
0.106682
0.105764
0.0986942
0.0900873
0.094154
0.0920453
0.0881681
0.0894309
0.0951077
0.0900246
0.0993212
0.0879379
0.119414
0.09911
0.1078
0.107118
0.105614
0.108171
0.0960004
0.104224
0.090742
0.110926
0.091161
0.102061
0.0930126
0.0940051
0.0930202
0.0967537
0.128968
0.0921751
0.0885624
0.103686
0.105837
0.109375
0.100642
0.107141
0.116602
0.115969
0.108497
0.0913274
0.0943833
0.104045
0.107868
0.0867527
0.103496
0.107432
0.107675
0.111748
0.104539
0.0884932
0.103159
0.0872275
0.100082
0.0875554
0.0883096
0.0917147
0.0865293
0.0968493
0.114036
0.0896572
0.0858
0.098426
0.0879956
0.0856794
0.0867799
0.0954453
0.101956
0.0881463
0.097273
0.109789
0.12429
0.12156
0.139245
0.119985
0.136945
0.11242
0.129765
0.0984506
0.12114
0.0968029
0.115465
0.125445
0.12576
0.104068
0.10976
0.117785
0.114625
0.128465
0.111366
0.109505
0.110845
0.117585
0.127165
0.12009
0.109205
0.110635
0.134685
0.107184
0.118085
0.112
0.107875
0.106005
0.109005
0.108205
0.106281
0.117885
0.118785
0.109605
0.11053
0.106402
0.109475
0.107905
0.107705
0.110425
0.106605
0.11179
0.104644
0.105485
0.11515
0.121035
0.13059
0.108705
0.118885
0.121245
0.106805
0.105905
0.113995
0.10393
0.10496
0.106405
0.104435
0.107805
0.10538
0.107105
0.10517
0.107505
0.113575
0.103175
0.10559
0.117485
0.126965
0.107005
0.118585
0.102088
0.116185
0.104431
0.114205
0.10328
0.109405
0.102121
0.108905
0.100861
0.116085
0.106705
0.119085
0.10433
0.104225
0.11221
0.111685
0.0996719
0.108605
0.108505
0.117085
0.10391
0.0988844
0.101075
0.100865
0.099896
0.109305
0.10139
0.099225
0.119585
0.114835
0.106305
0.10307
0.0980727
0.101071
0.098225
0.104855
0.107205
0.101285
0.0983889
0.11305
0.097625
0.100445
0.099625
0.102755
0.099825
0.102335
0.096425
0.10349
0.106205
0.097325
0.103385
0.097125
0.096325
0.096925
0.111265
0.097425
0.097025
0.094245
0.103805
0.105275
0.099525
0.09477
0.0936692
0.099421
0.100235
0.108005
0.09561
0.100025
0.10202
0.0930864
0.093195
0.0930526
0.102965
0.10265
0.099725
0.094455
0.092565
0.0949726
0.095925
0.100655
0.0938384
0.10076
0.097925
0.101705
0.09456
0.117185
0.097825
0.104645
0.093825
0.0920362
0.0942451
0.09498
0.098725
0.0917363
0.092145
0.0946417
0.101495
0.095295
0.098525
0.09267
0.098125
0.097225
0.0944326
0.0922145
0.0954
0.0898507
0.099325
0.112315
0.098025
0.0905868
0.098925
0.0914966
0.09519
0.093615
0.0888948
0.0906103
0.102125
0.09078
0.0937162
0.091515
0.0886844
0.09582
0.09141
0.091305
0.0936112
0.087345
0.0883075
0.090465
0.0933857
0.096825
0.102149
0.089545
0.086545
0.094035
0.097525
0.087845
0.09099
0.086645
0.087545
0.09162
0.151878
0.138946
0.133219
0.123926
0.146188
0.120975
0.123579
0.138531
0.128949
0.118532
0.167145
0.147631
0.154785
0.139336
0.151747
0.160871
0.138453
0.117038
0.128521
0.143283
0.115089
0.116349
0.129196
0.122979
0.141044
0.151282
0.134934
0.135173
0.124368
0.142653
0.139334
0.15623
0.132165
0.160825
0.125565
0.119213
0.111801
0.153657
0.116159
0.163478
0.130611
0.138776
0.122976
0.117991
0.113392
0.12856
0.119221
0.132407
0.120133
0.114508
0.163389
0.155121
0.163963
0.135672
0.115607
0.152601
0.134923
0.133676
0.134872
0.118895
0.112616
0.13344
0.135786
0.120393
0.123902
0.154228
0.136507
0.126456
0.1292
0.14384
0.136541
0.125743
0.130055
0.153339
0.130216
0.155037
0.125191
0.132855
0.11678
0.141107
0.118011
0.120375
0.117498
0.116542
0.145359
0.138057
0.164563
0.11985
0.116549
0.124113
0.140033
0.150534
0.146735
0.121097
0.138859
0.126305
0.16231
0.141306
0.13414
0.160693
0.149613
0.157449
0.116988
0.153309
0.117847
0.123995
0.148721
0.134488
0.155024
0.12537
0.13824
0.121161
0.152032
0.119126
0.15056
0.138623
0.118381
0.135372
0.142059
0.125357
0.115582
0.128543
0.144994
0.112091
0.130137
0.153301
0.157206
0.116134
0.138557
0.154977
0.151425
0.113761
0.12096
0.153345
0.112647
0.165628
0.143757
0.117563
0.163544
0.129333
0.118971
0.126103
0.135454
0.175068
0.137056
0.117951
0.132176
0.152
0.139755
0.112668
0.158735
0.129721
0.171388
0.178117
0.124521
0.149512
0.113942
0.118131
0.112028
0.150332
0.121879
0.115556
0.123051
0.148212
0.116389
0.137816
0.125805
0.121782
0.16481
0.110664
0.13289
0.163333
0.115566
0.137039
0.112621
0.140529
0.129123
0.148498
0.152362
0.132817
0.120488
0.140194
0.166262
0.134096
0.12659
0.115265
0.122214
0.127805
0.135432
0.121723
0.154996
0.150048
0.161156
0.149607
0.143274
0.154837
0.130002
0.16016
0.173306
0.155472
0.150396
0.138038
0.126795
0.113241
0.113611
0.14851
0.168591
0.179665
0.18101
0.183005
0.177865
0.119664
0.17429
0.148369
0.164815
0.16578
0.166485
0.185735
0.160626
0.16431
0.170262
0.166094
0.1703
0.163477
0.124948
0.17219
0.167285
0.15997
0.162315
0.186045
0.160719
0.125387
0.159805
0.170688
0.16536
0.18248
0.139182
0.169985
0.16221
0.170825
0.159077
0.16179
0.165465
0.172085
0.16074
0.16557
0.163785
0.171035
0.162
0.159105
0.176465
0.158905
0.184475
0.158922
0.159205
0.159705
0.165255
0.112377
0.182476
0.155592
0.157905
0.175965
0.144013
0.16158
0.14786
0.167085
0.119548
0.156105
0.157005
0.154225
0.157605
0.156005
0.167685
0.136821
0.157805
0.158052
0.155905
0.162418
0.161685
0.167099
0.153884
0.169685
0.15517
0.160635
0.169385
0.159405
0.156805
0.173555
0.152657
0.161895
0.157205
0.16263
0.162105
0.155275
0.177565
0.123109
0.154179
0.152646
0.152838
0.158805
0.163155
0.109873
0.156405
0.15559
0.15454
0.150655
0.151062
0.152335
0.149225
0.18017
0.160425
0.153175
0.158705
0.148132
0.154645
0.143905
0.148725
0.153595
0.150445
0.157405
0.171875
0.166685
0.149583
0.161475
0.148393
0.15013
0.174395
0.155065
0.156705
0.149236
0.151688
0.151705
0.16032
0.165675
0.156205
0.153385
0.153913
0.145085
0.162945
0.158405
0.15076
0.163179
0.154855
0.1558
0.15391
0.159605
0.148925
0.146925
0.15475
0.149525
0.14689
0.145715
0.149425
0.147725
0.146525
0.143312
0.14435
0.159505
0.118984
0.1516
0.14183
0.15433
0.143448
0.149625
0.146325
0.146975
0.14351
0.158205
0.14204
0.161576
0.143615
0.164415
0.147625
0.144455
0.160845
0.12054
0.148825
0.14288
0.14162
0.14309
0.14519
0.145413
0.14267
0.14456
0.14477
0.140885
0.16011
0.126457
0.14225
0.160005
0.1095
0.146625
0.143705
0.165885
0.145295
0.150441
0.147425
0.157305
0.142225
0.141208
0.146725
0.148525
0.15097
0.150235
0.138545
0.140255
0.14057
0.139145
0.119563
0.140465
0.112638
0.146425
0.113053
0.138245
0.136153
0.142355
0.112079
0.146825
0.142456
0.14036
0.139045
0.138945
0.139845
0.137145
0.137745
0.136144
0.132033
0.141319
0.140675
0.132585
0.1433
0.168585
0.148625
0.13374
0.134895
0.141725
0.138445
0.134287
0.134694
0.13226
0.144665
0.118498
0.130462
0.144158
0.138745
0.135109
0.141305
0.13017
0.13269
0.11653
0.148425
0.131192
0.14498
0.133845
0.134265
0.114834
0.133393
0.145925
0.13353
0.15538
0.149125
0.138845
0.137945
0.13122
0.127789
0.136745
0.133335
0.135319
0.132165
0.141095
0.143195
0.128765
0.14015
0.134475
0.136445
0.131969
0.13416
0.1329
0.142141
0.126429
0.126496
0.130757
0.129465
0.15181
0.127334
0.126465
0.140045
0.136345
0.127465
0.125235
0.133215
0.130065
0.135945
0.13185
0.128979
0.125748
0.137645
0.124145
0.133526
0.142145
0.127765
0.127665
0.12408
0.128769
0.109474
0.131955
0.13038
0.128165
0.152545
0.128565
0.12534
0.135735
0.127265
0.131115
0.124571
0.124413
0.127477
0.124105
0.12513
0.114494
0.13332
0.123975
0.126565
0.131535
0.127865
0.128179
0.139945
0.123236
0.123408
0.12492
0.129867
0.135105
0.139645
0.125025
0.123555
0.111233
0.125402
0.119285
0.12324
0.132375
0.13164
0.123109
0.12471
0.134055
0.126265
0.129665
0.127965
0.136845
0.14561
0.1224
0.126365
0.1203
0.135
0.116785
0.137445
0.116385
0.137245
0.116587
0.118985
0.12555
0.129365
0.12282
0.128965
0.116485
0.119385
0.120825
0.119681
0.12219
0.116637
0.116012
0.117385
0.125655
0.116285
0.11473
0.123765
0.121665
0.111895
0.115675
0.112525
0.13458
0.12051
0.11494
0.112585
0.1245
0.117876
0.115985
0.12072
0.122295
0.117285
0.112916
0.132795
0.137045
0.11347
0.119185
0.114352
0.11263
0.127065
0.11368
0.112735
0.108805
0.11116
0.1141
0.110195
0.11158
0.108075
0.110215
0.117685
0.112945
0.118685
0.112105
)


// ************************************************************************* //
