/*--------------------------------*- C++ -*----------------------------------*\
  =========                 |
  \\      /  F ield         | OpenFOAM: The Open Source CFD Toolbox
   \\    /   O peration     | Website:  https://openfoam.org
    \\  /    A nd           | Version:  7
     \\/     M anipulation  |
\*---------------------------------------------------------------------------*/
FoamFile
{
    version     2.0;
    format      ascii;
    class       labelField;
    location    "0.7/lagrangian/reactingCloud1";
    object      cellId;
}
// * * * * * * * * * * * * * * * * * * * * * * * * * * * * * * * * * * * * * //


2449
(
2858
2872
2806
2681
2658
2524
2481
2385
2320
2270
2221
2056
1974
1963
1854
1790
1736
1585
1504
1431
1369
1321
1267
1185
1110
1051
964
955
894
836
753
724
636
551
486
428
363
281
258
191
85
26
861
2566
1133
3172
3239
2491
2834
3520
3522
3529
3319
3322
3406
3043
2905
3122
3132
2909
2916
2848
2930
2498
2950
2802
2732
2502
2585
2589
2227
2228
2547
1952
2159
2171
2339
2187
2095
1957
1892
1989
1824
1760
1686
1621
1637
1558
1491
1506
1349
1207
1291
1156
1261
1098
1029
961
834
908
754
601
455
483
565
331
262
207
44
138
7
6678
5003
5578
4734
4449
4164
1694
1717
1288
1221
1041
970
820
745
699
618
558
585
398
333
348
167
58
9265
7584
5369
4248
3673
2575
2320
1716
1160
312
325
9207
9468
8616
9181
8915
7534
7239
6695
5556
4711
1661
814
530
279
528
554
260
9074
9413
8291
8282
6311
7481
7166
6600
6324
6355
4927
4115
3806
3532
3273
1866
1049
189
9579
9608
9350
9056
8756
8483
7947
6524
6829
6243
5968
5970
5704
5142
4878
4857
4601
4296
3197
2343
1251
673
667
415
400
405
111
9017
9833
9547
9249
9265
8969
8976
8696
8446
7860
7870
7592
7301
6745
6458
6491
6205
5326
5343
5351
4779
4511
3937
4265
3385
3391
2538
2544
2272
2272
2282
2005
2016
1388
1432
1463
1440
1187
862
601
606
336
62
9503
8108
5039
2807
1970
6155
9430
9725
8883
8608
9466
9176
9479
9494
8329
8621
8665
8338
8923
8370
8066
8059
8108
7792
7787
7794
6362
7523
7244
7231
6985
6698
6384
6958
6388
5819
6388
6411
4931
6125
4974
5851
5570
5560
4710
5009
5011
4456
3888
3904
3604
3307
3349
3072
3335
2749
3053
2761
2188
2237
2214
1915
1930
1337
1363
1382
1389
1380
1091
1078
831
519
530
553
7757
8873
8036
9431
4130
3851
9710
9710
7478
4130
3293
2456
1340
5804
1061
8200
9388
9666
9388
9674
8245
8532
9110
8828
9128
8563
8583
8576
8020
7724
7727
7445
6887
6615
5145
6031
6315
6628
6350
5760
6055
5795
5494
5509
5510
4610
4913
5222
4629
5225
4340
4948
4356
4951
4660
4670
4080
4085
4398
3497
3510
3519
3836
3268
3277
3009
2983
2721
2394
2397
2413
1589
1287
1290
1320
1015
1022
1030
1040
726
414
454
485
182
180
5732
6569
5453
7964
4337
9638
5732
6569
5453
8243
6848
3221
2942
9359
3779
4895
7964
7964
8243
2105
9638
3500
9638
2663
3779
6011
2105
4616
6011
9080
4337
989
2105
989
9080
989
6569
2384
989
5174
8801
8974
8120
7406
9299
9319
9608
9327
8755
9060
9032
9342
7930
8211
8503
7051
7645
7064
7928
7364
7652
7644
7088
7959
7681
7366
7096
6823
6247
5174
6549
5678
4822
5426
5133
152
3986
4566
4286
4583
1826
4295
4304
3712
4027
3434
3421
4027
3149
3749
3467
3174
2865
3182
2880
3199
2596
2908
2919
2622
2324
2026
2357
2073
2063
2077
2077
1789
1798
1265
952
949
681
674
381
398
385
417
118
114
105
5939
3707
7334
7334
7055
8171
5102
7055
5939
7334
4823
7892
8171
4265
9008
9008
5381
2870
2870
9566
8450
8450
2033
7055
7892
5102
1754
8729
3986
7892
5381
7613
8729
5660
8729
4544
2312
6775
1196
6776
2033
1754
6776
4544
5381
9287
7613
2033
9566
917
6218
9566
9566
6776
917
9287
5381
6497
9287
5102
5939
8450
638
8450
8450
7613
359
9008
5939
359
3707
9566
8450
3707
9430
9161
80
9509
9802
9242
8450
8658
9544
9226
7229
9248
8691
9258
7786
8974
8392
8664
9282
9278
7828
8696
7824
6977
8427
7552
6364
8166
7839
5798
7255
7572
7587
6998
7873
6115
7297
7874
7569
7593
7606
6441
7324
7028
7330
6748
6168
6453
6759
5894
5889
6480
6487
5895
6187
5596
5610
6492
5887
6191
5050
5911
5918
5625
5340
5645
4198
4183
5363
5365
4771
4196
4503
4497
3871
4218
3902
4256
3948
3957
3652
3980
3658
3375
3687
3689
3365
3393
3696
3381
3391
3402
2463
2812
3120
2480
3130
2552
2545
2567
2249
2291
2284
2310
1680
1990
2004
2012
1718
1418
1416
1452
1153
1139
1063
1468
1145
880
828
834
896
588
630
637
305
346
314
311
72
60
9
5588
6704
8936
6983
5309
8099
7541
9773
7262
9773
8936
3356
8099
7262
4751
8657
7262
9494
6425
5030
7262
2519
7541
7541
5588
4193
9494
3635
2240
7820
3356
5309
9494
5867
5867
4472
3635
7820
7262
5030
7820
5309
8099
8099
8657
6146
6983
8099
9494
2798
5309
2240
8099
7820
6983
7262
9215
8099
6704
9773
3914
5309
9494
4751
7262
5867
2240
9215
3635
8099
7820
1682
7820
7541
4193
4193
5309
6095
4472
6983
6146
6146
7541
1682
8099
7262
7541
2798
5030
5867
8099
5867
8378
4751
8657
7262
7262
8099
1682
1403
7820
6983
5030
8378
8378
6146
9215
9215
1403
5867
8657
2519
9494
1403
8099
1961
6425
8378
6704
9494
4751
1961
8936
4751
5030
5588
9494
8378
1682
9773
1124
1682
6983
8936
6425
5309
5309
9773
845
9773
3635
9494
6983
1124
845
3914
4751
9215
6146
4751
1403
8936
5588
3914
4193
1403
3077
5588
5867
3077
4193
6146
5030
2519
4193
3635
1961
566
566
7541
5867
2519
7262
9494
4472
8657
287
2798
3077
7262
3077
1682
1682
1124
6704
5588
7262
3356
287
4751
3635
5309
2240
4193
3914
7541
8
8
3914
8
8
7541
5030
9674
8
9131
9121
9724
566
9714
9733
9737
9467
9447
9461
9453
9493
9467
9450
9483
8908
7541
8917
8923
8322
6872
8057
8345
7155
8332
6581
8071
7449
8046
7782
7501
6620
6704
7529
6602
6338
7262
7527
7523
8
7207
6923
6965
6653
6960
6375
6689
5174
6101
6420
6698
6104
5826
5800
5807
5200
6096
3635
5815
6136
5830
5826
5247
4636
5846
4389
5572
5586
5555
5576
4407
5564
4040
5006
4386
4989
5022
4987
4684
4747
4392
3779
4426
3771
4105
4127
4451
4144
4156
4441
4193
4469
4193
3238
4168
4183
3871
3556
3876
3557
1403
3326
3302
3620
3017
3326
3318
3340
3332
2376
2753
3058
2154
2438
2477
2166
2511
2193
1939
2215
2222
1577
1942
1662
966
1351
1403
1375
1381
1114
1098
565
747
831
823
834
481
822
498
549
490
473
246
252
5
206
245
4679
6353
3284
9701
3005
6632
5795
6074
9143
5794
9422
9382
3284
5237
7748
4679
2726
8585
6911
7469
6911
2726
5237
7190
6074
9701
8864
8027
8864
6353
8027
3842
9422
5237
3842
2168
2168
4121
8027
6353
2447
4679
5237
6632
6353
5795
3005
5795
9701
3005
2447
9422
2447
6632
7748
8306
9701
9422
4679
6632
1889
2168
2726
8864
5516
2168
2168
1889
6353
9701
7748
1610
8864
1610
5516
9422
4400
3284
6632
6911
2447
7748
3284
6632
4121
9422
8027
1610
6632
3842
1331
8027
3284
6074
9143
4958
4400
8027
2447
5795
5237
8306
3284
1331
7469
7748
5795
3284
8864
4121
1331
7748
8864
9143
5237
6911
4679
8585
1052
1052
4400
9143
1052
4679
5516
7469
2726
6911
2447
7469
3284
5516
2168
9422
3284
9701
773
3284
773
8306
6911
5237
8027
8027
1331
4121
773
3842
1610
7748
773
5516
773
6632
9143
1889
4958
3005
7190
3563
1610
3284
8864
5516
7190
1331
4121
4958
1610
8306
1610
494
2168
3284
494
2447
6632
2726
3842
6911
215
1331
4958
8864
1331
215
7748
5795
8306
6911
215
6911
1610
1610
215
9789
6353
8945
9812
9595
773
9607
8719
9605
9314
9020
8417
9701
9644
9634
9034
9061
9650
9377
9693
8174
9649
215
9699
7257
8799
8864
8027
7582
9124
9128
8824
8585
8250
8842
2168
8558
6750
7351
7986
7703
7995
8022
7981
6778
7390
7700
7085
6809
7681
7717
7142
7463
6835
6860
7184
7381
7180
6528
6911
7171
6865
6877
6623
6329
6039
5430
6032
6024
6073
4199
6065
5471
6017
5769
2447
5447
5488
5175
5193
5235
5202
5186
5203
5207
4876
4918
4905
4618
4919
4636
4650
4647
4659
3697
4656
4366
4398
4329
4044
4082
3776
3490
3766
4040
4397
4085
4120
3788
3840
3463
3154
3778
3171
3508
3537
3483
3526
3540
3558
2938
3262
2979
2977
2671
2957
2666
2724
1975
2404
2403
2376
2431
2426
2097
2063
2139
2140
1825
1551
1884
1550
1541
1276
1274
1306
965
682
698
215
469
474
155
182
7676
8234
3770
4886
4607
4328
3770
6839
3491
3491
2096
7676
7955
2654
6560
7397
3770
1817
7397
8234
5444
8792
4607
8513
8234
5444
7676
5444
7397
8234
1817
8792
8513
8513
5723
2375
1817
4607
8234
6002
2375
2933
3491
1259
8513
6002
3770
7118
7676
4607
7118
6839
5444
4049
7118
5723
8234
1259
1538
7676
1817
1259
9071
2933
1538
4886
6281
6560
4607
6281
8234
6839
2375
7118
5723
2933
2933
5165
2096
2933
2933
4607
5723
3491
4049
8234
4049
4886
5723
7397
2654
7397
980
4328
6002
4607
9071
9629
7955
4328
3212
6839
3770
9350
4886
9629
5723
3212
6002
8513
3491
6839
2375
4886
7118
980
6839
4049
5444
3770
7397
1538
2096
3491
3491
4049
701
2096
5165
701
6839
701
9071
2654
7118
7955
7676
9629
2375
7118
3770
9629
2375
4049
3770
3212
4049
2654
9629
4049
701
8234
9071
7397
7397
9350
9350
8792
9629
1817
4886
8513
9350
422
6839
7397
3212
9350
8513
422
7676
422
4328
422
422
3770
422
4607
9071
2375
422
4328
143
143
980
3491
6839
1817
4049
9071
9721
9768
9739
9741
9749
9519
9433
4328
9465
3491
9217
9182
9522
8792
9813
9226
8894
8908
9615
9590
9345
9280
8609
7839
9572
9299
8323
9615
8652
9272
9331
9338
8988
8661
8729
8702
8374
9047
8992
9050
8742
8692
9017
8467
9062
8047
8779
8761
8425
8141
7476
8426
7779
7820
7782
8472
7481
8780
7852
8492
8219
7890
7861
7896
7933
7925
6955
7872
7657
7238
7004
7642
7279
7350
6683
7367
6699
7640
6719
7077
7345
7396
6700
7100
6760
6787
7076
7063
7100
7078
6388
6513
6135
6485
6469
6224
6483
6538
5238
6526
6251
5846
5850
5717
5933
5980
5970
5986
5646
5328
5685
5999
4986
5699
5698
5666
5354
5706
5392
5134
4795
4799
5693
5093
5129
4175
4855
4491
4498
4882
4584
4164
4581
4210
4602
143
4044
4555
3564
3949
3930
4300
4289
4049
4298
3658
4004
3664
4038
4038
3491
4018
3704
4028
3690
3601
3755
3713
3362
3136
3405
3439
3470
3430
3148
2784
3175
3198
3211
2777
3182
3190
2827
2560
2238
2601
2645
2638
2653
2633
2150
2327
2347
2326
2364
2076
1668
2080
1708
1661
1751
1722
1779
1771
1358
1530
1481
1439
1474
980
1511
143
1050
1256
965
977
979
296
416
97
105
131
76
8720
6209
5930
3419
7046
2303
3977
6488
5093
2582
9278
7046
8720
6767
8441
8999
5651
2582
5093
7604
1187
1745
4535
908
6767
8720
6209
6488
3419
5651
5930
8720
5372
8441
4535
2582
908
8441
1187
8999
5651
6767
3419
2582
908
4256
2861
4535
1745
1466
9557
8720
9836
4535
2303
8441
5093
5651
5651
2303
908
4535
6209
2303
629
7883
6209
3977
3140
6767
5651
3140
5372
7604
4535
8999
3698
1466
1466
5093
2303
2582
629
908
6488
6488
9557
1187
629
1187
5930
7604
2861
2582
4814
3140
9836
7046
5093
9836
7883
8999
2303
8999
1466
3977
8441
5093
4814
3419
6209
3140
8162
1466
8162
6209
3140
6209
6488
3698
1745
3419
7325
1466
5093
8999
8999
629
2582
8999
8441
350
3140
8162
350
9836
6209
2024
9836
4535
1187
3698
5651
7604
6488
629
4814
8999
6209
908
8441
3140
9278
9836
3419
7604
350
1187
629
7604
3419
629
3140
5930
2303
5930
4256
2024
9278
350
5651
8441
1187
3419
350
5651
5093
8162
8441
5930
3419
7046
8999
5930
4535
2024
3419
2581
5093
629
7604
8162
9278
7046
7325
9278
3977
5651
9836
8999
5930
6209
4535
1187
1187
7325
9610
9630
9341
9351
9041
2303
9027
8441
9836
9662
9390
9671
8720
9358
9453
9372
9081
9383
3977
9344
9790
9773
9821
9094
9769
908
9796
8502
9813
9423
6488
8501
9107
9554
9507
9768
9511
9454
9078
9236
9498
8787
9481
9486
8511
9500
8519
9555
9523
8817
9176
71
8810
9257
9200
9152
7604
8856
4256
8853
3419
9111
9152
9204
9224
9234
9239
5372
8981
8985
8955
8861
8543
8981
8999
9151
8306
8997
8901
8926
8684
7635
8932
8259
8689
8259
8938
8665
7959
3977
7957
8718
8321
7671
8573
71
8351
8425
8362
8410
7667
8397
8430
7672
7976
8406
8416
7325
8090
6209
8402
8429
8379
8099
8061
8406
8100
8360
8054
8065
7400
7771
8155
8136
8135
8077
7761
7750
7415
7746
7883
7753
7843
7459
7868
7835
7433
7426
7835
6796
7162
7871
7427
7816
7151
7557
7783
7573
7841
7256
7550
7204
1745
7490
7498
7211
7215
7588
7278
7312
6983
7263
7304
6574
7259
6576
6954
6920
5991
3140
7021
6963
7005
6937
7026
7025
6740
7246
6688
6728
7000
3698
6764
6661
71
7010
6702
5106
6699
5682
6725
6670
6766
6408
6713
6706
6652
6411
6429
6475
6760
6451
2861
6465
71
6168
71
6476
6154
6069
350
6446
6182
5779
5772
6185
6180
5905
5912
5902
5913
6192
5798
5913
5905
4550
5529
5623
5613
5532
5634
5651
5602
5648
5182
1745
5358
5291
5213
5298
5263
5346
5356
2024
5234
5363
5279
5361
5002
2024
4955
4642
5069
4318
4976
5085
4996
5077
5073
5022
4744
5083
4668
5011
4729
4797
4700
4769
4739
4806
4370
4508
4368
4463
3977
4386
4452
3747
4462
4534
4442
4449
4515
4496
4433
4219
4464
4388
4254
4239
4111
4248
4174
3730
3965
3816
3952
3843
71
3879
3187
3639
3540
3974
3551
3563
3658
3606
3387
3697
3652
2582
3353
71
3232
3633
3620
3613
3399
3417
2946
3384
3333
3380
3268
3265
3287
3080
2946
908
3301
3410
3122
2998
2960
3006
2753
2709
2810
2742
2765
2734
2040
2561
2766
2487
2497
2265
2121
2287
1818
1991
2007
1892
1905
1927
1969
1723
1703
1542
1745
1550
1461
1420
1433
1286
1428
1654
1648
1354
1465
1146
1112
989
1092
1159
1144
872
903
1060
850
1111
892
903
713
760
577
823
629
595
539
555
311
325
312
316
349
262
304
45
241
45
111
28
)


// ************************************************************************* //
