/*--------------------------------*- C++ -*----------------------------------*\
  =========                 |
  \\      /  F ield         | OpenFOAM: The Open Source CFD Toolbox
   \\    /   O peration     | Website:  https://openfoam.org
    \\  /    A nd           | Version:  7
     \\/     M anipulation  |
\*---------------------------------------------------------------------------*/
FoamFile
{
    version     2.0;
    format      ascii;
    class       scalarField;
    location    "0.7/lagrangian/reactingCloud1";
    object      cellDensity;
}
// * * * * * * * * * * * * * * * * * * * * * * * * * * * * * * * * * * * * * //


2449
(
0.250679
0.250743
0.250451
0.250024
0.249675
0.249058
0.249523
0.248146
0.248142
0.248868
0.249119
0.247997
0.246338
0.248796
0.247862
0.247977
0.248294
0.247829
0.247377
0.247212
0.247501
0.247919
0.24806
0.247888
0.247795
0.247888
0.247712
0.247624
0.247717
0.247795
0.247733
0.247915
0.247832
0.247793
0.247809
0.247835
0.247845
0.247837
0.247876
0.24787
0.247859
0.247861
0.251774
0.253835
0.251856
0.251493
0.251154
0.253326
0.253017
0.249641
0.249602
0.249237
0.250895
0.250732
0.249475
0.252471
0.252959
0.2516
0.251046
0.25304
0.252601
0.252835
0.251805
0.253934
0.25113
0.251918
0.252184
0.253963
0.253003
0.252805
0.254237
0.254263
0.252152
0.253563
0.254238
0.25378
0.252532
0.253091
0.254185
0.254178
0.254056
0.252996
0.254003
0.253826
0.253874
0.253794
0.253322
0.253631
0.253559
0.253106
0.253577
0.253027
0.253306
0.253166
0.252447
0.25279
0.252746
0.252666
0.252265
0.252247
0.252473
0.252957
0.252909
0.251949
0.251798
0.252227
0.252071
0.251405
0.251387
0.251238
0.251259
0.211164
0.217117
0.218272
0.220622
0.220766
0.220648
0.225173
0.227309
0.233787
0.234952
0.237418
0.238358
0.24061
0.241857
0.241653
0.242945
0.243324
0.242718
0.24556
0.2463
0.245639
0.246568
0.248479
0.177704
0.181947
0.189758
0.193178
0.194092
0.198713
0.200549
0.201145
0.202111
0.34145
0.204768
0.165189
0.165098
0.204926
0.166469
0.165282
0.165903
0.166049
0.166409
0.167491
0.195661
0.172671
0.174137
0.177173
0.176062
0.183732
0.175294
0.175444
0.371967
0.163749
0.163845
0.163811
0.219407
0.164044
0.163928
0.164936
0.164157
0.164122
0.164554
0.164314
0.172243
0.164651
0.164395
0.164572
0.164763
0.164938
0.305966
0.162569
0.162646
0.162605
0.190601
0.167199
0.162742
0.187781
0.162851
0.198416
0.177694
0.170145
0.162938
0.163017
0.163091
0.163928
0.163135
0.168408
0.163267
0.166788
0.163552
0.163722
0.171208
0.163659
0.163587
0.163609
0.16561
0.16219
0.162131
0.162116
0.178424
0.162123
0.18111
0.164445
0.165572
0.162194
0.163704
0.162156
0.162165
0.164369
0.162746
0.177296
0.162253
0.16224
0.260227
0.172615
0.162415
0.193663
0.16306
0.217996
0.162359
0.187465
0.167484
0.244237
0.205326
0.174549
0.174549
0.162432
0.162403
0.162426
0.366458
0.184758
0.162484
0.163352
0.162514
0.261585
0.164961
0.162593
0.162517
0.162562
0.161997
0.162012
0.162057
0.162099
0.162118
0.162039
0.30954
0.228432
0.249424
0.231416
0.170754
0.196995
0.162021
0.161992
0.231166
0.187626
0.162006
0.198691
0.161992
0.161993
0.179055
0.198257
0.162012
0.168198
0.178581
0.165259
0.309016
0.162057
0.16205
0.173111
0.162024
0.162017
0.198875
0.163551
0.186657
0.224514
0.186657
0.162008
0.358945
0.162149
0.265163
0.162017
0.162032
0.165362
0.196337
0.1621
0.162045
0.16203
0.16269
0.162051
0.167682
0.226612
0.16207
0.16208
0.162075
0.226098
0.162201
0.180748
0.241304
0.162101
0.16237
0.211494
0.165673
0.337564
0.187843
0.162086
0.16209
0.162114
0.168181
0.210469
0.162103
0.214312
0.174449
0.162114
0.161944
0.16194
0.161943
0.161939
0.161961
0.161963
0.161938
0.161938
0.161945
0.161961
0.161967
0.161973
0.161981
0.161952
0.161984
0.362097
0.19948
0.202223
0.19948
0.185098
0.287496
0.254901
0.196788
0.203379
0.165472
0.174346
0.161961
0.162255
0.162054
0.176489
0.171486
0.176056
0.17519
0.164875
0.355011
0.218378
0.204804
0.161963
0.161956
0.196436
0.166401
0.161952
0.169765
0.161982
0.161971
0.323864
0.223235
0.162728
0.240231
0.162173
0.283249
0.162036
0.219407
0.161975
0.164857
0.162
0.209967
0.196364
0.161957
0.313486
0.251307
0.218398
0.161964
0.162431
0.161968
0.161967
0.166317
0.161965
0.250789
0.238487
0.188693
0.163838
0.215599
0.206026
0.161985
0.194079
0.177127
0.164181
0.161992
0.225491
0.352206
0.201728
0.161977
0.182428
0.187381
0.16195
0.161962
0.161948
0.161993
0.16194
0.162067
0.16195
0.161962
0.161948
0.162002
0.161966
0.161936
0.161936
0.16205
0.161938
0.161943
0.161993
0.161993
0.162002
0.161935
0.162067
0.161937
0.162067
0.161935
0.161938
0.161954
0.161935
0.161941
0.161954
0.162035
0.16194
0.161936
0.161935
0.161936
0.162035
0.161936
0.161962
0.161935
0.161936
0.161945
0.162023
0.347959
0.362761
0.161978
0.261232
0.210373
0.19079
0.19388
0.223264
0.173607
0.228876
0.170107
0.194873
0.191617
0.171369
0.302688
0.206754
0.267427
0.198846
0.210688
0.19241
0.20899
0.20343
0.162106
0.162046
0.206177
0.187685
0.177228
0.21074
0.161945
0.169779
0.238624
0.296243
0.178096
0.204052
0.161937
0.293663
0.225199
0.227444
0.186962
0.161935
0.204783
0.186504
0.277639
0.182498
0.274109
0.313488
0.182498
0.293965
0.180348
0.185152
0.214793
0.308941
0.196383
0.25976
0.167787
0.27709
0.186096
0.168649
0.199745
0.252125
0.315264
0.173422
0.181177
0.201061
0.174541
0.174541
0.190089
0.174127
0.161938
0.188786
0.194957
0.174036
0.186393
0.21825
0.180367
0.20787
0.162082
0.181752
0.189503
0.209957
0.176361
0.16519
0.186607
0.186607
0.18446
0.19319
0.171145
0.18446
0.176361
0.186607
0.169646
0.19098
0.19319
0.167093
0.199832
0.199832
0.172774
0.163474
0.163474
0.204218
0.195406
0.195406
0.162674
0.18446
0.19098
0.171145
0.162516
0.197621
0.166059
0.19098
0.172774
0.188784
0.197621
0.174518
0.197621
0.168291
0.162875
0.182479
0.162292
0.182351
0.162674
0.162516
0.182351
0.168291
0.172774
0.202032
0.188784
0.162674
0.204218
0.162218
0.17829
0.204218
0.204218
0.182351
0.162218
0.202032
0.172774
0.18029
0.202032
0.171145
0.176361
0.195406
0.162163
0.195406
0.195406
0.188784
0.162122
0.199832
0.176361
0.162122
0.16519
0.204218
0.195406
0.16519
0.359763
0.352453
0.162091
0.270529
0.250548
0.251859
0.195406
0.290394
0.220577
0.27606
0.335257
0.242826
0.239321
0.228341
0.335629
0.234325
0.270277
0.281455
0.203265
0.20563
0.279128
0.23168
0.285437
0.300672
0.215805
0.273969
0.361339
0.194718
0.261187
0.367404
0.302082
0.240315
0.215922
0.26644
0.207223
0.334507
0.23258
0.205882
0.24538
0.207033
0.191898
0.26375
0.192719
0.214811
0.187819
0.215137
0.252247
0.242021
0.198071
0.242184
0.251574
0.196512
0.187277
0.240311
0.217734
0.277125
0.250894
0.182417
0.255324
0.210875
0.253459
0.211291
0.199664
0.222569
0.232797
0.189072
0.281787
0.308476
0.192135
0.189095
0.252824
0.285606
0.229871
0.24199
0.350061
0.241175
0.31194
0.174108
0.221786
0.204376
0.256624
0.169619
0.243786
0.251711
0.187517
0.184345
0.273156
0.21356
0.174313
0.238673
0.217592
0.196516
0.362491
0.261614
0.200802
0.348362
0.18359
0.218508
0.233835
0.189552
0.272059
0.183505
0.19552
0.163099
0.295738
0.225179
0.196258
0.182473
0.208936
0.256703
0.26157
0.183678
0.222128
0.256117
0.367329
0.164014
0.241248
0.207845
0.324035
0.313933
0.178699
0.237216
0.163515
0.162181
0.24673
0.166964
0.224156
0.231481
0.16308
0.175145
0.289604
0.243642
0.249584
0.260156
0.250998
0.242082
0.256384
0.253744
0.263717
0.252385
0.263717
0.260156
0.230276
0.256384
0.252385
0.238869
0.258923
0.252385
0.262553
0.248142
0.240491
0.252385
0.224725
0.253744
0.253744
0.243642
0.235529
0.262553
0.23206
0.222809
0.255077
0.230276
0.242082
0.262553
0.245172
0.245172
0.237215
0.23206
0.255077
0.252385
0.240491
0.255077
0.242082
0.256384
0.256384
0.258923
0.246672
0.250998
0.256384
0.262553
0.226609
0.242082
0.222809
0.256384
0.255077
0.250998
0.252385
0.261366
0.256384
0.249584
0.263717
0.233811
0.242082
0.262553
0.238869
0.252385
0.245172
0.222809
0.261366
0.23206
0.256384
0.255077
0.21888
0.255077
0.253744
0.235529
0.235529
0.242082
0.27674
0.237215
0.250998
0.246672
0.246672
0.253744
0.21888
0.256384
0.252385
0.253744
0.226609
0.240491
0.245172
0.256384
0.245172
0.257666
0.238869
0.258923
0.252385
0.252385
0.256384
0.21888
0.216869
0.255077
0.250998
0.240491
0.257666
0.257666
0.246672
0.261366
0.261366
0.216869
0.245172
0.258923
0.224725
0.262553
0.216869
0.256384
0.220861
0.248142
0.257666
0.249584
0.262553
0.238869
0.220861
0.260156
0.238869
0.240491
0.243642
0.262553
0.257666
0.21888
0.263717
0.214827
0.21888
0.250998
0.260156
0.248142
0.242082
0.242082
0.263717
0.212756
0.263717
0.23206
0.262553
0.250998
0.214827
0.212756
0.233811
0.238869
0.261366
0.246672
0.238869
0.216869
0.260156
0.243642
0.233811
0.235529
0.216869
0.228459
0.243642
0.245172
0.228459
0.235529
0.246672
0.240491
0.224725
0.235529
0.23206
0.220861
0.210658
0.210658
0.253744
0.245172
0.224725
0.252385
0.262553
0.237215
0.258923
0.208534
0.226609
0.228459
0.252385
0.228459
0.21888
0.21888
0.214827
0.249584
0.243642
0.252385
0.230276
0.208534
0.238869
0.23206
0.242082
0.222809
0.235529
0.233811
0.253744
0.206386
0.206386
0.233811
0.206386
0.206386
0.253744
0.240491
0.322656
0.206386
0.310352
0.318543
0.283872
0.210658
0.291127
0.277908
0.275485
0.269709
0.281798
0.272883
0.277755
0.262573
0.269709
0.27974
0.263866
0.268242
0.253744
0.264082
0.262069
0.286057
0.332851
0.274453
0.269185
0.329401
0.278206
0.342666
0.26519
0.316445
0.283019
0.2707
0.271294
0.308908
0.249584
0.25566
0.325266
0.311611
0.252385
0.256309
0.257864
0.206386
0.282882
0.286805
0.255387
0.278082
0.257922
0.276503
0.252803
0.352878
0.271259
0.248566
0.250159
0.268616
0.266872
0.291731
0.284799
0.332001
0.275811
0.23206
0.277021
0.248274
0.26343
0.266872
0.285859
0.337598
0.251833
0.307056
0.247801
0.243735
0.25911
0.246065
0.287775
0.252431
0.366031
0.249888
0.310172
0.264198
0.241706
0.26611
0.29029
0.239219
0.303903
0.354286
0.267462
0.359892
0.312216
0.288501
0.245124
0.269867
0.257483
0.252991
0.235529
0.237433
0.235529
0.341361
0.246733
0.237598
0.262672
0.302461
0.257478
0.301354
0.216869
0.247328
0.273482
0.236824
0.280013
0.247328
0.255486
0.235853
0.241867
0.36141
0.261542
0.236387
0.310126
0.304395
0.257145
0.296004
0.226465
0.262382
0.23285
0.237209
0.230894
0.330812
0.230126
0.229433
0.372444
0.266745
0.216869
0.236301
0.22982
0.218109
0.232661
0.210721
0.324177
0.219096
0.226755
0.216847
0.309258
0.227847
0.287177
0.220002
0.297851
0.318771
0.248575
0.240232
0.206829
0.304294
0.249989
0.280558
0.285402
0.276126
0.293968
0.275192
0.286164
0.28384
0.284627
0.292611
0.283852
0.293292
0.300156
0.276126
0.282227
0.289111
0.280558
0.274242
0.291232
0.286916
0.288388
0.286916
0.274242
0.282227
0.287657
0.284627
0.293968
0.291925
0.289825
0.291925
0.285402
0.289825
0.277945
0.293292
0.282227
0.277945
0.272288
0.272288
0.278831
0.289825
0.285402
0.273274
0.280558
0.282227
0.286164
0.285402
0.28384
0.275192
0.28384
0.293968
0.275192
0.273274
0.293292
0.273274
0.286164
0.289111
0.290532
0.293968
0.293292
0.280558
0.286164
0.271285
0.272288
0.274242
0.291925
0.283041
0.272288
0.272288
0.271285
0.285402
0.293968
0.289111
0.270263
0.291925
0.270263
0.283041
0.293292
0.279702
0.276126
0.286164
0.286916
0.273274
0.289111
0.276126
0.286164
0.278831
0.293292
0.289825
0.270263
0.286164
0.277945
0.269222
0.289825
0.276126
0.284627
0.292611
0.2814
0.279702
0.289825
0.273274
0.28384
0.282227
0.290532
0.276126
0.269222
0.288388
0.289111
0.28384
0.276126
0.291925
0.278831
0.269222
0.289111
0.291925
0.292611
0.282227
0.286916
0.280558
0.291232
0.268162
0.268162
0.279702
0.292611
0.268162
0.280558
0.283041
0.288388
0.274242
0.286916
0.273274
0.288388
0.276126
0.283041
0.272288
0.293292
0.276126
0.293968
0.267081
0.276126
0.267081
0.290532
0.286916
0.282227
0.289825
0.289825
0.269222
0.278831
0.267081
0.277945
0.270263
0.289111
0.267081
0.283041
0.267081
0.286164
0.292611
0.271285
0.2814
0.275192
0.287657
0.277044
0.270263
0.276126
0.291925
0.283041
0.287657
0.269222
0.278831
0.2814
0.270263
0.290532
0.270263
0.265981
0.272288
0.276126
0.265981
0.273274
0.286164
0.274242
0.277945
0.286916
0.26486
0.269222
0.2814
0.291925
0.269222
0.26486
0.289111
0.28384
0.290532
0.286916
0.26486
0.286916
0.270263
0.270263
0.26486
0.380822
0.285402
0.386616
0.363685
0.330331
0.267081
0.32412
0.350997
0.325144
0.331269
0.339236
0.364484
0.293968
0.306855
0.311103
0.331698
0.317567
0.304513
0.301832
0.294279
0.344147
0.304892
0.26486
0.293993
0.390938
0.309045
0.291925
0.289825
0.363632
0.294307
0.293687
0.299048
0.291232
0.304182
0.294216
0.272288
0.294689
0.360857
0.336315
0.297715
0.298653
0.294787
0.289971
0.299575
0.344935
0.314317
0.299844
0.328756
0.326899
0.308449
0.293875
0.298799
0.288601
0.312091
0.299578
0.287874
0.319242
0.288226
0.327963
0.286916
0.289604
0.297428
0.292929
0.28665
0.28864
0.291369
0.316495
0.294069
0.297568
0.284639
0.390539
0.285134
0.294181
0.300936
0.287772
0.273274
0.30649
0.287661
0.302184
0.293142
0.282263
0.289399
0.296444
0.289022
0.287603
0.313557
0.290768
0.296918
0.300734
0.290343
0.291469
0.285824
0.286891
0.283159
0.353101
0.283953
0.286948
0.27974
0.306187
0.309582
0.288364
0.302362
0.30638
0.308635
0.312133
0.279779
0.287062
0.278844
0.295333
0.277985
0.324318
0.344146
0.301148
0.333011
0.295366
0.281733
0.31094
0.28609
0.280762
0.27725
0.301759
0.279625
0.280106
0.28084
0.293761
0.290284
0.296848
0.274286
0.387358
0.286264
0.286805
0.30364
0.275325
0.276717
0.303275
0.327439
0.278767
0.278357
0.298068
0.294212
0.271525
0.294886
0.301124
0.291005
0.292344
0.274512
0.31382
0.316706
0.304476
0.26486
0.271701
0.269741
0.292384
0.27466
0.312067
0.313367
0.303086
0.305643
0.305003
0.304364
0.303086
0.31013
0.302446
0.302446
0.299232
0.312067
0.312715
0.300522
0.309488
0.311419
0.303086
0.298584
0.311419
0.313367
0.306923
0.314671
0.305003
0.314017
0.313367
0.306923
0.312067
0.306923
0.311419
0.313367
0.298584
0.314671
0.314017
0.314017
0.307563
0.299878
0.298584
0.305003
0.313367
0.308205
0.299878
0.301165
0.302446
0.297281
0.314017
0.308205
0.303086
0.310774
0.312067
0.305003
0.310774
0.31013
0.306923
0.303725
0.310774
0.307563
0.313367
0.297281
0.297934
0.312067
0.298584
0.297281
0.315324
0.301165
0.297934
0.305643
0.308846
0.309488
0.305003
0.308846
0.313367
0.31013
0.299878
0.310774
0.307563
0.301165
0.301165
0.306283
0.299232
0.301165
0.301165
0.305003
0.307563
0.302446
0.303725
0.313367
0.303725
0.305643
0.307563
0.311419
0.300522
0.311419
0.296625
0.304364
0.308205
0.305003
0.315324
0.316634
0.312715
0.304364
0.301806
0.31013
0.303086
0.31598
0.305643
0.316634
0.307563
0.301806
0.308205
0.314017
0.302446
0.31013
0.299878
0.305643
0.310774
0.296625
0.31013
0.303725
0.306923
0.303086
0.311419
0.297934
0.299232
0.302446
0.302446
0.303725
0.295967
0.299232
0.306283
0.295967
0.31013
0.295967
0.315324
0.300522
0.310774
0.312715
0.312067
0.316634
0.299878
0.310774
0.303086
0.316634
0.299878
0.303725
0.303086
0.301806
0.303725
0.300522
0.316634
0.303725
0.295967
0.313367
0.315324
0.311419
0.311419
0.31598
0.31598
0.314671
0.316634
0.298584
0.305643
0.314017
0.31598
0.295305
0.31013
0.311419
0.301806
0.31598
0.314017
0.295305
0.312067
0.295305
0.304364
0.295305
0.295305
0.303086
0.295305
0.305003
0.315324
0.299878
0.295305
0.304364
0.294638
0.294638
0.296625
0.302446
0.31013
0.298584
0.303725
0.315324
0.371051
0.348588
0.36023
0.359225
0.355571
0.338195
0.377822
0.304364
0.357824
0.302446
0.345918
0.359846
0.337214
0.314671
0.333744
0.342747
0.364989
0.357432
0.31708
0.319867
0.316045
0.325906
0.36898
0.339021
0.323279
0.321487
0.374119
0.31708
0.348273
0.32806
0.316802
0.316319
0.329098
0.344969
0.323195
0.330874
0.347831
0.316646
0.327936
0.316344
0.320206
0.334106
0.321588
0.318845
0.315523
0.372114
0.315084
0.316889
0.329902
0.331192
0.382447
0.329587
0.364873
0.34617
0.363055
0.317895
0.378541
0.315025
0.334329
0.315083
0.313935
0.322309
0.331218
0.320742
0.313933
0.314934
0.357823
0.327613
0.313003
0.355807
0.337735
0.314951
0.339431
0.31688
0.354511
0.313733
0.347905
0.315286
0.339909
0.315076
0.318024
0.311424
0.347502
0.311654
0.324861
0.317004
0.315277
0.318256
0.311654
0.314878
0.363043
0.315288
0.350325
0.323177
0.328677
0.317324
0.323832
0.31084
0.388399
0.31262
0.311358
0.354645
0.352848
0.307683
0.320446
0.309613
0.311107
0.308966
0.322723
0.337596
0.311678
0.308238
0.36834
0.309265
0.309404
0.316374
0.327142
0.308437
0.314501
0.309182
0.326972
0.325406
0.310179
0.320244
0.310143
0.353563
0.3086
0.337197
0.334181
0.305703
0.306701
0.359246
0.307153
0.337953
0.305096
0.294638
0.303821
0.313024
0.389301
0.329956
0.338291
0.306893
0.309129
0.303725
0.307252
0.335041
0.310086
0.332375
0.304151
0.304151
0.302446
0.30686
0.316168
0.305206
0.321428
0.362465
0.303875
0.313125
0.342692
0.31918
0.323554
0.311086
0.303986
0.314008
0.314638
0.351998
0.306459
0.302524
0.301813
0.355392
0.304925
0.303523
0.331882
0.326242
0.346398
0.309973
0.300843
0.301488
0.300529
0.302154
0.391251
0.307897
0.302772
0.308208
0.300357
0.300776
0.352248
0.300236
0.332722
0.355754
0.31338
0.326043
0.303959
0.30627
0.37133
0.298211
0.309524
0.327741
0.312192
0.296625
0.300791
0.294638
0.391215
0.297328
0.297583
0.296673
0.296633
0.340896
0.295479
0.303212
0.300646
0.2953
0.311482
0.337662
0.332162
0.331415
0.325218
0.334214
0.322613
0.326524
0.33285
0.329263
0.323261
0.338722
0.334214
0.337662
0.333578
0.337187
0.338256
0.330711
0.323261
0.329263
0.335459
0.319952
0.321291
0.327863
0.319279
0.333578
0.337662
0.332162
0.33285
0.325218
0.330711
0.331415
0.337662
0.329965
0.337187
0.327863
0.323261
0.319279
0.337187
0.319952
0.338256
0.330711
0.333578
0.325218
0.323261
0.319279
0.327175
0.323918
0.327863
0.321291
0.320619
0.339377
0.337662
0.339811
0.327863
0.322613
0.337187
0.329263
0.330711
0.330711
0.322613
0.319279
0.327863
0.332162
0.322613
0.318616
0.336086
0.332162
0.326524
0.32456
0.333578
0.330711
0.32456
0.329965
0.335459
0.327863
0.338256
0.32586
0.320619
0.320619
0.329263
0.322613
0.323261
0.318616
0.319279
0.33285
0.33285
0.339377
0.319952
0.318616
0.319952
0.331415
0.335459
0.323918
0.323261
0.328542
0.32456
0.339811
0.334214
0.329263
0.339811
0.336086
0.338256
0.322613
0.338256
0.320619
0.326524
0.337187
0.329263
0.328542
0.325218
0.332162
0.32456
0.336594
0.320619
0.336594
0.332162
0.32456
0.332162
0.33285
0.32586
0.321291
0.325218
0.334891
0.320619
0.329263
0.338256
0.338256
0.318616
0.323261
0.338256
0.337187
0.317951
0.32456
0.336594
0.317951
0.339811
0.332162
0.321951
0.339811
0.327863
0.319952
0.32586
0.330711
0.335459
0.33285
0.318616
0.328542
0.338256
0.332162
0.319279
0.337187
0.32456
0.338722
0.339811
0.325218
0.335459
0.317951
0.319952
0.318616
0.335459
0.325218
0.318616
0.32456
0.331415
0.322613
0.331415
0.327175
0.321951
0.338722
0.317951
0.330711
0.337187
0.319952
0.325218
0.317951
0.330711
0.329263
0.336594
0.337187
0.331415
0.325218
0.334214
0.338256
0.331415
0.327863
0.321951
0.325218
0.323264
0.329263
0.318616
0.335459
0.336594
0.338722
0.334214
0.334891
0.338722
0.326524
0.330711
0.339811
0.338256
0.331415
0.332162
0.327863
0.319952
0.319952
0.334891
0.389912
0.376959
0.3838
0.377091
0.391557
0.322613
0.391879
0.337187
0.339811
0.362033
0.35987
0.359397
0.337662
0.372924
0.347987
0.366095
0.37194
0.361996
0.326524
0.38172
0.341593
0.343086
0.340012
0.365681
0.343496
0.319279
0.341168
0.38599
0.340272
0.352976
0.33285
0.386682
0.36095
0.339386
0.341517
0.343602
0.341197
0.347836
0.373629
0.340294
0.342324
0.381493
0.344164
0.343582
0.379702
0.342135
0.374558
0.339381
0.340386
0.364895
0.34727
0.317294
0.367967
0.339129
0.3439
0.351255
0.335459
0.35424
0.327175
0.354823
0.325218
0.359751
0.351255
0.343408
0.341282
0.340443
0.340083
0.329965
0.338564
0.338445
0.340018
0.353283
0.362967
0.338564
0.338256
0.351432
0.352354
0.338261
0.346376
0.342928
0.338888
0.391813
0.342223
0.364999
0.338578
0.364999
0.34157
0.340455
0.376225
0.326524
0.377521
0.337667
0.349512
0.382572
0.35485
0.317294
0.344482
0.337446
0.342902
0.338126
0.385406
0.339046
0.337312
0.381866
0.366849
0.338377
0.337804
0.334891
0.341525
0.332162
0.338657
0.337335
0.340791
0.340417
0.345867
0.338377
0.340302
0.343177
0.347069
0.345204
0.37734
0.347542
0.336649
0.33728
0.337333
0.343335
0.349427
0.351605
0.36854
0.352421
0.336086
0.351001
0.337717
0.353931
0.336327
0.33841
0.360874
0.363513
0.33841
0.391847
0.35827
0.336242
0.363111
0.340497
0.361976
0.337757
0.345416
0.336482
0.33788
0.33982
0.338463
0.34873
0.321291
0.347608
0.34612
0.347345
0.346575
0.335741
0.337252
0.335085
0.338482
0.338913
0.335383
0.371112
0.339421
0.369982
0.342897
0.349472
0.388377
0.32456
0.334926
0.341392
0.33608
0.346026
0.334675
0.334721
0.334428
0.341254
0.340299
0.335318
0.336546
0.32586
0.333591
0.345104
0.317294
0.335663
0.338231
0.391981
0.338646
0.391814
0.335588
0.343395
0.33358
0.339928
0.336843
0.337701
0.346905
0.33944
0.336832
0.333062
0.333641
0.334468
0.323918
0.333491
0.317294
0.334193
0.317294
0.333031
0.33574
0.35187
0.317951
0.334919
0.333063
0.354329
0.356245
0.332879
0.333198
0.332213
0.331836
0.33241
0.331792
0.332529
0.349713
0.331792
0.332213
0.391964
0.347084
0.331733
0.332562
0.346392
0.331098
0.330711
0.333738
0.330726
0.369973
0.321291
0.330238
0.338016
0.356288
0.33677
0.343752
0.330874
0.330319
0.321951
0.350663
0.330082
0.340338
0.330136
0.339484
0.321951
0.350444
0.360948
0.330062
0.389127
0.34525
0.329359
0.340736
0.329626
0.329823
0.335723
0.334994
0.32941
0.352332
0.337708
0.337793
0.328962
0.344193
0.331323
0.335882
0.32864
0.358108
0.328921
0.358878
0.334834
0.326524
0.352999
0.336935
0.391368
0.335015
0.327865
0.339024
0.337545
0.328453
0.330026
0.341034
0.329179
0.334654
0.352453
0.327183
0.327617
0.351759
0.327279
0.336266
0.3918
0.326756
0.356557
0.327484
0.348582
0.317294
0.339376
0.391417
0.331018
0.355458
0.326542
0.352083
0.34868
0.32831
0.337605
0.326848
0.325863
0.329067
0.323261
0.331742
0.317294
0.369102
0.332051
0.334554
0.336037
0.325872
0.325227
0.373837
0.327157
0.335856
0.327609
0.35316
0.354086
0.347674
0.330145
0.373837
0.319279
0.343812
0.325358
0.325106
0.350408
0.365171
0.348075
0.340593
0.353327
0.328118
0.34361
0.337478
0.345886
0.391959
0.324034
0.337228
0.336871
0.33441
0.325117
0.366669
0.323081
0.383634
0.323903
0.322489
0.346858
0.342927
0.336702
0.327153
0.322201
0.324474
0.381592
0.321291
0.375596
0.320674
0.324497
0.322665
0.365853
0.323306
0.334753
0.336362
0.340352
0.320623
0.323135
0.32987
0.378251
0.335109
0.321475
0.323439
0.321814
0.319337
0.344778
0.325574
0.330113
0.319806
0.319337
0.376219
0.351569
0.323854
0.331988
0.318616
0.320937
0.33298
0.328718
0.321043
0.31926
0.320893
0.320325
0.317954
0.332043
0.322193
0.318738
0.338372
0.318738
0.39161
0.321106
)


// ************************************************************************* //
