/*--------------------------------*- C++ -*----------------------------------*\
  =========                 |
  \\      /  F ield         | OpenFOAM: The Open Source CFD Toolbox
   \\    /   O peration     | Website:  https://openfoam.org
    \\  /    A nd           | Version:  7
     \\/     M anipulation  |
\*---------------------------------------------------------------------------*/
FoamFile
{
    version     2.0;
    format      ascii;
    class       vectorField;
    location    "0.7/lagrangian/reactingCloud1";
    object      coordinates;
}
// * * * * * * * * * * * * * * * * * * * * * * * * * * * * * * * * * * * * * //


2449
(
(-1.0458 0.408926 1.0842e-19)
(-1.05449 0.319446 -7.42213e-20)
(-1.07055 0.305251 -1.0842e-19)
(-1.08754 0.236403 0)
(-1.09212 0.369696 -2.1684e-19)
(-1.10897 0.360029 -4.06576e-20)
(-1.13231 0.204732 -2.71051e-20)
(-1.13734 0.368866 2.1684e-19)
(-1.15494 0.352003 -2.71051e-20)
(-1.17595 0.243604 5.42101e-20)
(-1.19499 0.132723 5.42101e-20)
(-1.205 0.299904 5.42101e-20)
(-1.22021 0.378177 -1.21973e-19)
(-1.24484 0.0502793 -2.03288e-20)
(-1.25551 0.285726 2.1684e-19)
(-1.27174 0.262372 0)
(-1.29032 0.18175 1.0842e-19)
(-1.30419 0.263698 0)
(-1.31864 0.33865 9.48677e-20)
(-1.3327 0.370049 0)
(-1.35039 0.334021 2.71051e-20)
(-1.36717 0.220966 -1.0842e-19)
(-1.38591 0.140539 0)
(-1.40141 0.216716 -1.0842e-19)
(-1.41617 0.261707 2.1684e-19)
(-1.432 0.209643 0)
(-1.44852 0.3148 -1.0842e-19)
(-1.44781 0.369713 -2.1684e-19)
(-1.46281 0.328245 -1.0842e-19)
(-1.47961 0.27195 -1.0842e-19)
(-1.49681 0.355346 0)
(-1.51227 0.134812 -2.71051e-20)
(-1.53011 0.250051 0)
(-1.54279 0.343118 2.1684e-19)
(-1.56157 0.325929 0)
(-1.57635 0.268702 -1.0842e-19)
(-1.59398 0.251996 0)
(-1.60954 0.332696 2.1684e-19)
(-1.62351 0.075326 2.71051e-20)
(-1.64143 0.0725776 -2.71051e-20)
(-1.65871 0.28925 0)
(-1.67489 0.235115 5.42101e-20)
(-0.873675 0.466704 1.0842e-19)
(-0.531283 0.410999 -4.33681e-19)
(-0.822038 0.473908 0)
(-0.391118 0.412487 6.77626e-20)
(-0.378938 0.414621 3.25261e-19)
(-0.53847 0.456832 0)
(-0.462291 0.422995 2.71051e-20)
(-0.321166 0.348511 0)
(-0.323077 0.335419 -1.0842e-19)
(-0.315136 0.289298 0)
(-0.364516 0.341418 0)
(-0.365967 0.318679 -1.0842e-19)
(-0.34681 0.219306 -1.35525e-20)
(-0.421267 0.378644 -6.77626e-21)
(-0.453475 0.402296 2.1684e-19)
(-0.410235 0.307571 0)
(-0.40467 0.244473 -1.0842e-19)
(-0.455782 0.371907 -1.0842e-19)
(-0.450194 0.326715 0)
(-0.464123 0.333622 -2.1684e-19)
(-0.453365 0.234582 0)
(-0.535908 0.409879 0)
(-0.450458 0.108017 -5.42101e-20)
(-0.483126 0.187209 -2.71051e-20)
(-0.496773 0.201344 0)
(-0.540942 0.378891 -1.0842e-19)
(-0.531027 0.281274 1.0842e-19)
(-0.538078 0.251699 0)
(-0.597004 0.413868 -3.79471e-19)
(-0.600478 0.404822 1.35525e-19)
(-0.5486 0.0802248 -2.71051e-20)
(-0.656612 0.438499 -3.08108e-20)
(-0.622544 0.415419 -1.0842e-19)
(-0.627727 0.329586 -4.33681e-19)
(-0.599614 0.105096 0)
(-0.629609 0.217132 0)
(-0.636868 0.385882 5.42101e-20)
(-0.660426 0.41053 0)
(-0.678835 0.389899 5.42101e-20)
(-0.671697 0.178075 0)
(-0.700032 0.390147 2.1684e-19)
(-0.707692 0.362052 -1.0842e-19)
(-0.723726 0.405816 0)
(-0.732786 0.387993 0)
(-0.733871 0.2734 -1.35525e-20)
(-0.748682 0.352696 0)
(-0.760162 0.342524 -5.42101e-20)
(-0.768321 0.235796 -1.0842e-19)
(-0.787907 0.390527 -1.0842e-19)
(-0.817396 0.430082 -2.1684e-19)
(-0.804252 0.315394 -5.42101e-20)
(-0.827698 0.3051 0)
(-0.813862 0.0377369 0)
(-0.837769 0.234871 -5.42101e-20)
(-0.849709 0.239864 5.42101e-20)
(-0.861587 0.237189 -1.0842e-19)
(-0.886445 0.174155 -5.42101e-20)
(-0.875397 0.133969 -8.13152e-20)
(-0.900105 0.256232 -5.42101e-20)
(-0.924016 0.366598 -5.42101e-20)
(-0.94599 0.42422 -2.1684e-19)
(-0.950536 0.235589 -5.42101e-20)
(-0.940609 0.146848 -3.38813e-21)
(-0.972568 0.341371 0)
(-0.986103 0.340562 0)
(-1.00342 0.251572 1.35525e-19)
(-1.02151 0.422715 -1.0842e-19)
(-1.01768 0.256999 1.0842e-19)
(-1.03121 0.379741 1.0842e-19)
(0.0940742 0.243534 -2.71051e-19)
(0.0319444 0.249272 6.60686e-20)
(0.0503833 0.170975 -3.38813e-20)
(0.0215583 0.203751 1.69407e-21)
(0.0132937 0.232687 -1.0842e-19)
(0.00514392 0.259039 2.71051e-20)
(-0.0176192 0.267332 1.0842e-19)
(-0.0178745 0.162736 5.42101e-20)
(-0.0834776 0.274778 0)
(-0.0917755 0.27101 0)
(-0.125621 0.157682 0)
(-0.134839 0.175043 0)
(-0.157164 0.250221 0)
(-0.168486 0.288408 0)
(-0.172795 0.177274 2.71051e-20)
(-0.190821 0.248913 0)
(-0.201342 0.207042 1.35525e-20)
(-0.199938 0.0618613 5.42101e-20)
(-0.231864 0.346954 0)
(-0.2361 0.327906 8.80914e-20)
(-0.235984 0.247026 -5.42101e-20)
(-0.277285 0.122907 5.42101e-20)
(-0.292312 0.363082 -1.0842e-19)
(0.578345 0.181765 5.42101e-20)
(0.484829 0.212667 0)
(0.385405 0.138453 0)
(0.327831 0.157141 0)
(0.312756 0.236305 0)
(0.255763 0.155887 -1.0842e-19)
(0.252491 0.0448813 -1.35525e-20)
(0.223461 0.252931 0)
(0.202654 0.244637 0)
(0.173033 0.291931 -5.42101e-20)
(0.175716 0.237261 1.0842e-19)
(1.19478 0.118736 0)
(1.20894 0.198525 8.13152e-20)
(1.14111 0.266171 5.42101e-20)
(1.18839 0.23403 0)
(1.16424 0.176974 -1.35525e-20)
(1.05584 0.115224 2.71051e-20)
(1.04732 0.183898 0)
(1.00135 0.121141 0)
(0.930878 0.225502 0)
(0.871572 0.262482 -1.0842e-19)
(0.696192 0.175751 5.42101e-20)
(0.648551 0.22009 -1.0842e-19)
(0.637181 0.242983 0)
(0.612727 0.116634 0)
(0.625333 0.252674 0)
(0.625564 0.137748 -5.42101e-20)
(0.617474 0.202096 -1.0842e-19)
(2.04817 0.394025 0)
(2.09214 0.125335 5.42101e-20)
(1.9736 0.148958 1.35525e-20)
(1.96691 0.189985 -2.71051e-20)
(1.78707 0.270683 -5.42101e-20)
(1.88737 0.0310006 1.01644e-20)
(1.85073 0.191001 0)
(1.80101 0.2241 -4.06576e-20)
(1.78672 0.214467 1.01644e-20)
(1.78236 0.0739186 0)
(1.6579 0.220191 1.0842e-19)
(1.57223 0.111849 -6.09864e-20)
(1.55434 0.245355 -6.09864e-20)
(1.52538 0.219695 1.0842e-19)
(1.49892 0.13387 5.42101e-20)
(1.37185 0.18547 1.0842e-19)
(1.30413 0.0979485 1.0842e-19)
(1.25411 0.201 5.42101e-20)
(3.37953 0.306685 6.43745e-20)
(3.36631 0.175214 8.13152e-20)
(3.32952 0.0810978 -5.42101e-20)
(3.29677 0.148817 -6.77626e-21)
(3.26594 0.243663 -5.42101e-20)
(3.20205 0.214987 2.57498e-19)
(3.12124 0.118518 -6.77626e-21)
(2.93945 0.24421 0)
(2.97242 0.129312 -8.13152e-20)
(2.87795 0.254989 0)
(2.84114 0.235936 0)
(2.85652 0.228302 0)
(2.82708 0.165687 -5.42101e-20)
(2.74388 0.184249 0)
(2.7105 0.120635 -5.42101e-20)
(2.70606 0.214721 0)
(2.68576 0.107744 -8.47033e-21)
(2.62489 0.225591 0)
(2.50147 0.149826 -1.35525e-20)
(2.40105 0.226759 -8.13152e-20)
(2.27617 0.117981 0)
(2.21057 0.208416 5.42101e-20)
(2.20699 0.234221 -1.0842e-19)
(2.18831 0.115949 1.35525e-20)
(2.17229 0.179159 -5.42101e-20)
(2.17164 0.157254 5.42101e-20)
(2.15255 0.227249 0)
(5.00751 -1.93292e-33 1.68683e-35)
(5.2344 0.0955657 -2.71051e-20)
(5.14422 0.128868 -5.42101e-20)
(5.07725 0.214575 0)
(5.11251 0.140527 2.71051e-20)
(5.01969 0.216346 0)
(5.03867 0.186737 5.42101e-20)
(4.94981 0.188272 -1.0842e-19)
(4.92983 0.0616595 -2.71051e-20)
(4.81758 0.186208 0)
(4.80696 0.142018 -2.71051e-20)
(4.76573 0.135208 0)
(4.70737 0.189722 -2.71051e-20)
(4.59243 0.18234 -6.77626e-20)
(4.50694 0.216913 -1.0842e-19)
(4.54403 0.0705556 0)
(4.48055 0.100249 -2.71051e-20)
(4.3114 0.290643 0)
(4.32406 0.21432 0)
(4.32503 0.178962 0)
(4.23158 0.240037 -1.0842e-19)
(4.1637 0.190198 -6.77626e-21)
(4.0464 0.262773 0)
(4.09422 0.0437132 0)
(3.97209 0.235845 -4.06576e-20)
(3.9757 0.207911 8.13152e-20)
(3.80383 0.279424 1.0842e-19)
(3.8175 0.252174 2.71051e-20)
(3.77529 0.223748 2.71051e-20)
(3.76527 0.219707 0)
(3.76281 0.177763 0)
(3.72391 0.166596 1.35525e-20)
(3.7146 0.117645 2.71051e-20)
(3.65251 0.431432 0)
(3.62321 0.23642 0)
(3.63537 0.095582 -1.35525e-20)
(3.62244 0.201095 0)
(3.60284 0.0821509 -4.06576e-20)
(3.55282 0.289784 5.42101e-20)
(3.50428 0.210101 1.0842e-19)
(3.49541 0.183765 8.13152e-20)
(3.43994 0.14498 -1.0842e-19)
(3.41932 0.12382 0)
(7.70868 -1.70399e-33 1.48705e-35)
(7.28412 -1.73997e-33 1.51845e-35)
(6.38299 -1.81634e-33 1.5851e-35)
(5.82276 -1.86382e-33 1.62653e-35)
(5.66278 -1.87738e-33 1.63837e-35)
(6.73183 -1.78678e-33 1.5593e-35)
(7.63456 0.327131 0)
(7.76651 0.257691 -5.42101e-20)
(7.50435 0.28155 8.13152e-20)
(7.40713 0.262831 0)
(7.69736 0.168726 0)
(7.55573 0.215445 1.0842e-19)
(7.71294 0.108313 0)
(7.63935 0.0419437 -2.71051e-20)
(7.33281 0.261355 -1.35525e-20)
(7.43316 0.203919 0)
(7.45155 0.00702019 3.38813e-21)
(7.31503 0.220201 0)
(7.46771 0.0996994 5.42101e-20)
(7.34887 0.0764033 0)
(7.26973 0.188831 8.13152e-20)
(7.23892 0.219725 -1.0842e-19)
(7.273 0.00197103 0)
(7.209 0.169779 -5.75982e-20)
(7.17659 0.188744 0)
(7.17269 0.157275 -3.38813e-20)
(6.7948 0.32549 1.0842e-19)
(7.08232 0.121366 5.42101e-20)
(7.04295 0.124392 -4.06576e-20)
(7.00509 0.180365 -2.71051e-20)
(6.92893 0.0343768 6.77626e-21)
(6.86124 0.0674562 2.71051e-20)
(6.77004 0.228136 1.0842e-19)
(6.90642 0.153005 0)
(6.75885 0.208298 0)
(6.63425 0.255773 1.0842e-19)
(6.77418 0.206575 -5.42101e-20)
(6.78027 0.10661 0)
(6.37343 0.484286 -4.33681e-19)
(6.71814 0.135741 2.03288e-20)
(6.43005 0.291918 -3.38813e-20)
(6.59757 0.115439 0)
(6.54358 0.124622 0)
(6.52615 0.167028 0)
(6.3387 0.224044 0)
(6.41923 0.137117 -3.21873e-20)
(6.37594 0.126001 0)
(6.24193 0.115432 -5.42101e-20)
(6.15678 0.160146 1.0842e-19)
(6.13702 0.0864978 4.65868e-21)
(6.0869 0.182848 5.42101e-20)
(6.00712 0.26258 -1.0842e-19)
(5.95298 0.0741778 4.06576e-20)
(5.90873 0.0636013 2.71051e-20)
(5.97136 0.136148 -5.42101e-20)
(5.8456 0.260397 2.71051e-20)
(5.89427 0.150847 0)
(5.84607 0.209786 -1.0842e-19)
(5.73126 0.273207 1.0842e-19)
(5.7296 0.0553448 -1.35525e-20)
(5.71019 0.15804 -2.71051e-20)
(5.6438 0.247695 -1.0842e-19)
(5.64584 0.182789 0)
(5.54689 0.339435 -1.0842e-19)
(5.54287 0.220954 5.42101e-20)
(5.54032 0.137662 0)
(5.50746 0.107401 5.42101e-20)
(5.50683 0.145926 2.71051e-20)
(5.47254 0.189467 0)
(5.43664 0.246545 0)
(5.41357 0.103333 -5.42101e-20)
(5.34773 0.254291 -1.0842e-19)
(5.33154 0.202123 1.35525e-20)
(5.32554 0.100873 3.38813e-21)
(10.2494 -1.48865e-33 1.29913e-35)
(10.5939 -1.45946e-33 1.27365e-35)
(10.3817 -1.47745e-33 1.28935e-35)
(10.7773 -1.44391e-33 1.26008e-35)
(9.13623 -1.583e-33 1.38146e-35)
(9.0427 -1.59093e-33 1.38838e-35)
(10.9009 -1.43344e-33 1.25094e-35)
(10.9291 -1.43105e-33 1.24886e-35)
(10.174 -1.49505e-33 1.30471e-35)
(9.13107 -1.58344e-33 1.38184e-35)
(8.85804 -1.60658e-33 1.40204e-35)
(8.55377 -1.63236e-33 1.42454e-35)
(8.18068 -1.66398e-33 1.45214e-35)
(9.61106 -1.54276e-33 1.34634e-35)
(8.08275 -1.67228e-33 1.45938e-35)
(10.4632 0.518657 2.1684e-19)
(10.8315 0.196396 -1.0842e-19)
(10.8469 0.200806 0)
(10.7723 0.19294 -1.0842e-19)
(10.8841 0.161372 -1.35525e-20)
(10.4356 0.316992 1.0842e-19)
(10.5624 0.277808 0)
(10.7455 0.189061 0)
(10.6231 0.201858 0)
(10.7146 0.109625 0)
(10.494 0.141223 -1.35525e-20)
(10.5007 0.0503137 -2.71051e-20)
(10.4994 0.0817057 2.71051e-20)
(10.3371 0.0724984 -1.35525e-20)
(10.2636 0.149442 0)
(10.2274 0.138328 5.42101e-20)
(10.1556 0.149316 -2.71051e-20)
(10.0114 0.151673 -5.42101e-20)
(9.92369 0.117961 0)
(9.46884 0.453449 -5.42101e-20)
(9.6974 0.235978 1.0842e-19)
(9.78098 0.212771 -4.74338e-20)
(9.87264 0.0617478 0)
(9.82641 0.0543722 1.35525e-20)
(9.64727 0.198195 2.71051e-20)
(9.67737 0.129366 0)
(9.6019 0.0405902 2.71051e-20)
(9.56929 0.141667 -2.71051e-20)
(9.58169 0.0725391 0)
(9.53986 0.0684361 -1.01644e-20)
(9.26529 0.351011 5.42101e-20)
(9.3585 0.244207 2.71051e-20)
(9.45228 0.108245 6.77626e-21)
(9.23714 0.266472 3.38813e-20)
(9.41946 0.0955189 0)
(9.14299 0.310346 0)
(9.37133 0.0853514 5.42101e-20)
(9.19548 0.238313 5.42101e-20)
(9.34637 0.0759632 0)
(9.25162 0.126327 0)
(9.24029 0.0827872 0)
(9.09368 0.226169 3.38813e-21)
(9.1371 0.204763 0)
(9.17624 0.0499016 2.03288e-20)
(8.8776 0.339338 1.0842e-19)
(8.92622 0.279969 -2.71051e-20)
(8.9472 0.239655 -1.0842e-19)
(9.01512 0.0707576 1.35525e-20)
(8.8102 0.11331 0)
(8.78135 0.0751265 0)
(8.76318 0.0234821 -1.35525e-20)
(8.73067 0.14091 1.35525e-20)
(8.6864 0.0645506 5.42101e-20)
(8.54268 0.280098 0)
(8.54039 0.264359 0)
(8.59087 0.193972 0)
(8.25288 0.137854 5.42101e-20)
(8.18825 0.23911 0)
(8.16227 0.228257 0)
(8.19425 0.0927973 -2.71051e-20)
(8.15169 0.209541 0)
(8.1322 0.175774 5.42101e-20)
(8.09745 0.13884 -2.71051e-20)
(8.08828 0.0960298 0)
(8.03858 0.25355 -2.71051e-20)
(7.94171 0.402238 1.0842e-19)
(7.91664 0.221808 0)
(7.91914 0.0826434 0)
(7.86226 0.191946 -1.0842e-19)
(7.83261 0.200976 -1.0842e-19)
(12.7796 -1.27422e-33 1.11199e-35)
(13.055 -1.25088e-33 1.09162e-35)
(12.731 -1.27833e-33 1.11558e-35)
(13.4782 -1.21501e-33 1.06032e-35)
(12.365 -1.30935e-33 1.14266e-35)
(14.0353 -1.16779e-33 1.01912e-35)
(12.8126 -1.27141e-33 1.10955e-35)
(13.0226 -1.25362e-33 1.09401e-35)
(12.7036 -1.28066e-33 1.11761e-35)
(13.5955 -1.20507e-33 1.05164e-35)
(13.1345 -1.24414e-33 1.08574e-35)
(11.9523 -1.34433e-33 1.17318e-35)
(11.9167 -1.34735e-33 1.17581e-35)
(13.9289 -1.17681e-33 1.02699e-35)
(12.1546 -1.32719e-33 1.15822e-35)
(12.514 -1.29672e-33 1.13163e-35)
(13.4567 -1.21683e-33 1.06191e-35)
(13.4557 -1.21692e-33 1.06199e-35)
(13.5673 1.47182e-26 1.28444e-28)
(11.5647 -1.37718e-33 1.20184e-35)
(14.0164 -1.16939e-33 1.02051e-35)
(12.0423 -1.3367e-33 1.16652e-35)
(14.0756 1.5136e-25 1.3209e-27)
(11.7963 -1.35755e-33 1.18471e-35)
(12.184 -1.32469e-33 1.15604e-35)
(12.8376 1.00442e-28 -8.76545e-31)
(11.6335 -1.37135e-33 1.19676e-35)
(12.4321 -1.30366e-33 1.13769e-35)
(12.8423 -1.2689e-33 1.10735e-35)
(13.8342 -1.18483e-33 1.03399e-35)
(12.3111 -1.31392e-33 1.14664e-35)
(11.2912 -1.40036e-33 1.22208e-35)
(11.652 -1.36979e-33 1.19539e-35)
(11.249 -1.40394e-33 1.2252e-35)
(13.8829 -1.18071e-33 1.03039e-35)
(11.2242 -1.40604e-33 1.22704e-35)
(13.0589 -1.25054e-33 1.09133e-35)
(11.678 -1.36757e-33 1.19346e-35)
(11.205 -1.40767e-33 1.22845e-35)
(12.5707 -1.29192e-33 1.12744e-35)
(13.7489 -1.19206e-33 1.0403e-35)
(13.8701 0.479117 -2.71051e-19)
(13.609 0.554881 0)
(13.3436 -1.22642e-33 1.07028e-35)
(13.9155 0.271685 -5.42101e-20)
(13.9466 0.181766 0)
(14.0023 0.136786 -1.35525e-20)
(13.974 0.143919 8.13152e-20)
(13.7982 0.206073 -1.6263e-19)
(13.857 0.0919439 3.38813e-21)
(13.8347 0.217595 -2.71051e-20)
(13.9446 0.0788595 0)
(13.4747 0.155445 0)
(13.6022 0.143624 0)
(13.673 0.0867821 0)
(13.2428 0.341712 0)
(13.4022 0.18321 1.0842e-19)
(13.2084 0.285123 -1.0842e-19)
(13.5155 0.163485 -2.71051e-20)
(13.3588 0.191439 5.42101e-20)
(13.3897 0.148461 5.42101e-20)
(13.4117 0.184599 5.42101e-20)
(13.2523 0.175494 -5.42101e-20)
(13.5098 0.0249784 -1.69407e-21)
(13.3952 0.0223801 -1.35525e-20)
(13.2858 0.182258 1.0842e-19)
(13.1998 0.140087 0)
(13.0951 0.115442 -5.42101e-20)
(12.9823 0.195459 2.71051e-20)
(12.6123 -1.2884e-33 1.12437e-35)
(13.0761 0.0920113 5.42101e-20)
(12.7465 0.242326 -1.0842e-19)
(12.4905 0.328092 0)
(12.6859 0.123549 1.35525e-20)
(12.5757 0.184194 5.42101e-20)
(10.9666 -1.42787e-33 1.24608e-35)
(12.2644 0.326289 1.0842e-19)
(12.3981 0.227246 1.0842e-19)
(12.3505 0.228676 5.42101e-20)
(12.4459 0.147764 2.71051e-20)
(11.5227 -1.38074e-33 1.20495e-35)
(12.3635 0.189061 -5.42101e-20)
(12.3228 0.15194 0)
(12.1642 0.301757 0)
(12.2822 0.140237 8.13152e-20)
(12.0873 0.297009 5.42101e-20)
(12.0289 0.3562 2.30393e-19)
(12.2457 0.142954 -1.35525e-20)
(11.991 0.323707 1.0842e-19)
(12.1061 0.137213 1.0842e-19)
(12.0513 0.149236 -1.35525e-20)
(11.9975 0.214733 -1.0842e-19)
(11.8477 0.348733 -2.1684e-19)
(11.9498 0.176091 5.42101e-20)
(11.8561 0.28094 0)
(11.9464 0.0990573 0)
(11.7781 0.301391 -5.42101e-20)
(11.8329 0.156449 1.0842e-19)
(11.866 0.105675 -1.35525e-20)
(11.8055 0.183909 5.42101e-20)
(11.7069 0.271734 -5.42101e-20)
(11.5888 0.357717 -4.33681e-19)
(11.6889 0.123296 6.77626e-21)
(11.631 0.147683 0)
(11.5996 0.191163 0)
(11.6225 0.126822 3.38813e-20)
(11.5706 0.126453 0)
(11.4861 0.168366 -8.13152e-20)
(11.4824 0.129378 1.0842e-19)
(11.3262 0.0177613 0)
(11.2328 0.166249 0)
(11.2098 0.182735 0)
(11.189 0.132169 0)
(11.1648 0.162261 5.42101e-20)
(11.0842 0.227481 -5.42101e-20)
(11.0502 0.149967 0)
(11.0311 0.210304 1.0842e-19)
(11.0239 0.0666496 -5.42101e-20)
(11.0077 0.153589 0)
(10.9996 0.174289 -5.42101e-20)
(10.9696 0.211424 0)
(17.133 -9.05256e-34 7.90005e-36)
(15.8663 -1.01261e-33 8.83688e-36)
(17.8286 -8.46299e-34 7.38554e-36)
(17.8943 -8.40734e-34 7.33697e-36)
(17.6307 -8.63069e-34 7.53189e-36)
(18.2657 -8.0926e-34 7.0623e-36)
(16.7244 -9.39881e-34 8.20222e-36)
(17.7057 3.09269e-34 -2.69895e-36)
(17.1551 -9.0338e-34 7.88368e-36)
(17.8457 -8.44855e-34 7.37294e-36)
(16.491 -5.78112e-34 5.0451e-36)
(18.1885 -8.158e-34 7.11937e-36)
(18.229 -8.12358e-34 7.08944e-36)
(16.2911 -9.76611e-34 8.52275e-36)
(18.7074 -7.71816e-34 6.73554e-36)
(18.6745 -7.74607e-34 6.75989e-36)
(16.7696 -9.36056e-34 8.16884e-36)
(15.5156 -1.04233e-33 9.09629e-36)
(15.434 -1.04925e-33 9.15663e-36)
(19.001 -7.46935e-34 6.5184e-36)
(18.3932 -7.9845e-34 6.96797e-36)
(18.4281 -7.95488e-34 6.94212e-36)
(14.9893 -1.08694e-33 9.48559e-36)
(17.7116 -8.56214e-34 7.47207e-36)
(18.0708 2.99656e-30 2.6165e-32)
(16.6467 -9.46474e-34 8.25975e-36)
(14.8857 -1.09572e-33 9.56218e-36)
(18.5635 -7.84014e-34 6.84199e-36)
(16.1458 -9.88918e-34 8.63016e-36)
(18.1198 -8.2162e-34 7.17017e-36)
(16.8089 -9.32726e-34 8.13977e-36)
(17.9633 -8.34885e-34 7.28593e-36)
(18.5729 -7.83223e-34 6.83508e-36)
(16.9936 -9.17069e-34 8.00314e-36)
(18.513 -7.88296e-34 6.87936e-36)
(16.4134 -9.66244e-34 8.43229e-36)
(15.1814 -1.07066e-33 9.3435e-36)
(17.5598 0.00693552 0)
(14.652 -1.11552e-33 9.73503e-36)
(17.538 -8.70931e-34 7.6005e-36)
(14.981 -1.08764e-33 9.49171e-36)
(14.9603 -1.0894e-33 9.50704e-36)
(17.5104 -8.73266e-34 7.62088e-36)
(16.3231 -9.73892e-34 8.49903e-36)
(16.8169 -9.32049e-34 8.13387e-36)
(18.9033 -7.55217e-34 6.59068e-36)
(17.9283 3.13662e-24 2.73728e-26)
(15.0025 -1.08582e-33 9.4758e-36)
(19.06 -7.4194e-34 6.47481e-36)
(14.5278 -1.12605e-33 9.82689e-36)
(17.2477 -8.95532e-34 7.81519e-36)
(19.0685 -7.41215e-34 6.46848e-36)
(19.0775 -7.40451e-34 6.46182e-36)
(17.5979 3.73282e-26 3.25759e-28)
(14.4848 2.20587e-26 1.92503e-28)
(18.853 -7.5948e-34 6.62788e-36)
(16.8446 -9.297e-34 8.11337e-36)
(17.4212 -8.80828e-34 7.68687e-36)
(18.9079 -7.54825e-34 6.58725e-36)
(16.6233 -9.48452e-34 8.27701e-36)
(17.1056 -9.07576e-34 7.9203e-36)
(18.3709 -8.00339e-34 6.98446e-36)
(14.3263 -1.14313e-33 9.97593e-36)
(18.3887 -7.98834e-34 6.97132e-36)
(18.3747 -8.00019e-34 6.98166e-36)
(17.9621 -7.63071e-35 6.65922e-37)
(14.249 -1.14968e-33 1.00331e-35)
(18.6984 -7.72581e-34 6.74221e-36)
(17.1238 -9.06036e-34 7.90686e-36)
(14.2274 -1.15151e-33 1.00491e-35)
(15.914 -1.00857e-33 8.80167e-36)
(19.0299 -7.44488e-34 6.49705e-36)
(18.4559 -7.93135e-34 6.92159e-36)
(15.9969 -1.00154e-33 8.74031e-36)
(19.0334 0.61045 0)
(18.8833 0.564972 0)
(14.168 -1.15655e-33 1.0093e-35)
(19.0451 0.259441 5.42101e-20)
(19.1848 0.196547 1.6263e-19)
(18.9103 0.204803 5.42101e-20)
(18.4417 -7.94335e-34 6.93206e-36)
(18.5205 0.319367 0)
(19.0499 0.101168 6.77626e-21)
(18.827 0.276549 0)
(17.8687 0.473523 1.0842e-19)
(18.8447 0.177129 1.35525e-20)
(18.646 0.171829 0)
(18.8459 0.132651 2.71051e-20)
(18.0781 0.478479 -2.1684e-19)
(18.7483 0.155976 0)
(18.4531 0.259915 1.0842e-19)
(18.5194 0.293095 0)
(18.9285 0.0249185 0)
(18.8754 0.0407029 -4.23516e-20)
(18.1947 0.289302 3.25261e-19)
(18.614 0.14778 -1.6263e-19)
(18.0735 0.308831 -2.1684e-19)
(17.6387 0.35077 0)
(18.3983 0.104586 2.71051e-20)
(18.0241 0.27523 5.42101e-20)
(17.3907 0.599129 0)
(18.2194 0.0253345 -6.77626e-21)
(18.0919 0.239171 0)
(17.117 0.633761 5.42101e-20)
(17.8117 0.356391 5.42101e-20)
(18.0348 0.184469 0)
(18.0599 0.118607 -2.0117e-20)
(17.7261 0.255483 1.6263e-19)
(18.0863 0.0881709 -2.71051e-20)
(17.3159 0.463886 2.1684e-19)
(17.8159 0.165981 5.42101e-20)
(18.0786 0.08427 -2.71051e-20)
(18.0058 0.197465 5.42101e-20)
(18.0381 0.0905497 -2.71051e-20)
(18.043 0.0334536 9.31736e-21)
(17.3654 0.25115 0)
(17.899 0.0488029 5.42101e-20)
(17.7371 0.124148 5.42101e-20)
(17.8523 0.0209761 0)
(17.5435 0.125517 3.04932e-20)
(17.2499 0.225914 0)
(17.3494 0.199356 -1.21973e-19)
(17.4901 0.0782394 0)
(17.083 0.205119 0)
(17.0634 0.225332 0)
(17.449 0.0794781 -2.71051e-20)
(17.452 0.0485418 -1.86347e-20)
(17.1425 0.198055 5.42101e-20)
(17.2928 0.138802 -5.42101e-20)
(16.9084 0.290752 -2.1684e-19)
(17.0101 0.225645 5.42101e-20)
(17.4307 0.0235042 -5.0822e-21)
(17.0545 0.234839 0)
(17.2107 0.12367 -5.42101e-20)
(16.6836 0.236958 5.42101e-20)
(17.1077 0.127759 -1.69407e-21)
(17.1672 0.0972628 2.71051e-20)
(16.9242 0.158369 -5.42101e-20)
(16.7388 0.185183 -1.0842e-19)
(17.0006 0.0706159 3.38813e-20)
(16.261 0.3032 5.42101e-20)
(16.2792 0.367757 2.1684e-19)
(16.832 0.0834454 -3.38813e-21)
(16.8234 0.0720268 -8.13152e-20)
(16.4705 0.236795 2.1684e-19)
(16.1765 0.310749 2.1684e-19)
(16.3982 0.186274 2.71051e-20)
(16.3768 0.210723 0)
(16.0268 0.51631 -2.1684e-19)
(16.2404 0.214038 -5.42101e-20)
(16.0252 0.378836 -1.6263e-19)
(16.2522 0.041408 -5.0822e-21)
(16.0432 0.172278 5.42101e-20)
(16.0445 0.132876 2.71051e-20)
(15.9207 0.246651 -1.0842e-19)
(16.1031 0.0295651 0)
(15.8931 0.22302 0)
(15.7839 0.238113 0)
(15.9385 0.0927459 0)
(15.9689 0.0812693 2.03288e-20)
(15.7206 0.283457 0)
(15.7505 0.160973 0)
(15.8958 0.0502037 0)
(15.7168 0.213065 -1.35525e-19)
(15.7249 0.168204 5.42101e-20)
(15.7594 0.119594 -2.71051e-20)
(15.359 0.577624 -2.1684e-19)
(15.4812 0.261096 -2.71051e-20)
(15.5851 0.13302 5.42101e-20)
(15.3324 0.498322 -1.0842e-19)
(15.6034 0.0882392 -5.42101e-20)
(15.3863 0.176604 4.06576e-20)
(15.3105 0.206938 -5.42101e-20)
(15.4028 0.110393 0)
(15.1695 0.284535 0)
(15.2606 0.0958082 1.35525e-20)
(15.2048 0.127616 6.77626e-21)
(15.2524 0.0117612 0)
(14.9722 0.331766 0)
(15.0597 0.194709 -1.01644e-20)
(15.0917 0.13279 -2.71051e-20)
(15.1029 0.096914 -2.71051e-20)
(14.9405 0.165396 0)
(14.731 0.257707 8.13152e-20)
(14.709 0.265239 0)
(14.75 0.105543 0)
(14.6848 0.194645 -7.45389e-20)
(14.6381 0.258454 -1.0842e-19)
(14.593 0.596612 -2.1684e-19)
(14.698 0.0351613 -2.71051e-20)
(14.6191 0.232211 -1.0842e-19)
(14.5473 0.167239 2.71051e-20)
(14.5351 0.402139 -2.1684e-19)
(14.4572 0.372002 -1.0842e-19)
(14.4541 0.0961044 2.71051e-20)
(14.3652 0.22798 -1.0842e-19)
(14.3799 0.0393679 6.77626e-21)
(14.3497 0.00507031 8.47033e-22)
(14.2895 0.243179 -5.42101e-20)
(14.2644 0.0592269 -2.71051e-20)
(14.2482 0.203017 1.35525e-20)
(14.2385 0.216214 5.42101e-20)
(14.1568 0.0384006 1.69407e-21)
(14.1545 0.0932044 1.35525e-20)
(14.1036 0.318133 2.1684e-19)
(22.2383 -4.72571e-34 4.12406e-36)
(22.8359 -4.21919e-34 3.68203e-36)
(24.0513 -3.18914e-34 2.78312e-36)
(22.9294 -4.13996e-34 3.61289e-36)
(22.0934 -4.84848e-34 4.23121e-36)
(23.5821 -3.58679e-34 3.13015e-36)
(23.1708 -3.93541e-34 3.43438e-36)
(24.3963 -2.89675e-34 2.52796e-36)
(23.0845 -4.00851e-34 3.49817e-36)
(24.3987 -2.89471e-34 2.52618e-36)
(24.0052 -3.22816e-34 2.81717e-36)
(20.9175 -5.84512e-34 5.10096e-36)
(23.5428 -3.62012e-34 3.15923e-36)
(23.0372 -4.04861e-34 3.53317e-36)
(21.6671 -5.2098e-34 4.54652e-36)
(23.8379 -3.36996e-34 2.94092e-36)
(23.0432 -4.04355e-34 3.52876e-36)
(24.2476 -3.02273e-34 2.63789e-36)
(22.5818 -4.43454e-34 3.86996e-36)
(21.9196 -4.99583e-34 4.35979e-36)
(23.1178 -3.98032e-34 3.47357e-36)
(20.5211 -6.18105e-34 5.39412e-36)
(23.2849 -3.83864e-34 3.34993e-36)
(23.2008 -2.83993e-34 2.47837e-36)
(22.2053 -4.75363e-34 4.14843e-36)
(21.4604 -5.38495e-34 4.69937e-36)
(24.2416 -3.02782e-34 2.64234e-36)
(21.1651 -5.63523e-34 4.91779e-36)
(20.3887 -6.29327e-34 5.49206e-36)
(23.4398 -3.70742e-34 3.23541e-36)
(21.013 3.61546e-06 -6.41038e-17)
(22.0778 -4.8617e-34 4.24274e-36)
(24.2106 -3.05414e-34 2.66531e-36)
(22.2943 3.06604e-25 -2.67569e-27)
(22.3754 -4.60951e-34 4.02266e-36)
(21.5851 -5.27925e-34 4.60713e-36)
(21.099 -5.69124e-34 4.96667e-36)
(23.3681 -3.76812e-34 3.28839e-36)
(23.078 -4.01401e-34 3.50297e-36)
(21.921 -4.99464e-34 4.35876e-36)
(23.3418 -3.79042e-34 3.30785e-36)
(21.97 -4.95307e-34 4.32248e-36)
(23.5261 -3.63424e-34 3.17155e-36)
(23.5316 -3.62959e-34 3.1675e-36)
(23.8511 -3.3588e-34 2.93118e-36)
(22.4548 -4.54222e-34 3.96394e-36)
(22.9318 5.43827e-25 -4.7459e-27)
(23.5083 3.19346e-33 3.42384e-35)
(24.2458 -3.02427e-34 2.63924e-36)
(20.7318 -6.00246e-34 5.23826e-36)
(22.0378 -4.89558e-34 4.27231e-36)
(20.3061 -6.36326e-34 5.55313e-36)
(23.561 -3.60466e-34 3.14574e-36)
(23.3547 -3.77953e-34 3.29835e-36)
(22.9521 -4.12074e-34 3.59612e-36)
(23.0316 -4.05337e-34 3.53732e-36)
(24.1767 -3.08288e-34 2.69039e-36)
(23.4574 -3.69248e-34 3.22238e-36)
(22.8195 -4.23308e-34 3.69415e-36)
(24.414 1.42669e-34 -1.24505e-36)
(21.2516 -5.56193e-34 4.85382e-36)
(21.974 -4.94966e-34 4.3195e-36)
(24.2221 -3.0444e-34 2.6568e-36)
(21.7961 -5.10045e-34 4.45109e-36)
(23.0797 -4.0126e-34 3.50174e-36)
(22.3139 -4.66162e-34 4.06814e-36)
(20.4132 -6.27249e-34 5.47392e-36)
(24.1802 -3.07987e-34 2.68777e-36)
(21.1732 -5.62837e-34 4.9118e-36)
(23.5908 -3.57937e-34 3.12367e-36)
(23.3817 -3.75661e-34 3.27834e-36)
(20.0873 -6.54873e-34 5.71499e-36)
(23.4294 -3.71624e-34 3.24311e-36)
(23.1733 -3.93323e-34 3.43247e-36)
(21.4227 -5.41692e-34 4.72728e-36)
(21.3597 -5.47032e-34 4.77388e-36)
(21.9543 -4.96637e-34 4.33409e-36)
(22.5328 0.232666 1.0842e-19)
(21.6192 -5.25037e-34 4.58193e-36)
(22.9786 -4.09828e-34 3.57651e-36)
(22.4317 -4.5618e-34 3.98102e-36)
(22.4229 -4.56924e-34 3.98752e-36)
(23.261 1.50283e-33 1.98503e-35)
(20.0499 1.23764e-31 1.09155e-33)
(23.4578 -3.69217e-34 3.2221e-36)
(23.0777 -4.0143e-34 3.50322e-36)
(23.1698 -3.93621e-34 3.43508e-36)
(20.7183 2.87257e-06 -5.87735e-16)
(21.8424 -5.06118e-34 4.41683e-36)
(22.3385 -4.64075e-34 4.04992e-36)
(23.4806 -3.67279e-34 3.20519e-36)
(22.3509 -4.63024e-34 4.04075e-36)
(23.6934 -3.49249e-34 3.04785e-36)
(21.7503 -5.1393e-34 4.485e-36)
(23.8999 -3.31745e-34 2.8951e-36)
(23.0357 -4.04985e-34 3.53425e-36)
(23.1247 -3.97442e-34 3.46842e-36)
(23.5907 -3.57945e-34 3.12374e-36)
(20.0115 -6.61295e-34 5.77103e-36)
(19.9042 -6.70385e-34 5.85036e-36)
(23.4099 -3.73276e-34 3.25753e-36)
(22.8938 -4.17014e-34 3.63923e-36)
(21.8706 -5.03729e-34 4.39598e-36)
(23.6239 -3.55137e-34 3.09924e-36)
(23.6854 -3.49927e-34 3.05376e-36)
(22.4576 -4.53978e-34 3.96181e-36)
(24.0552 -3.18581e-34 2.78021e-36)
(24.1769 -3.08268e-34 2.69021e-36)
(19.8612 -6.74033e-34 5.8822e-36)
(22.3352 -4.64358e-34 4.05239e-36)
(23.8676 -3.34479e-34 2.91895e-36)
(20.4762 -6.21909e-34 5.42732e-36)
(24.2993 -2.97896e-34 2.5997e-36)
(19.896 -6.71084e-34 5.85646e-36)
(23.5391 -3.62326e-34 3.16197e-36)
(20.2376 -6.4213e-34 5.60379e-36)
(22.666 -4.36317e-34 3.80768e-36)
(23.7071 -3.48088e-34 3.03772e-36)
(22.8076 -4.24319e-34 3.70298e-36)
(24.2241 -3.04269e-34 2.65532e-36)
(21.7758 -5.11769e-34 4.46614e-36)
(20.172 -6.47694e-34 5.65234e-36)
(24.0096 -3.2245e-34 2.81398e-36)
(21.7293 -5.15706e-34 4.50049e-36)
(21.8439 -5.05995e-34 4.41575e-36)
(22.1267 -4.82026e-34 4.20657e-36)
(24.2785 -2.99661e-34 2.6151e-36)
(23.6635 -3.5178e-34 3.06994e-36)
(20.0162 -6.60901e-34 5.76759e-36)
(24.3649 -2.92332e-34 2.55115e-36)
(19.7161 -6.86333e-34 5.98954e-36)
(20.1176 -6.52305e-34 5.69258e-36)
(22.9498 9.53246e-25 8.31885e-27)
(23.9458 2.63976e-07 -1.14653e-17)
(22.6334 -4.39082e-34 3.83181e-36)
(22.0731 -4.86573e-34 4.24626e-36)
(21.9495 5.11398e-23 -4.46291e-25)
(24.3752 2.55707e-24 2.23152e-26)
(19.6792 -6.89459e-34 6.01682e-36)
(24.4523 -2.84923e-34 2.48649e-36)
(21.0961 -5.69373e-34 4.96884e-36)
(24.2227 -3.04382e-34 2.6563e-36)
(22.8762 -4.18506e-34 3.65225e-36)
(19.8286 -6.76794e-34 5.90629e-36)
(19.6316 -6.93491e-34 6.05201e-36)
(21.221 -5.58789e-34 4.87648e-36)
(21.7316 -5.15511e-34 4.49879e-36)
(24.1399 -3.11402e-34 2.71756e-36)
(22.5376 -4.47198e-34 3.90264e-36)
(21.7895 -5.10607e-34 4.456e-36)
(19.9709 -6.64737e-34 5.80107e-36)
(23.9477 1.28102e-34 -1.11793e-36)
(22.205 -4.7539e-34 4.14867e-36)
(21.2931 -5.52678e-34 4.82315e-36)
(21.4067 -5.43051e-34 4.73914e-36)
(19.936 2.37296e-25 -2.07085e-27)
(20.8408 5.5883e-27 4.87683e-29)
(22.162 -4.79037e-34 4.1805e-36)
(22.3595 -4.62297e-34 4.0344e-36)
(20.8288 -5.92031e-34 5.16658e-36)
(21.4421 -5.4005e-34 4.71295e-36)
(22.4491 -4.54707e-34 3.96817e-36)
(21.8536 -5.05171e-34 4.40856e-36)
(20.4575 -6.23493e-34 5.44114e-36)
(21.4504 -5.39345e-34 4.70679e-36)
(21.0464 -5.73586e-34 5.00561e-36)
(20.1888 -6.46266e-34 5.63987e-36)
(19.4408 -7.0966e-34 6.19311e-36)
(19.4423 -7.09536e-34 6.19202e-36)
(23.2263 -3.8883e-34 3.39327e-36)
(22.3373 -4.64176e-34 4.0508e-36)
(20.4686 -6.22559e-34 5.43299e-36)
(23.111 -3.98608e-34 3.4786e-36)
(24.2892 -2.98753e-34 2.60717e-36)
(21.4967 -5.35423e-34 4.67257e-36)
(23.7882 3.26552e-33 -2.84977e-35)
(19.3925 -7.1376e-34 6.22889e-36)
(20.721 5.05229e-05 -1.03371e-14)
(20.7925 -5.95105e-34 5.19341e-36)
(23.0097 -4.07193e-34 3.55352e-36)
(20.8735 -5.88242e-34 5.13351e-36)
(20.0397 -6.58908e-34 5.7502e-36)
(20.1471 -6.49802e-34 5.67074e-36)
(19.7887 1.60847e-05 6.82579e-17)
(22.7772 -4.26892e-34 3.72543e-36)
(22.2145 -4.74587e-34 4.14166e-36)
(23.0003 -4.07986e-34 3.56044e-36)
(21.0389 -5.74222e-34 5.01116e-36)
(19.2748 5.32426e-24 4.64641e-26)
(21.718 -1.20077e-34 1.04789e-36)
(21.1792 -5.62327e-34 4.90735e-36)
(21.9527 -4.96775e-34 4.33529e-36)
(20.3858 -6.29574e-34 5.49421e-36)
(21.4106 -5.42714e-34 4.73619e-36)
(21.3304 -5.49518e-34 4.79557e-36)
(23.1819 -3.92592e-34 3.4261e-36)
(19.2054 9.13159e-26 7.96902e-28)
(19.2024 -7.29865e-34 6.36944e-36)
(21.2548 -5.5592e-34 4.85144e-36)
(19.1952 -7.30477e-34 6.37477e-36)
(19.1936 -7.30613e-34 6.37596e-36)
(23.1953 -3.91459e-34 3.41621e-36)
(21.8969 -5.01504e-34 4.37656e-36)
(24.3788 0.444928 4.33681e-19)
(19.1726 -7.3239e-34 6.39147e-36)
(24.1154 0.377781 1.0842e-19)
(24.1706 0.423516 -1.0842e-19)
(24.491 0.220766 -5.42101e-20)
(19.4186 -7.11542e-34 6.20953e-36)
(24.404 0.267604 0)
(24.4891 0.180654 5.42101e-20)
(24.4556 0.16123 0)
(24.3503 0.125172 1.69407e-20)
(24.2058 0.212614 -1.0842e-19)
(24.2954 0.151118 2.71051e-20)
(24.2311 0.186367 8.13152e-20)
(24.2308 0.00868998 0)
(24.3414 0.121147 -8.80914e-20)
(24.2198 0.200841 1.0842e-19)
(24.2693 0.0513741 0)
(24.041 0.126977 0)
(23.2078 -3.90402e-34 3.40699e-36)
(24.0507 0.0875536 -5.42101e-20)
(24.0329 0.0597981 0)
(23.7244 0.253387 5.42101e-20)