/*--------------------------------*- C++ -*----------------------------------*\
  =========                 |
  \\      /  F ield         | OpenFOAM: The Open Source CFD Toolbox
   \\    /   O peration     | Website:  https://openfoam.org
    \\  /    A nd           | Version:  7
     \\/     M anipulation  |
\*---------------------------------------------------------------------------*/
FoamFile
{
    version     2.0;
    format      ascii;
    class       labelField;
    location    "0.7/lagrangian/reactingCloud1";
    object      origId;
}
// * * * * * * * * * * * * * * * * * * * * * * * * * * * * * * * * * * * * * //


2449
(
3954
3956
3957
3958
3959
3960
3961
3962
3963
3964
3965
3966
3967
3968
3969
3970
3971
3972
3973
3974
3975
3976
3977
3978
3979
3980
3981
3982
3983
3984
3985
3986
3987
3988
3989
3990
3991
3992
3993
3994
3995
3996
3406
3801
3811
3836
3825
3861
3854
3892
3893
3894
3896
3897
3898
3899
3900
3901
3902
3903
3904
3905
3906
3908
3907
3909
3910
3911
3912
3913
3914
3916
3915
3917
3918
3920
3919
3921
3923
3922
3924
3925
3926
3927
3928
3929
3930
3931
3932
3933
3934
3935
3936
3938
3937
3939
3940
3941
3943
3942
3944
3946
3945
3948
3947
3950
3951
3952
3949
3953
3955
3869
3871
3875
3876
3874
3873
3872
3879
3877
3878
3886
3885
3884
3883
3888
3887
3889
3891
3881
3882
3890
3895
3880
3857
3859
3865
3866
3862
3868
3870
3864
3863
3786
3867
3846
3843
3837
3841
3845
3849
3847
3850
3848
3817
3855
3853
3851
3860
3852
3858
3856
3784
3826
3828
3827
3815
3832
3829
3821
3830
3834
3831
3838
3833
3835
3839
3840
3844
3842
2771
3794
3799
3731
3789
3798
3803
3800
3806
3797
3805
3804
3808
3807
3812
3809
3813
3810
3816
3814
3822
3820
3818
3824
3802
3823
3819
3558
3756
3757
3753
3743
3755
3758
3760
3763
3761
3764
3765
3762
3767
3766
3772
3773
3698
3769
3774
3768
3775
3706
3783
3776
3779
3771
3780
3781
3777
3787
3788
3790
3770
3759
3792
3785
3793
3782
3791
3778
3795
3796
665
1960
2247
2829
1859
3403
3672
3675
3686
3477
3696
3694
3699
3702
3683
3693
3704
3668
3705
3708
3701
3700
3523
3707
3697
3710
3680
3713
3714
3712
3718
3719
3711
3709
3715
3666
3716
3720
3691
3721
3446
3724
3725
3722
3717
3728
3727
3732
3729
3735
3734
3703
3739
3741
3737
3726
3738
3736
3723
3746
3742
3733
3744
3598
3740
3748
3750
3749
3747
3730
3752
3745
3751
3754
583
881
1063
204
1365
1932
1990
2197
2365
2539
2516
2887
2519
3110
3556
3527
3612
3616
3613
3625
3600
3619
3620
3624
3632
3635
3634
3637
3630
3639
3640
3642
3645
3649
3633
3629
3647
3651
3652
3648
3654
3657
3655
3557
3658
3641
3646
3659
3650
3644
3623
3661
3636
3662
3664
3663
3638
3665
3667
3627
3643
3628
3670
3660
3674
3676
3673
3678
3653
3656
3669
3685
3682
3679
3688
3681
3687
3689
3690
3671
3631
3677
3695
3684
3692
604
759
990
1020
326
1393
1482
1496
1574
1776
2014
1848
1686
2119
2229
2278
2414
2668
2689
2141
2730
2759
2768
2777
2799
2811
2879
2880
2937
2982
3043
1696
3205
2401
3227
3056
3256
3228
3302
3306
3342
3431
3495
3534
3526
3542
3539
3549
3546
3533
3551
3554
3541
3564
3565
3535
3560
3545
3566
3559
3563
3562
3555
3570
3561
3543
3569
3571
3568
3573
3578
3572
3335
3584
3581
1009
3475
3576
3577
3589
3579
3567
3590
3583
3593
3522
3496
3596
3548
3588
3599
3586
3574
3594
3582
3604
3585
3602
3606
3580
3575
3592
3609
3601
3605
3607
3587
3611
3610
3603
3591
3618
3615
3614
3608
3621
3595
3626
3622
3617
3597
190
295
345
382
540
560
630
698
758
790
794
922
1089
1115
1251
1260
1364
1400
1672
1701
1752
1780
657
1875
1961
2033
784
2043
2048
1996
2112
2215
2246
2257
2336
2319
2358
2478
2364
2479
2502
2496
2527
2538
2545
2561
2570
2669
2681
2288
2737
2736
2770
2779
115
2830
2843
2861
2893
2903
2989
3084
1405
3137
3178
3196
2499
3297
3201
2717
3327
3361
3364
3384
3313
3382
2304
3386
3383
3399
3418
3381
3430
3434
3355
3427
3425
3435
2884
3439
3400
3444
3448
3445
3409
3416
3436
3449
3447
3433
3428
3456
3440
3407
3432
3453
3443
3423
3461
3340
3455
3463
3460
3462
3466
3419
3470
3465
3473
3467
3457
3464
3474
3377
3437
3480
3471
3451
3454
3368
3429
3483
3469
3478
3438
3481
3476
3468
3458
3479
3452
3450
3493
3494
3487
3279
3490
3472
3411
3498
3391
3486
3482
3485
3489
3505
3507
3488
3508
3492
3484
3504
3517
3497
3513
3510
3394
3502
3503
3405
3499
3459
3511
3516
3500
3521
3524
3528
3398
3518
3525
3531
3532
3515
3491
3519
3512
3501
3442
3544
3514
3530
3506
3520
3547
3536
3550
3162
3537
3552
3529
3540
3538
3553
3509
3
27
28
2
30
48
50
54
53
65
61
106
141
175
176
241
239
330
323
335
317
199
422
408
447
549
593
621
419
631
738
752
775
743
747
780
814
830
856
854
853
901
909
928
923
915
940
952
997
1001
956
1013
1039
1079
1064
1144
1179
1167
1198
1142
1196
1199
1206
1215
1262
1275
1247
1318
1311
1286
150
1356
1371
973
1378
1387
1375
67
1374
1384
1407
1420
1418
174
1447
1462
1512
1507
1517
1535
1519
1536
1561
1600
1595
1589
1582
1611
1624
480
1532
1665
1608
1722
1756
1749
1736
1775
1002
1841
1827
1863
1829
1840
1895
1879
1935
1899
1825
1871
1914
1951
1802
1997
1974
1928
1907
2046
2052
2087
1252
2149
2166
2176
2185
2115
2211
2209
2065
2219
2181
2245
2305
2320
1319
2332
2352
2357
2388
2386
2475
2472
2477
2487
2493
2509
2521
2461
2572
2605
2558
2602
2633
2644
2643
2706
2724
684
2032
2606
2766
2792
2797
2812
2776
2842
1609
2845
2852
2857
2885
2896
2936
2925
2965
3028
3032
3034
1321
3091
3098
3109
3086
3147
3204
3194
2590
2794
3248
1164
2417
3236
3223
3169
2837
3229
3246
3267
3247
3238
3252
3280
3293
3258
3268
3250
3243
3285
3296
3183
3272
3263
3282
3288
3291
3219
3270
3298
3176
3305
3265
3308
3245
3290
3301
3262
3253
3281
3329
3241
3206
3328
3320
3330
1645
3309
3255
3316
3333
3331
3283
3312
3277
3321
3323
3318
3289
3299
3107
3303
3266
3315
3351
3343
3284
3346
3344
3295
3271
3311
3294
3354
3358
3326
3352
3325
3357
3317
3310
3276
3332
3356
3319
3304
3348
3274
3190
3300
3287
3350
3275
3370
3347
3193
3369
3380
3339
3385
3240
3371
3337
3334
3338
3322
3367
3392
3373
3345
3379
3359
3388
3360
3376
3375
3314
3341
3396
3363
3349
3365
3374
3395
3362
3387
3401
3389
3324
3410
3414
3286
3307
3402
3378
3420
3421
3424
3404
3336
3422
3390
3412
3366
3426
3397
3415
3393
3353
3413
3417
3441
3372
3408
5
25
31
29
24
22
37
18
39
58
82
90
7
111
146
148
158
132
89
205
238
218
270
235
281
283
311
392
366
450
461
413
444
524
546
320
350
556
570
584
582
609
597
624
664
623
729
721
764
812
708
859
898
912
921
896
945
910
946
965
707
966
917
938
888
1036
1040
365
1017
1038
1096
933
1023
1135
1192
1134
1250
1226
1327
1309
1330
1293
1334
1367
1146
1345
1346
695
1458
1443
1234
1474
1546
1567
1504
1575
1588
1621
1642
1657
1700
1682
1690
110
1734
1747
1789
1765
1781
1788
460
1821
1868
1860
1887
1883
1819
1885
947
837
1976
2053
193
2092
2081
2106
2042
2110
2113
2101
2164
2154
2170
2270
2299
2178
948
2351
1977
2353
2326
2425
2435
2423
2371
2430
301
2463
2466
2469
627
2518
134
2524
2564
2550
2560
2584
2613
2537
2626
2580
2639
2646
2695
2616
2711
2714
2751
2690
2756
105
2783
2840
2500
2838
2814
2801
2921
2895
2862
2953
2943
2958
3006
2772
3017
2968
2978
3029
1268
3010
3037
3067
2415
2991
3027
2948
3076
3065
3125
3061
3071
3093
3114
3096
2933
3134
3072
3106
3078
3083
3108
3113
1031
3004
3140
2259
3132
3092
3052
3115
3124
3123
3148
3158
3060
3126
3039
3156
3142
3145
2969
2891
3094
3127
3166
3153
3164
2918
3161
3154
3139
2975
3122
3175
3089
3182
3097
3163
3152
3135
3185
3117
3184
3136
3111
3191
3192
3167
3180
3066
3177
3159
3186
3104
3211
3203
3112
3208
3210
3170
3173
3120
3181
3217
3197
3160
3171
3215
3101
3188
3149
3141
3214
3074
3138
3199
3221
3119
3146
3209
3100
3207
3174
3216
3130
3179
3144
3224
3213
3151
3237
3155
1872
3172
3187
3202
3150
3218
3235
3212
3230
3232
636
3226
2957
3165
3251
3189
3143
3168
3254
3133
3198
3234
3131
3231
3225
3200
3157
3264
3220
3239
3233
3278
3242
3222
3244
3260
3257
3195
3249
3273
532
3292
3259
3261
3269
10
36
45
33
21
46
81
60
161
157
138
166
186
257
252
245
297
251
256
405
407
421
420
432
398
456
341
516
528
403
11
619
654
663
669
715
713
717
714
766
801
756
836
466
893
873
880
902
972
949
1004
988
1003
1074
1104
1113
1173
1212
1241
1232
1242
878
1269
1320
1354
1355
1372
1382
1385
1370
1390
1444
1435
1391
1452
1459
1484
1495
1531
1434
1539
1483
1537
603
1635
1631
1648
1689
1647
1673
1671
1718
13
1716
1720
1743
1751
1728
1767
1754
1771
1762
1758
1778
1741
1809
1833
1808
1852
1850
1878
1874
1846
1814
1888
1908
1913
1886
1936
1927
1909
1791
1892
2012
1982
2026
1993
2049
2058
20
2078
1920
1956
2009
2019
2064
2103
2151
2107
2133
2188
2179
2190
2118
2214
2202
2237
2180
2072
2265
1619
2325
2340
2275
2373
2396
2302
2307
2434
2420
2470
2339
2484
1707
2464
2445
2350
2490
2541
1799
2557
639
2529
723
457
2619
2659
2641
2604
2729
2739
2699
694
188
2787
2767
2782
2813
2778
2826
2755
2781
2607
2796
2630
2870
2700
2851
2785
2856
2841
2743
2740
2910
2894
2818
2849
2713
2881
2899
2886
2820
2726
2795
2902
2888
2652
2920
2815
2874
2913
2934
2904
2912
2272
2817
2808
2898
2889
2929
2897
2915
2917
2890
2928
2876
2946
2939
2844
2786
2692
2907
2807
2784
2926
2935
2855
2954
2944
2930
2949
2916
2940
2923
2942
2919
2859
2962
2938
2821
2728
2924
2810
1828
2834
2950
2853
2961
2900
2973
2905
2985
2835
2927
2805
2951
2952
2872
2877
2995
2908
2909
2825
2955
3003
2983
2986
2993
2901
2980
3002
2800
2847
2931
2963
3011
2984
3012
2945
2922
2981
3008
2864
3018
2990
2998
2966
2996
2970
3030
2959
2932
3021
2960
3023
3031
3025
2882
3020
3024
3051
2956
2941
2999
3046
2976
3000
2992
2914
3038
2994
2974
3064
3063
3062
2964
2967
2997
3049
3069
3033
3035
2988
3054
2987
3015
2977
3048
2824
3016
2947
3055
3075
3050
3044
3007
3077
3073
3045
2979
3041
3009
3068
3013
3022
3047
3070
3040
3095
3001
2871
3014
3088
3005
2223
3042
3058
3103
34
2972
3087
3057
3080
3105
3036
3081
3082
3059
3121
3102
3090
883
3026
2971
3099
3129
3053
3019
3116
3085
3128
3118
3079
1
19
78
64
17
62
113
108
142
126
12
63
133
144
135
80
102
177
203
221
209
243
288
93
332
363
375
381
344
269
321
342
388
315
445
437
446
417
423
383
481
501
478
509
526
500
536
489
485
545
498
527
559
496
618
605
585
645
701
739
749
690
767
734
136
705
822
810
757
804
826
803
874
813
882
914
911
778
943
871
962
969
487
960
937
1010
955
950
974
934
1008
998
808
1050
976
1037
1093
1112
1082
211
1097
1130
1156
1154
1137
1211
1225
1180
1006
1228
1261
1283
1276
1259
1287
1343
1389
1348
1339
1363
1399
1347
1417
1440
1436
1454
1411
1412
1282
1470
1481
1396
1527
1503
629
1508
1477
1551
1547
1571
1541
128
1610
1326
1674
1658
1692
1746
1723
1753
1687
1697
1705
1688
1835
1810
1485
1818
1880
1838
1910
1870
1904
1773
1937
1889
1965
1911
1890
114
1972
1857
1963
1855
1984
1962
2041
2031
2015
2062
2027
2108
1985
2138
2137
2157
2148
2063
2128
2061
2088
2201
2177
2127
2218
967
2183
1980
2114
2244
2094
2239
2283
2308
2309
2250
2313
2203
2189
2169
2221
2324
2256
2368
2318
2342
2335
2143
2311
2356
2295
2338
2297
2363
2370
2277
2327
2398
2376
2140
2390
2253
2402
2291
2346
2174
2394
2300
2377
2292
2407
2381
2345
2279
2392
2344
2361
2290
2379
2409
2235
2411
2155
2410
2408
2403
2347
2208
2175
2443
2421
2240
2437
2383
2226
2329
2450
2439
2429
2457
2424
2440
2323
2387
2422
298
2441
2374
2382
2328
2458
2303
2448
2393
2306
2406
2432
2263
2471
2380
2428
2372
2378
2447
2224
2488
2455
2473
2468
2412
2367
2485
2436
2444
2454
2492
2486
2476
2507
2198
2395
2467
2413
2431
2453
2419
2512
2462
2494
2426
2281
2333
2501
2385
384
2498
2255
2449
2433
2506
2480
2482
2397
2343
2438
2465
2459
2548
2369
2416
2491
2366
2451
2442
2460
2404
2510
2530
2452
2504
2528
2542
2505
2522
2534
69
2555
2405
2517
2483
2581
2456
899
2503
2536
2526
2563
2418
2579
2384
2562
2355
2523
2554
2391
2588
2511
2569
2583
2567
2547
2544
2571
2553
2551
2591
2399
2568
2576
2400
1080
2533
2559
2341
2546
2495
2525
2427
2573
2587
2532
2514
2489
2497
2614
2597
2594
2608
2621
2595
2360
2535
2592
2617
2637
2575
2618
2531
2574
2596
2609
2610
2601
2628
2622
2638
2676
2585
2593
2673
2565
2314
2513
2661
2650
2582
2615
2655
2651
2674
2552
2634
2691
2556
2612
2647
2586
2696
2672
2685
2515
2684
2549
2660
2656
2702
2662
2540
2663
2446
2508
2611
2620
2686
1614
2632
2665
2645
2677
2589
2566
2710
2598
2654
2635
2678
2657
2670
2578
2731
2693
2688
2703
2481
1554
2733
2599
2636
2723
2745
2667
2697
2640
2680
2707
2738
2623
2754
2664
2577
2720
2721
2757
2709
88
2679
2694
2716
2474
2712
2744
2642
2725
2687
2749
2752
2722
2705
2746
2520
2666
2758
2732
2683
2719
2715
2600
2763
2761
2748
2698
2648
2603
2747
2762
2790
622
2803
2765
2675
2682
2764
2750
2658
2735
2701
2718
2631
2543
2773
2734
2793
2649
2828
2625
2832
2627
2624
2806
2742
2704
2769
2708
2831
2802
2788
2798
2775
2827
59
2822
2741
2833
2848
2760
2780
2875
2839
2869
2653
2791
2846
2866
2753
2816
2836
2789
2774
2823
2863
2671
2629
2860
2804
2850
2868
2727
2858
2867
2906
2883
2854
772
2878
2911
2892
2819
2865
2809
2873
)


// ************************************************************************* //
