/*--------------------------------*- C++ -*----------------------------------*\
  =========                 |
  \\      /  F ield         | OpenFOAM: The Open Source CFD Toolbox
   \\    /   O peration     | Website:  https://openfoam.org
    \\  /    A nd           | Version:  7
     \\/     M anipulation  |
\*---------------------------------------------------------------------------*/
FoamFile
{
    version     2.0;
    format      ascii;
    class       Cloud<passiveParticle>;
    location    "0.7/lagrangian/reactingCloud1";
    object      positions;
}
// * * * * * * * * * * * * * * * * * * * * * * * * * * * * * * * * * * * * * //

2449
(
(0.476625 0.260861 0.153386 0.109129) 2858 5740 1
(0.536975 0.229267 0.233516 0.000241897) 2872 5633 1
(0.0965996 0.449181 0.251888 0.202331) 2806 5502 1
(0.227359 0.385658 0.335319 0.0516637) 2681 5389 1
(0.0384481 0.22672 0.481614 0.253218) 2658 5211 2
(0.0426345 0.478516 0.458842 0.020007) 2524 5077 1
(0.825534 0.0871139 0.0490761 0.0382764) 2481 4860 1
(0.36464 0.1025 0.318507 0.214354) 2385 4801 2
(0.256171 0.371017 0.331351 0.0414616) 2320 4538 1
(0.422654 0.287858 0.0685059 0.220983) 2270 4438 1
(0.0741505 0.460577 0.108003 0.357269) 2221 4341 1
(0.0615596 0.468278 0.372143 0.0980199) 2056 4148 1
(0.564191 0.217763 0.199303 0.0187435) 1974 3985 1
(0.47914 0.260164 0.197904 0.0627919) 1963 3830 1
(0.0901542 0.321935 0.132636 0.455275) 1854 3613 2
(0.0686487 0.22355 0.241938 0.465863) 1790 3486 2
(0.162658 0.418196 0.0304127 0.388734) 1736 3378 1
(0.041881 0.278685 0.482089 0.197345) 1585 3213 2
(0.271071 0.332435 0.367282 0.0292116) 1504 3052 2
(0.0349333 0.482533 0.127995 0.354538) 1431 2773 1
(0.602355 0.198452 0.155482 0.0437116) 1369 2784 1
(0.396081 0.30196 0.0973375 0.204622) 1321 2555 1
(0.645751 0.177124 0.146073 0.0310512) 1267 2448 1
(0.112532 0.342219 0.443734 0.101515) 1185 2287 2
(0.0860653 0.322938 0.13403 0.456967) 1110 2136 2
(0.372842 0.183785 0.129794 0.313579) 1051 2019 2
(0.375698 0.0921697 0.219144 0.312989) 964 1845 2
(0.153171 0.108219 0.315196 0.423415) 955 1828 2
(0.498047 0.250027 0.110115 0.14181) 894 1706 1
(0.421582 0.288855 0.0340153 0.255548) 836 1591 1
(0.101915 0.349633 0.0965901 0.451862) 753 1426 2
(0.426923 0.284156 0.114341 0.17458) 724 1369 1
(0.0267264 0.48577 0.0762911 0.411213) 636 1194 1
(0.345009 0.0804639 0.246361 0.328166) 551 1025 2
(0.0395039 0.215172 0.263189 0.482136) 486 896 2
(0.270218 0.0498715 0.314489 0.365422) 428 781 2
(0.128574 0.187294 0.246291 0.437841) 363 652 2
(0.204733 0.320604 0.0742655 0.400398) 281 489 2
(0.449725 0.0949404 0.275138 0.180197) 258 447 2
(0.481569 0.258546 0.0174136 0.242472) 191 311 1
(0.389007 0.305375 0.0123576 0.29326) 85 100 1
(0.503217 0.248816 0.213184 0.0347831) 26 315151 1
(0.328115 0.335549 0.117977 0.21836) 3810 7496 1
(0.0134981 0.260874 0.233168 0.492461) 5515 10881 2
(0.338932 0.328405 0.0516746 0.280988) 4082 8170 1
(0.460823 0.25555 0.268249 0.0153778) 6121 12086 2
(0.312255 0.155416 0.343056 0.189274) 6188 12219 2
(0.514387 0.241605 0.0805788 0.163429) 5440 10867 1
(0.574583 0.212271 0.156204 0.056943) 5783 11547 1
(0.0935297 0.362919 0.0922305 0.451321) 6469 12775 2
(0.581574 0.20883 0.0436894 0.165907) 6471 12778 1
(0.183411 0.104405 0.40936 0.302824) 6478 12927 2
(0.127618 0.330463 0.107469 0.434451) 6268 12376 2
(0.343637 0.152368 0.327379 0.176616) 6271 12384 2
(0.45822 0.227802 0.274054 0.0399244) 6355 12683 2
(0.913143 0.0436436 0.0410188 0.00219445) 5992 11828 1
(0.29483 0.176307 0.177178 0.351685) 5854 11554 2
(0.415723 0.130573 0.162248 0.291457) 6071 11985 2
(0.0591379 0.471349 0.174028 0.295486) 6081 12005 1
(0.234447 0.0975956 0.382278 0.285679) 5858 11564 2
(0.698622 0.0502745 0.151192 0.0999118) 5865 11710 2
(0.00159032 0.500437 0.278295 0.219677) 5797 11441 1
(0.317167 0.342802 0.0714347 0.268597) 5879 11606 1
(0.058745 0.468554 0.219763 0.252938) 5447 10880 1
(0.111686 0.437371 0.220237 0.230706) 5899 11778 1
(0.615865 0.0691351 0.193302 0.121698) 5751 11484 2
(0.42668 0.129449 0.288818 0.155054) 5681 11345 2
(0.0617473 0.469981 0.185398 0.282873) 5451 10756 1
(0.42125 0.248494 0.0416342 0.288622) 5534 10919 2
(0.0839149 0.259664 0.194869 0.461552) 5538 10926 2
(0.0201223 0.488991 0.377147 0.11374) 5176 10342 1
(0.454409 0.265916 0.275088 0.0045875) 5177 10344 2
(0.29068 0.355467 0.266923 0.0869294) 5496 10844 1
(0.0339262 0.483037 0.482886 0.000150555) 4901 9664 1
(0.599265 0.198851 0.181935 0.0199487) 5108 10072 1
(0.121975 0.096447 0.34154 0.440039) 5120 10096 2
(0.420825 0.011932 0.277258 0.289985) 5288 10430 2
(0.139655 0.00512801 0.430158 0.425059) 5136 10131 2
(0.00135158 0.378008 0.498264 0.122376) 5044 9948 2
(0.020769 0.490253 0.233038 0.25594) 4906 9672 1
(0.58797 0.206518 0.187095 0.0184167) 4841 9543 1
(0.17308 0.181213 0.412967 0.23274) 4938 9738 2
(0.0843561 0.279691 0.175542 0.460412) 4773 9407 2
(0.586783 0.206993 0.0344463 0.171778) 4709 9283 1
(0.218451 0.233208 0.390365 0.157976) 4635 9136 2
(0.576257 0.210285 0.0421181 0.17134) 4570 9139 1
(0.469036 0.265045 0.232725 0.0331932) 4586 9171 1
(0.811717 0.0936961 0.0509615 0.0436249) 4507 9014 1
(0.201893 0.399096 0.256409 0.142602) 4440 8749 1
(0.52255 0.152709 0.0836296 0.241111) 4455 8776 2
(0.573441 0.21322 0.113099 0.100241) 4298 8465 1
(0.480279 0.176193 0.0821738 0.261354) 4156 8182 2
(0.790892 0.0585051 0.0453686 0.105234) 4240 8349 2
(0.481883 0.258694 0.0428604 0.216563) 4105 8084 1
(0.181711 0.110893 0.420234 0.287162) 4210 8425 2
(0.386631 0.303601 0.106263 0.203505) 4047 8101 1
(0.301735 0.282707 0.353416 0.0621422) 3978 7964 2
(0.195169 0.122143 0.404266 0.278422) 3910 7829 2
(0.0599959 0.464433 0.197115 0.278457) 3783 7577 1
(0.214364 0.392358 0.37578 0.0174988) 3857 7724 1
(0.421914 0.287282 0.160535 0.130268) 3703 7418 1
(0.567097 0.158833 0.21795 0.0561197) 3550 7114 2
(0.152189 0.423341 0.315923 0.108547) 3404 6692 1
(0.129012 0.434363 0.219235 0.21739) 3432 6748 1
(0.71382 0.143045 0.141163 0.00197174) 3514 7043 1
(0.314875 0.342149 0.0831149 0.259861) 3280 6444 1
(0.571367 0.214065 0.162691 0.0518766) 3211 6309 1
(0.162484 0.3557 0.420451 0.0613643) 3156 6200 2
(0.493267 0.252948 0.0941541 0.159632) 2993 5874 1
(0.58546 0.0580474 0.148497 0.207995) 3087 6060 2
(0.0496206 0.311321 0.477784 0.161274) 2931 5885 2
(0.0174131 0.382321 0.494833 0.105432) 21616 43295 2
(0.656939 0.171531 0.167526 0.00400439) 19941 39395 1
(0.369543 0.288234 0.315228 0.0269942) 20516 40545 2
(0.755553 0.120944 0.117717 0.00578597) 19672 38857 1
(0.0633912 0.440663 0.0276416 0.468304) 19387 38289 2
(0.29314 0.35343 0.281884 0.0715463) 19102 37720 1
(0.0452319 0.474823 0.177688 0.302258) 8237 16419 1
(0.0737139 0.459675 0.216903 0.249708) 8260 16465 1
(0.0319144 0.481161 0.328526 0.158399) 7831 15478 1
(0.412692 0.250132 0.0412484 0.295928) 7764 15345 2
(0.192755 0.229004 0.170925 0.407316) 7584 14988 2
(0.50762 0.23611 0.00660815 0.249662) 7513 14847 2
(0.462735 0.101857 0.165715 0.269693) 7363 14549 2
(0.311849 0.0726399 0.343715 0.271797) 7288 14403 2
(0.0836544 0.45601 0.31329 0.147045) 7242 14444 1
(0.537319 0.131021 0.100981 0.230679) 7161 14149 2
(0.83373 0.0826793 0.0480654 0.0355248) 7101 14164 1
(0.339458 0.31838 0.0567793 0.285383) 7128 14218 1
(0.0483085 0.475407 0.0552548 0.421029) 6941 13711 1
(0.548563 0.225762 0.217335 0.00833948) 6876 13585 1
(0.381701 0.307909 0.198784 0.111606) 6891 13747 1
(0.330871 0.328243 0.0627402 0.278146) 6710 13388 1
(0.462221 0.234555 0.0355681 0.267656) 6601 13037 2
(0.248814 0.372171 0.0984401 0.280575) 32790 65603 1
(0.615494 0.188244 0.00200673 0.194256) 31109 61690 2
(0.156451 0.421775 0.101148 0.320627) 28894 57269 1
(0.191148 0.119594 0.404426 0.284833) 27773 55033 2
(0.0513101 0.472478 0.278325 0.197887) 27198 54439 1
(0.272739 0.36294 0.0483384 0.315983) 26100 51690 1
(0.0468852 0.476557 0.351422 0.125136) 25845 51184 1
(0.574263 0.20181 0.00925694 0.214671) 25241 49975 2
(0.727654 0.0443635 0.0918094 0.136173) 24685 48866 2
(0.399126 0.300437 0.171662 0.128775) 23837 47175 1
(0.0200038 0.489998 0.0665857 0.423412) 23850 47199 1
(0.195698 0.395035 0.0249879 0.384279) 42569 85126 1
(0.674664 0.162668 0.0785634 0.0841044) 42830 85093 1
(0.585854 0.152951 0.0528255 0.208369) 41978 83389 2
(0.534885 0.232557 0.0942502 0.138307) 42543 84520 1
(0.850833 0.0739454 0.0510305 0.0241907) 42277 83986 1
(0.0106185 0.48968 0.260578 0.239124) 40896 81229 1
(0.143337 0.428332 0.0654856 0.362846) 40601 80643 1
(0.110508 0.110013 0.444746 0.334732) 40057 79557 2
(0.724886 0.00652102 0.137557 0.131036) 38918 77283 2
(0.121064 0.436782 0.316884 0.125269) 38073 75593 1
(0.502682 0.248659 0.0829114 0.165748) 35023 69507 1
(0.309151 0.345424 0.0376765 0.307748) 34176 67816 1
(0.404985 0.0647565 0.298107 0.232151) 33892 67803 2
(0.0975435 0.13712 0.451228 0.314108) 33641 66748 2
(0.0411807 0.411626 0.0641085 0.483085) 33890 67242 2
(0.0714761 0.461038 0.199863 0.267623) 33916 67294 1
(0.271411 0.364294 0.000296928 0.363997) 33622 66710 1
(0.054633 0.218677 0.254006 0.472683) 52273 103943 2
(0.0151299 0.492435 0.258937 0.233498) 52612 104620 1
(0.534023 0.232988 0.171032 0.0619568) 51490 102382 1
(0.859507 0.00704819 0.0702466 0.0631985) 51481 102364 2
(0.146177 0.381144 0.430088 0.0425917) 49510 98983 2
(0.156647 0.421676 0.312745 0.108931) 50680 100763 1
(0.559004 0.219761 0.0634095 0.157826) 50365 100133 1
(0.100669 0.39581 0.449665 0.053855) 49799 99006 2
(0.172549 0.41357 0.398997 0.0148839) 49523 99009 1
(0.500234 0.242725 0.0136533 0.243388) 49554 99071 1
(0.0481367 0.153416 0.477497 0.320951) 48126 96220 2
(0.039529 0.480236 0.428817 0.0514186) 47314 94043 1
(0.356378 0.321587 0.297452 0.0245824) 47005 93982 1
(0.132962 0.433519 0.1286 0.304918) 46731 92881 1
(0.204188 0.397906 0.371939 0.0259669) 46472 92362 1
(0.115176 0.365218 0.0727404 0.446866) 45065 89552 2
(0.0329765 0.481062 0.107778 0.378183) 44248 87921 1
(0.218008 0.390996 0.182612 0.208384) 43388 86205 1
(0.60481 0.191344 0.199004 0.00484164) 62615 125146 2
(0.26353 0.254773 0.368235 0.113462) 62644 124650 2
(0.222854 0.388573 0.0161078 0.372465) 62386 124135 1
(0.471336 0.264332 0.235079 0.0292528) 62092 123548 1
(0.0100156 0.414804 0.498833 0.0763473) 61792 123503 2
(0.0306539 0.425452 0.484673 0.0592209) 61519 122404 2
(0.882412 0.025792 0.0325058 0.0592898) 60983 121331 2
(0.415405 0.290015 0.0435384 0.251041) 59560 119047 1
(0.240099 0.379951 0.228709 0.151241) 59865 119100 1
(0.101617 0.118781 0.330411 0.449192) 59279 117930 2
(0.371152 0.313284 0.12089 0.194674) 59004 117380 1
(0.0219904 0.489005 0.391658 0.0973466) 59006 117385 1
(0.0091849 0.495408 0.307138 0.188269) 58740 116856 1
(0.299311 0.350345 0.0378583 0.312486) 58178 115734 1
(0.115388 0.442306 0.329479 0.112827) 57914 115205 1
(0.0883948 0.445068 0.0107346 0.455803) 57893 115163 2
(0.126408 0.436796 0.422837 0.0139594) 57637 114654 1
(0.403132 0.181395 0.115225 0.300248) 57332 114042 2
(0.761622 0.079558 0.120394 0.0384254) 56233 112405 2
(0.713625 0.143188 0.0354823 0.107705) 55379 110144 1
(0.53584 0.0802159 0.233622 0.150321) 54287 108520 2
(0.731193 0.133468 0.047424 0.0879148) 53709 107366 1
(0.620202 0.189899 0.0188299 0.171069) 53703 106800 1
(0.172801 0.413251 0.395823 0.0181249) 53451 106851 1
(0.0265844 0.376808 0.486708 0.1099) 53436 106267 2
(0.241444 0.248079 0.379278 0.131199) 53441 106277 2
(0.493824 0.253088 0.0106998 0.242388) 53147 105688 1
(0 0.902766 0.0972337 5.66502e-152) 71890 544475 1
(0.230313 0.227658 0.390264 0.151765) 72706 145292 2
(0.439787 0.175944 0.104163 0.280106) 72420 144165 2
(0.154061 0.199157 0.223813 0.42297) 72122 143570 2
(0.264649 0.252383 0.371746 0.111222) 72138 144158 2
(0.607165 0.0141202 0.18215 0.196564) 71842 143010 2
(0.590469 0.204766 0.0795054 0.12526) 71849 143025 1
(0.0970903 0.062206 0.451455 0.389249) 71569 142468 2
(0.463578 0.268211 0.00160104 0.26661) 71319 141967 1
(0.374382 0.31012 0.089649 0.225849) 70733 141353 1
(0.566067 0.216966 0.0914606 0.125506) 70743 140817 1
(0.204897 0.0944056 0.399125 0.301572) 70465 140818 2
(0.286432 0.228741 0.359507 0.12532) 70174 140237 2
(0.449654 0.274536 0.223579 0.0522311) 69618 139127 1
(0.397095 0.246189 0.0526989 0.304017) 69331 137997 2
(0.228239 0.381844 0.260745 0.129172) 69364 138620 1
(0.586684 0.0941174 0.208797 0.110401) 69078 138049 2
(0.175864 0.408411 0.0036571 0.412068) 68199 135738 2
(0.268272 0.365864 0.125342 0.240522) 68216 135772 1
(0.0613006 0.46935 0.210169 0.259181) 68224 135788 1
(0.107806 0.442983 0.112829 0.336382) 67652 135202 1
(0.786226 0.0841695 0.107889 0.0217156) 67384 134667 2
(0.503561 0.247701 0.0611176 0.18762) 66810 132964 1
(0.437595 0.280097 0.0221129 0.260195) 67138 133619 1
(0.539097 0.229908 0.173363 0.0576317) 66258 132419 1
(0.390051 0.239235 0.307575 0.0631388) 66264 132431 2
(0.396771 0.20782 0.0921181 0.30329) 65411 130171 2
(0.639285 0.170039 0.180358 0.010319) 65417 130186 2
(0.0562769 0.471862 0.385535 0.0863262) 65145 129641 1
(0.138537 0.30167 0.430731 0.129061) 65145 129643 2
(0.599143 0.0183966 0.182032 0.200429) 65155 129661 2
(0.413536 0.269131 0.293232 0.0241011) 64878 129110 2
(0.546156 0.000446149 0.226922 0.226476) 64889 129132 2
(0.174542 0.227756 0.413917 0.183786) 64261 128432 2
(0.396901 0.0646817 0.236868 0.30155) 64305 127964 2
(0.689326 0.155337 0.0327795 0.122557) 64336 128028 1
(0.175404 0.158385 0.253913 0.412298) 64313 127980 2
(0.380398 0.155705 0.314126 0.14977) 64060 128031 2
(0.560236 0.219882 0.033021 0.186861) 63735 126826 1
(0.152445 0.423778 0.338667 0.0851104) 63474 126305 1
(0.0841411 0.340429 0.457929 0.117501) 63479 126317 2
(0.213783 0.272449 0.116402 0.397365) 63209 125775 2
(0.696332 0.151834 0.0242929 0.127541) 62935 125229 1
(0 2.49879e-105 0.940104 0.0598963) 82213 397406 2
(0 1.79589e-129 0.856923 0.143077) 80818 396011 2
(0 6.04909e-57 0.133321 0.866679) 77749 392942 2
(0 0.910787 0.0892126 0) 75517 548102 1
(0 0.331874 0.668126 3.76063e-120) 74680 547265 1
(0 2.19733e-154 0.835152 0.164848) 78865 394058 2
(0.108487 0.0166975 0.445756 0.429059) 82140 163572 2
(0.775851 0.111555 0.0522904 0.060304) 82435 164715 1
(0.237652 0.381174 0.356166 0.0250081) 81593 162478 1
(0.600081 0.0556367 0.144323 0.199959) 81318 161929 2
(0.385221 0.305748 0.184257 0.124775) 82176 164198 1
(0.234449 0.0209108 0.382776 0.361865) 81886 163065 2
(0.0198761 0.18076 0.493828 0.305536) 82189 164224 2
(0.254188 0.238416 0.121245 0.386151) 82204 163697 2
(0.740129 0.0824125 0.129935 0.047523) 81039 161374 2
(0.659559 0.168828 0.0435296 0.128083) 81331 162511 1
(0.21531 0.308242 0.140035 0.336413) 81375 162599 1
(0.358564 0.0562995 0.320718 0.264419) 81048 161392 2
(0.173439 0.179566 0.229634 0.417362) 81633 162557 2
(0.126734 0.436633 0.148477 0.288156) 81080 161456 1
(0.345801 0.327099 0.179609 0.147491) 80776 160849 1
(0.146356 0.226792 0.426822 0.20003) 80769 160835 2
(0.560065 0.373101 0.0334171 0.0334171) 80818 161487 1
(0.138863 0.430405 0.418303 0.012429) 80502 160856 1
(0.307215 0.346393 0.0271836 0.319209) 80497 160292 1
(0.250836 0.353184 0.374582 0.0213979) 80504 160306 2
(0.624697 0.187651 0.0270654 0.160586) 79072 157445 1
(0.21058 0.241996 0.39471 0.152714) 80233 159765 2
(0.298248 0.349627 0.282169 0.0699564) 79954 159762 1
(0.563238 0.0885242 0.218381 0.129857) 79941 159182 2
(0.659184 0.0677044 0.102703 0.170408) 79695 158689 2
(0.130022 0.434989 0.0244411 0.410548) 79408 158118 1
(0.0962095 0.288525 0.16337 0.451895) 79094 157489 2
(0.217239 0.0629908 0.327463 0.392307) 79668 158634 2
(0.380577 0.306638 0.288899 0.0238856) 79098 157496 1
(0.248293 0.375853 0.0413423 0.334511) 78529 156363 1
(0.272236 0.254679 0.363882 0.109203) 79098 157499 2
(0.38191 0.27958 0.0294646 0.309045) 79121 157543 2
(0.00374622 0.100625 0.397035 0.498593) 77641 154587 2
(0.629719 0.185141 0.154289 0.0308513) 78835 156974 1
(0.39335 0.303325 0.28043 0.0228953) 77684 154676 1
(0.103918 0.444845 0.166214 0.285024) 78561 156424 1
(0.335804 0.156792 0.175306 0.332098) 78280 155864 2
(0.17963 0.213846 0.193449 0.413075) 78270 155843 2
(0.075904 0.462048 0.0195995 0.442448) 77420 154149 1
(0.736729 0.131478 0.122044 0.0097485) 77719 155300 1
(0.0727278 0.104544 0.357226 0.465503) 77721 154747 2
(0.335092 0.331437 0.0528566 0.280614) 77166 153639 1
(0.0745096 0.460025 0.269583 0.195883) 76598 153062 1
(0.631531 0.184234 0.179972 0.00426196) 76614 152540 1
(0.0748358 0.461054 0.338821 0.125289) 76314 152495 1
(0.384248 0.30649 0.14572 0.163542) 76017 151902 1
(0.0353131 0.47012 0.415606 0.0789615) 76059 151429 1
(0.40483 0.163163 0.297585 0.134422) 75782 150879 2
(0.571765 0.119958 0.0921602 0.216117) 76045 151401 2
(0.313588 0.272564 0.343206 0.0706421) 75459 150234 2
(0.304848 0.345253 0.15798 0.191919) 75763 150838 1
(0.293657 0.289493 0.0636781 0.353171) 75471 150256 2
(0.0363524 0.481824 0.211485 0.270339) 74898 149114 1
(0.627704 0.0427038 0.187927 0.141665) 74947 149766 2
(0.59071 0.0960887 0.204645 0.108556) 74924 149166 2
(0.638798 0.0575947 0.180601 0.123007) 74625 148569 2
(0.353112 0.231784 0.0916595 0.323444) 74640 148597 2
(0.243687 0.377628 0.298546 0.0801378) 74047 147969 1
(0.369585 0.162552 0.316866 0.150996) 74073 148021 2
(0.449293 0.274852 0.244742 0.0311134) 74092 148059 1
(0.0262731 0.247976 0.238887 0.486863) 74099 147517 2
(0.502669 0.246259 0.158792 0.0922794) 74090 147498 1
(0.576268 0.0263613 0.21218 0.185191) 73801 147478 2
(0.12645 0.0813399 0.436775 0.355435) 73788 146898 2
(0.156006 0.421997 0.277806 0.144191) 73541 146405 1
(0.414369 0.292815 0.0687681 0.224047) 73229 145780 1
(0.283559 0.32133 0.358221 0.036891) 73240 145804 2
(0.732561 0.131383 0.107489 0.0285669) 73263 145847 1
(0 0.622888 0.377112 2.33823e-135) 90304 562889 1
(0 5.95838e-91 0.214603 0.785397) 91420 406613 2
(0 9.41865e-154 0.850221 0.149779) 90583 405776 2
(0 0.742402 0.257598 1.23431e-59) 91978 564563 1
(0 0.0337764 0.966224 4.08088e-153) 86677 559262 1
(0 1.35515e-153 0.922997 0.0770032) 86398 401591 2
(0 9.05453e-153 0.633277 0.366723) 92257 407450 2
(0 4.3144e-130 0.947571 0.0524287) 92257 407450 2
(0 7.46023e-155 0.536115 0.463885) 90025 405218 2
(0 0 0.90871 0.09129) 86677 401870 2
(0 3.98435e-139 0.863251 0.136749) 85840 401033 2
(0 1.3081e-129 0.468989 0.531011) 85003 400196 2
(0 0.693178 0.306822 2.1303e-84) 83887 556472 1
(0 0.73862 0.26138 0) 88351 560936 1
(0 6.21883e-152 0.214231 0.785769) 83608 398801 2
(0.465083 0.267459 0.00867375 0.258785) 90747 180753 1
(0.274622 0.362689 0.00216564 0.360523) 91935 183125 1
(0.0634004 0.466964 0.120246 0.349389) 92213 183679 1
(0.181817 0.110588 0.409091 0.298504) 91935 183127 2
(0.0816017 0.405331 0.459199 0.0538685) 92221 183698 2
(0.414567 0.244061 0.0486558 0.292716) 90792 180843 2
(0.0915045 0.454248 0.363399 0.090849) 91079 181418 1
(0.194053 0.127709 0.404494 0.273744) 91657 183126 2
(0.165569 0.417216 0.0398071 0.377409) 91375 182009 1
(0.882508 0.0395488 0.05957 0.0183734) 91675 183162 2
(0.204682 0.392075 0.357358 0.0458844) 91110 181477 1
(0.353536 0.0577612 0.262845 0.325858) 91130 181517 2
(0.32466 0.0844248 0.2509 0.340015) 91123 181503 2
(0.37986 0.164426 0.31007 0.145644) 90567 180396 2
(0.749145 0.125428 0.0344895 0.0909382) 90271 179805 1
(0.212391 0.0249166 0.368888 0.393804) 90274 179809 2
(0.661864 0.0157175 0.153113 0.169306) 89992 179245 2
(0.251885 0.374057 0.149786 0.224272) 89434 178132 1
(0.50668 0.0906053 0.248403 0.154312) 89162 178145 2
(0.450095 0.274953 0.175527 0.0994258) 87692 174656 1
(0.448116 0.275252 0.0731066 0.203525) 88578 176422 1
(0.311659 0.340792 0.324323 0.0232261) 88862 176989 1
(0.35519 0.321198 0.0338066 0.289806) 89175 177614 1
(0.283285 0.358358 0.162296 0.196061) 88897 177062 1
(0.527991 0.236005 0.165044 0.0709605) 88307 175884 1
(0.0013716 0.497475 0.106666 0.394488) 88602 176470 1
(0.128647 0.09492 0.435677 0.340757) 88342 175954 2
(0.408667 0.293219 0.141482 0.156632) 88041 175907 1
(0.132144 0.134204 0.438122 0.295531) 88056 175937 2
(0.563086 0.185934 0.218457 0.0325227) 88057 175385 2
(0.758383 0.0264275 0.120808 0.0943807) 87157 173588 2
(0.890157 0.0547863 0.0148862 0.0401707) 87460 174190 1
(0.348603 0.316637 0.325698 0.00906094) 87769 174810 2
(0.183308 0.405057 0.394632 0.0170023) 87176 173623 1
(0.249929 0.207329 0.16277 0.379972) 87772 174813 2
(0.0832364 0.269357 0.18707 0.460336) 86887 173046 2
(0.123823 0.438089 0.0882326 0.349856) 87495 174263 1
(0.448483 0.275759 0.126999 0.14876) 86903 173081 1
(0.0693747 0.275088 0.190224 0.465313) 87498 174267 2
(0.425618 0.0403002 0.287191 0.246891) 87207 173688 2
(0.253627 0.361794 0.00134271 0.383236) 87217 173705 2
(0.977661 0.00276028 0.00840911 0.0111694) 86627 172528 2
(0.0481078 0.473292 0.234425 0.244175) 86632 173094 1
(0.285948 0.269521 0.357026 0.0875053) 86945 173165 2
(0.162807 0.41766 0.142145 0.277387) 86044 171363 1
(0.75245 0.12301 0.0281297 0.0964102) 86057 171946 1
(0.284442 0.354691 0.0274362 0.33343) 86066 171964 1
(0.398173 0.300913 0.185497 0.115417) 86383 172041 1
(0.609462 0.024827 0.195269 0.170442) 85815 170909 2
(0.0156289 0.485907 0.213467 0.284997) 85824 170924 1
(0.389736 0.0437313 0.309505 0.257028) 85556 170946 2
(0.884819 0.0262942 0.0308721 0.0580145) 85530 170337 2
(0.102716 0.364834 0.461672 0.0707783) 85268 170371 2
(0.690484 0.153977 0.0983792 0.0571597) 84941 169161 1
(0.0839844 0.277731 0.458008 0.180277) 84944 169170 2
(0.234212 0.204215 0.385269 0.176305) 84960 169756 2
(0.224493 0.386143 0.0998555 0.289509) 84136 167554 1
(0.782558 0.0104413 0.0981815 0.10882) 83834 166951 2
(0.0420179 0.0803423 0.398649 0.478991) 83837 166958 2
(0.553692 0.181375 0.0417793 0.223154) 83867 167018 2
(0.0331759 0.481449 0.300818 0.184557) 83562 166965 1
(0.468183 0.022319 0.266195 0.243303) 83569 166979 2
(0.0169858 0.36978 0.491507 0.121728) 83577 166441 2
(0.551943 0.169253 0.0507459 0.228058) 83587 166458 2
(0.562529 0.217933 0.128079 0.0914586) 83273 166388 1
(0.392098 0.303951 0.180562 0.123389) 82961 165209 1
(0.676201 0.160657 0.124199 0.0389422) 83001 165288 1
(0.733108 0.0877715 0.0432365 0.135884) 83032 165350 2
(0.262259 0.368871 0.152475 0.216395) 82729 164746 1
(0.228699 0.261329 0.124322 0.385651) 82727 164742 2
(0 4.71107e-135 0.513121 0.486879) 98116 413309 2
(0 0.433097 0.566903 1.45075e-154) 98953 571538 1
(0 2.00701e-154 0.974825 0.025175) 97837 413030 2
(0 7.95179e-155 0.25459 0.74541) 100348 415541 2
(0 0.0873811 0.912619 1.27358e-137) 96721 569306 1
(0 0.608943 0.391057 3.60553e-59) 102022 574607 1
(0 4.26659e-129 0.880012 0.119988) 98116 413309 2
(0 0.791596 0.208404 7.73782e-154) 98953 571538 1
(0 9.71938e-155 0.670352 0.329648) 97837 413030 2
(0 0.446686 0.553314 3.7277e-137) 100627 573212 1
(0 1.24234e-154 0.447586 0.552414) 99232 414425 2
(0 0.67135 0.32865 8.22449e-84) 95605 568190 1
(0 0.0671539 0.932846 5.09859e-154) 95326 567911 1
(0 1.27455e-143 0.241075 0.758925) 101743 416936 2
(0 0.423938 0.576062 7.6621e-81) 96163 568748 1
(0 6.11841e-154 0.567014 0.432986) 97279 412472 2
(0 0.98274 0.0172603 3.09795e-82) 100348 572933 1
(0 4.88241e-154 0.00553652 0.994463) 100348 415541 2
(0 0.759077 0.240923 3.28719e-24) 100627 573212 1
(0 0.979819 0.0201815 1.28498e-87) 94489 567074 1
(0 6.68669e-41 0.195712 0.804288) 102022 417215 2
(0 3.24473e-129 0.328593 0.671407) 95884 411077 2
(0 0.192235 0.807765 3.38049e-23) 102022 574607 1
(0 0.404846 0.595154 4.68441e-154) 95047 567632 1
(0 0.0974247 0.902575 4.1642e-67) 96163 568748 1
(0 2.24331e-26 0.157063 0.842937) 98395 413588 2
(0 0 0.785141 0.214859) 94489 409682 2
(0 3.13283e-75 0.657752 0.342248) 97000 412193 2
(0 1.66113e-143 0.209332 0.790668) 98395 413588 2
(0 0.80564 0.19436 5.81889e-154) 101464 574049 1
(0 0.686222 0.313778 5.55108e-154) 96721 569306 1
(0 0.0232264 0.976774 7.69219e-153) 93373 565958 1
(0 0 0.990004 0.0099961) 94489 409682 2
(0 1.18861e-44 0.507326 0.492674) 93373 408566 2
(0 0.267666 0.732334 1.25648e-154) 101464 574049 1
(0 2.61814e-39 0.231262 0.768738) 93373 408566 2
(0 0.389279 0.610721 1.18421e-137) 98953 571538 1
(0 6.48865e-66 0.279975 0.720025) 94768 409961 2
(0 1.39897e-65 0.0180684 0.981932) 93373 408566 2
(0 1.96405e-154 0.196275 0.803725) 97558 412751 2
(0 1.25839e-153 0.250676 0.749324) 101185 416378 2
(0.10053 0.449735 0.35824 0.091495) 101358 201937 1
(0.307401 0.3463 0.143274 0.203026) 100504 200232 1
(0 9.8652e-155 0.764277 0.235723) 99790 414983 2
(0.18617 0.405039 0.228826 0.179965) 101683 202585 1
(0.811758 0.0307223 0.0633987 0.0941209) 101703 202626 2
(0.100526 0.443285 0.40004 0.0561496) 101992 203202 1
(0.284579 0.357711 0.240372 0.117338) 101711 202644 1
(0.0490246 0.475488 0.295713 0.179775) 101139 201502 1
(0.891905 0.0535036 0.0228428 0.0317486) 101444 202108 1
(0.399749 0.298055 0.202867 0.099329) 101416 202052 1
(0.782385 0.0240932 0.0847142 0.108807) 101726 202672 2
(0.432854 0.282609 0.0674844 0.217052) 100314 199852 1
(0.153362 0.423319 0.127759 0.29556) 100595 200416 1
(0.757471 0.0322418 0.121265 0.0890229) 100887 200999 2
(0.611072 0.194464 0.147409 0.0470548) 99435 198100 1
(0.164025 0.331533 0.0864546 0.417988) 100029 199284 2
(0.532656 0.233244 0.0547979 0.179302) 99448 198123 1
(0.663604 0.166077 0.0133865 0.156932) 100312 200405 1
(0.133484 0.431195 0.257922 0.177399) 99748 199279 1
(0.313184 0.118224 0.343408 0.225184) 100036 199300 2
(0.455024 0.272488 0.0184636 0.254024) 100028 199284 1
(0.388299 0.30585 0.252784 0.0530665) 99472 198174 1
(0.790246 0.101698 0.0699065 0.0381493) 100343 200467 1
(0.00333839 0.334131 0.1642 0.498331) 100065 199356 2
(0.24829 0.373772 0.170827 0.207111) 99750 198726 1
(0.34209 0.115264 0.211832 0.330814) 99480 198187 2
(0.0237372 0.484183 0.205317 0.286762) 99207 197642 1
(0.477367 0.260086 0.154298 0.108249) 98631 197049 1
(0 5.38914e-80 0.657124 0.342876) 97558 412751 2
(0.397594 0.295181 0.0542767 0.252949) 98933 197652 1
(0.241859 0.0248773 0.37907 0.354193) 98062 195359 2
(0.53609 0.0373449 0.231955 0.19461) 97206 193650 2
(0.8177 0.0649343 0.0262156 0.0911499) 97810 194854 2
(0.274868 0.113339 0.362566 0.249227) 97517 194271 2
(0 0.635157 0.364843 0) 92536 565121 1
(0.26731 0.366345 0.070451 0.295894) 96370 191979 1
(0.495233 0.0328149 0.219569 0.252384) 96950 193137 2
(0.144972 0.427514 0.251661 0.175853) 96670 192580 1
(0.00327816 0.498361 0.310803 0.187558) 96967 193173 1
(0 2.86858e-82 0.552583 0.447417) 94210 409403 2
(0.208414 0.120513 0.397228 0.273846) 96679 193152 2
(0.131678 0.377967 0.0561941 0.434161) 96688 192614 2
(0.634296 0.0766531 0.183424 0.105627) 96096 191988 2
(0.0145076 0.313326 0.4978 0.174367) 96411 192617 2
(0.342289 0.162736 0.330089 0.164887) 95818 191433 2
(0.360218 0.31812 0.283057 0.0386051) 95805 190850 1
(0.145973 0.427013 0.33906 0.0879537) 96411 192061 1
(0.484054 0.0481317 0.258308 0.209507) 95533 190864 2
(0.0736845 0.458026 0.318159 0.15013) 96133 191505 1
(0.657555 0.0999088 0.171223 0.0713139) 95851 190945 2
(0.0830758 0.458462 0.127399 0.331064) 95558 190358 1
(0.256743 0.0377397 0.333889 0.371629) 95249 189741 2
(0.600685 0.0265779 0.172739 0.199998) 95566 190373 2
(0.510883 0.00384222 0.240716 0.244559) 95264 189771 2
(0.245252 0.14014 0.377374 0.237234) 95583 190410 2
(0.624414 0.0796649 0.187793 0.108128) 94980 189206 2
(0.00244148 0.497961 0.0573114 0.442287) 95292 189826 1
(0.737899 0.130379 0.0322033 0.0995179) 95303 189848 1
(0.147994 0.426003 0.196712 0.229291) 95006 189258 1
(0.623054 0.188473 0.0872288 0.101244) 94708 188661 1
(0.249338 0.162558 0.212774 0.375331) 94410 188066 2
(0.800375 0.0986489 0.0651652 0.035811) 94741 188726 1
(0.0331303 0.483435 0.22687 0.256564) 94457 188160 1
(0.613586 0.100695 0.0925113 0.193207) 94447 188140 2
(0.64537 0.177315 0.16253 0.0147853) 94461 188170 1
(0.170213 0.156391 0.25571 0.417686) 94461 188167 2
(0.290375 0.351489 0.252583 0.105553) 94173 187592 1
(0.20968 0.395155 0.000326694 0.394839) 94182 187610 1
(0.0696861 0.332156 0.133001 0.465157) 93649 186547 2
(0.259141 0.197754 0.37043 0.172676) 93336 185924 2
(0.142675 0.427237 0.116873 0.313214) 93333 185915 1
(0.319076 0.335084 0.0231496 0.322691) 93065 185937 1
(0.476936 0.261532 0.0702407 0.191291) 93058 185369 1
(0.389946 0.305027 0.13107 0.173957) 92765 184782 1
(0.591227 0.196763 0.00464269 0.207368) 92782 184815 2
(0.0611677 0.0523765 0.41704 0.469416) 92769 184790 2
(0.00450239 0.494009 0.112198 0.389291) 92801 184853 1
(0.354583 0.124597 0.324541 0.196279) 92502 184813 2
(0.148833 0.425583 0.193042 0.232542) 92498 184249 1
(0.437808 0.179588 0.281096 0.101508) 92489 184233 2
(0 0.289096 0.710904 3.0841e-154) 108160 580745 1
(0 6.23067e-52 0.0847913 0.915209) 105928 421121 2
(0 0.580437 0.419563 1.15232e-152) 109555 582140 1
(0 2.19842e-153 0.863144 0.136856) 109555 424748 2
(0 5.75133e-154 0.0821334 0.917867) 109276 424469 2
(0 1.88452e-143 0.368569 0.631431) 110392 425585 2
(0 2.05463e-153 0.936449 0.0635514) 107323 422516 2
(0 2.60412e-31 0.588942 0.411058) 109276 424469 2
(0 0.138973 0.861027 3.77308e-146) 108160 580745 1
(0 4.332e-153 0.534639 0.465361) 109555 424748 2
(0 8.52166e-32 0.347807 0.652193) 107044 422237 2
(0 0.1516 0.8484 3.84817e-152) 110113 582698 1
(0 0.878272 0.121728 1.25117e-36) 110392 582977 1
(0 6.4038e-90 0.985386 0.0146144) 106486 421679 2
(0 1.62558e-135 0.343121 0.656879) 111229 426422 2
(0 1.25377e-133 0.121665 0.878335) 111229 426422 2
(0 2.87405e-154 0.243237 0.756763) 107602 422795 2
(0 0.317201 0.682799 2.6751e-136) 105091 577676 1
(0 0.876714 0.123286 7.87814e-47) 105091 577676 1
(0 9.26362e-73 0.316312 0.683688) 111787 426980 2
(0 4.3835e-134 0.227959 0.772041) 110671 425864 2
(0 0.536639 0.463361 9.69354e-86) 110671 583256 1
(0 3.72829e-154 0.0664419 0.933558) 104254 419447 2
(0 3.16161e-152 0.628979 0.371021) 109276 424469 2
(0 0.945424 0.0545765 6.69438e-28) 110113 582698 1
(0 0.592715 0.407285 1.74105e-153) 107323 579908 1
(0 0.646985 0.353015 1.18387e-154) 103975 576560 1
(0 0.625188 0.374812 9.85601e-40) 110950 583535 1
(0 2.42328e-111 0.994599 0.00540077) 106207 421400 2
(0 0.614799 0.385201 2.6562e-117) 110113 582698 1
(0 0.489697 0.510303 1.70115e-85) 107602 580187 1
(0 2.70398e-130 0.329075 0.670925) 109834 425027 2