/*--------------------------------*- C++ -*----------------------------------*\
  =========                 |
  \\      /  F ield         | OpenFOAM: The Open Source CFD Toolbox
   \\    /   O peration     | Website:  https://openfoam.org
    \\  /    A nd           | Version:  7
     \\/     M anipulation  |
\*---------------------------------------------------------------------------*/
FoamFile
{
    version     2.0;
    format      ascii;
    class       scalarField;
    location    "0.7/lagrangian/reactingCloud1";
    object      pressure;
}
// * * * * * * * * * * * * * * * * * * * * * * * * * * * * * * * * * * * * * //


2449
(
593.902
592.612
591.648
590.235
589.408
587.197
588.593
584.438
584.17
586.455
587.271
583.617
579.05
586.217
583.176
583.549
584.582
583.069
581.616
581.302
582.011
583.363
583.819
583.262
582.961
583.262
582.69
582.514
582.708
582.962
582.779
583.35
583.08
582.954
583.006
583.09
583.124
583.096
583.223
583.206
583.167
583.176
601.923
603.913
601.933
598.228
597.28
605.133
603.137
589.699
589.283
587.897
593.376
592.753
588.59
599.103
601.616
595.509
593.663
600.498
598.772
599.529
596.111
604.249
593.891
596.46
597.328
603.396
600.018
599.361
604.916
604.699
597.205
605.259
604.961
602.59
598.444
600.282
604.106
604.347
603.666
599.966
603.507
602.794
603.338
602.802
601.051
602.127
601.88
600.334
602.102
602.134
601.018
600.553
598.159
599.3
599.155
598.892
597.571
597.508
598.264
599.979
601.553
596.543
596.036
597.505
596.997
594.762
597.557
594.214
594.599
469.925
487.998
491.032
498.294
498.85
498.865
512.862
518.745
539.256
542.804
550.231
553.207
560.395
564.518
563.608
567.775
568.931
566.895
577.961
579.315
576.335
579.207
587.315
371.243
383.445
405.817
415.875
417.832
432.169
437.283
431.606
441.581
105.126
450.531
335.711
335.622
211.164
329.829
336.153
337.699
338.333
339.145
340.204
247.027
356.942
360.472
350.488
366.365
324.176
364.24
364.889
0.508999
331.689
332.038
331.895
174.782
332.28
332.262
327.033
331.519
332.593
330.628
333.233
298.298
331.54
333.526
334.172
334.45
335.159
52.8487
328.062
328.504
328.548
232.121
305.874
328.865
240.599
329.193
214.254
270.131
296.018
329.483
329.396
329.838
324.123
329.935
304.181
330.418
312.807
331.126
329.906
296.473
331.414
331.322
331.402
320.446
327.182
327.116
327.075
263.324
326.966
255.354
314.14
309.108
327.226
317.946
327.148
327.22
314.838
323.352
267.261
327.399
327.426
104.702
282.83
325.87
222.687
322.275
171.053
327.65
238.76
302.409
127.489
196.621
277.172
277.172
327.235
327.708
327.984
0.518517
246.669
328.088
322.043
328.141
103.437
314.478
327.138
328.293
328.373
326.695
326.731
326.839
326.946
326.994
326.795
48.1912
150.997
118.6
146.11
287.76
213.134
326.17
326.692
146.541
236.389
326.716
209.278
326.504
326.695
260.575
210.295
326.731
297.398
262.034
309.503
49.1569
326.02
326.103
279.636
326.766
326.768
209.007
317.518
239.121
158.007
239.121
326.676
0.602831
325.457
97.7412
326.623
326.469
309.195
215.02
325.953
326.427
326.755
322.347
326.88
299.726
154.562
326.914
326.93
326.43
155.492
325.484
255.969
130.949
326.977
324.494
182.582
308.205
23.6095
236.45
326.78
327.011
326.481
298.055
184.711
327.05
177.203
275.777
327.073
326.571
326.554
326.566
326.544
326.616
326.619
326.539
326.539
326.574
326.616
326.628
326.641
326.66
326.595
326.666
2.15667
206.492
200.289
206.492
242.423
67.5738
108.776
212.769
197.891
308.234
274.941
326.328
324.257
325.608
268.013
284.815
269.413
272.249
310.949
3.52276
168.155
195.147
326.375
326.453
213.959
304.346
326.556
291.15
326.235
326.338
31.4645
159.489
321.542
131.515
324.85
74.6236
325.812
166.465
326.315
311.072
326.101
184.659
214.266
326.569
42.5831
115.439
168.417
326.487
323.289
326.481
326.63
304.782
326.578
116.34
134.518
233.356
315.916
173.869
193.007
326.404
219.945
266.351
314.287
326.343
155.959
5.91059
202.32
326.588
250.558
236.945
326.214
326.089
326.248
325.773
326.354
325.078
326.214
326.089
326.248
325.688
326.038
326.428
326.441
325.236
326.394
326.307
325.773
325.773
325.688
326.478
325.078
326.412
325.078
326.455
326.394
326.176
326.478
326.332
326.176
325.367
326.354
326.514
326.478
326.514
325.367
326.514
326.089
326.467
326.514
326.279
325.487
12.1542
4.99457
325.919
94.5253
179.175
224.762
216.962
154.21
276.222
143.978
288.761
215.111
223.222
284.274
47.7405
187.769
87.4057
205.506
179.57
221.406
182.987
195.346
324.978
325.409
189.157
234.005
264.702
180.011
326.279
290.446
129.5
54.787
262.214
194.786
326.533
57.8143
152.959
149.103
236.619
326.489
193.494
237.923
76.2535
249.215
80.712
37.872
249.215
57.8037
255.584
241.797
173.18
42.389
213
99.7189
298.436
77.4891
239.291
295.066
205.272
110.791
36.4632
277.814
253.34
202.418
274.065
274.065
228.884
275.472
326.483
232.391
216.881
275.858
238.796
167.499
255.909
188.055
325.369
251.864
230.632
183.819
260.487
307.294
226.492
226.492
233.136
207.44
280.549
233.136
260.487
226.492
286.799
213.628
207.44
298.117
189.965
189.965
274.027
316.451
316.451
179.261
201.429
201.429
321.226
233.136
213.628
280.549
322.195
195.603
303.007
213.628
274.027
219.984
195.603
267.315
195.603
292.686
319.992
239.533
323.566
239.891
321.226
322.195
239.891
292.686
274.027
184.518
219.984
321.226
179.261
324.024
253.606
179.261
179.261
239.891
324.024
184.518
274.027
246.726
184.518
280.549
260.487
201.429
324.378
201.429
201.429
219.984
324.66
189.965
260.487
324.66
307.294
179.261
201.429
307.294
10.6445
14.004
324.888
78.9165
102.949
101.663
201.429
58.6777
148.64
72.9953
23.0993
114.015
119.646
136.049
23.035
126.919
79.6387
67.5065
181.973
177.165
70.1251
131.394
63.6337
49.3144
159.183
75.7833
8.87814
203.857
90.6211
6.29142
48.0776
119.154
160.275
84.6199
177.053
23.2219
131.416
179.843
111.759
177.969
212.225
88.0908
210.974
163.18
223.335
162.905
103.075
117.451
199.35
117.597
104.152
203.57
227.087
120.423
158.562
72.8267
105.246
240.573
99.0929
172.093
102.039
171.572
196.984
150.139
132.72
223.951
68.076
42.3388
216.302
224.334
103.056
64.0309
138.281
118.835
13.16
120.267
39.3723
271.643
153.089
188.468
98.5146
288.47
116.694
105.394
230.708
239.734
77.9847
169.501
271.571
124.745
161.53
207.472
6.76144
92.3933
197.477
13.424
242.489
160.535
133.202
226.225
79.6987
243.489
211.03
318.775
54.1107
148.623
209.461
246.767
180.683
99.6794
93.1839
243.59
154.901
100.634
4.44012
314.284
122.362
183.677
29.0032
37.2905
258.95
129.125
316.794
324.264
114.517
301.068
151.745
138.823
319.095
270.762
60.6479
105.104
96.5776
82.7376
94.6309
107.437
87.49
90.937
78.4323
92.7516
78.4323
82.7376
126.502
87.49
92.7516
112.375
84.2692
92.7516
79.8212
98.5948
109.86
92.7516
136.399
90.937
90.937
105.104
117.702
79.8212
123.454
139.967
89.1839
126.502
107.437
79.8212
102.854
102.854
114.988
123.454
89.1839
92.7516
109.86
89.1839
107.437
87.49
87.49
84.2692
100.686
94.6309
87.49
79.8212
132.969
107.437
139.967
87.49
89.1839
94.6309
92.7516
81.2556
87.49
96.5776
78.4323
120.522
107.437
79.8212
112.375
92.7516
102.854
139.967
81.2556
123.454
87.49
89.1839
147.542
89.1839
90.937
117.702
117.702
107.437
69.0474
114.988
94.6309
100.686
100.686
90.937
147.542
87.49
92.7516
90.937
132.969
109.86
102.854
87.49
102.854
85.8525
112.375
84.2692
92.7516
92.7516
87.49
147.542
151.561
89.1839
94.6309
109.86
85.8525
85.8525
100.686
81.2556
81.2556
151.561
102.854
84.2692
136.399
79.8212
151.561
87.49
143.68
98.5948
85.8525
96.5776
79.8212
112.375
143.68
82.7376
112.375
109.86
105.104
79.8212
85.8525
147.542
78.4323
155.742
147.542
94.6309
82.7376
98.5948
107.437
107.437
78.4323
160.09
78.4323
123.454
79.8212
94.6309
155.742
160.09
120.522
112.375
81.2556
100.686
112.375
151.561
82.7376
105.104
120.522
117.702
151.561
129.672
105.104
102.854
129.672
117.702
100.686
109.86
136.399
117.702
123.454
143.68
164.612
164.612
90.937
102.854
136.399
92.7516
79.8212
114.988
84.2692
169.311
132.969
129.672
92.7516
129.672
147.542
147.542
155.742
96.5776
105.104
92.7516
126.502
169.311
112.375
123.454
107.437
139.967
117.702
120.522
90.937
174.193
174.193
120.522
174.193
174.193
90.937
109.86
32.6039
174.193
40.7254
35.2593
60.5448
164.612
54.7011
65.5781
67.684
73.0854
62.4421
70.2028
65.9008
79.8044
73.0854
64.1903
78.5609
74.9231
90.937
78.8895
80.8503
59.4954
26.4258
69.83
74.5118
28.5088
66.2565
20.8442
78.5997
36.8072
62.2259
73.5374
73.1952
42.1819
96.5776
88.8915
31.0607
40.272
92.7516
88.204
86.5696
174.193
62.8138
59.5587
89.8244
67.4484
87.1163
69.0902
92.9767
15.3478
74.2998
98.1096
95.9314
76.9109
78.8968
55.8408
61.8398
26.7879
69.9225
123.454
68.9584
98.8189
82.4431
78.8968
61.151
23.394
95.0864
43.8432
100.117
104.994
87.3107
102.181
59.782
94.7426
9.20027
98.3764
41.493
82.3848
108.331
80.3779
57.4671
111.927
46.2828
14.359
79.411
11.7558
39.9955
59.2355
104.874
77.12
90.5273
95.402
117.702
114.705
117.702
20.9896
103.258
114.943
84.9925
47.5397
90.8097
48.4341
151.561
103.59
73.9484
116.887
67.5836
103.59
93.6755
118.667
110.593
10.7355
87.1836
118.384
41.5947
46.0928
92.5173
53.1296
133.742
86.6645
125.222
118.54
127.626
26.9866
129.256
130.788
6.02538
82.2991
151.561
121.059
130.678
150.087
126.83
164.501
31.2351
149.009
136.407
152.871
42.2286
134.679
61.4729
148.039
51.7176
35.0145
105.318
116.843
173.333
46.2432
103.447
60.2726
55.6719
64.7172
48.1575
65.6832
54.971
57.1265
56.39
49.2964
57.1191
48.7225
44.3582
64.7172
58.6578
52.3219
60.2726
66.6773
50.4735
54.2866
52.9629
54.2866
66.6773
58.6578
53.6175
56.39
48.1575
49.8799
51.6938
49.8799
55.6719
51.6938
62.8652
48.7225
58.6578
62.8652
68.754
68.754
61.9771
51.6938
55.6719
67.7005
60.2726
58.6578
54.971
55.6719
57.1265
65.6832
57.1265
48.1575
65.6832
67.7005
48.7225
67.7005
54.971
52.3219
51.0779
48.1575
48.7225
60.2726
54.971
69.839
68.754
66.6773
49.8799
57.8821
68.754
68.754
69.839
55.6719
48.1575
52.3219
70.9568
49.8799
70.9568
57.8821
48.7225
61.1133
64.7172
54.971
54.2866
67.7005
52.3219
64.7172
54.971
61.9771
48.7225
51.6938
70.9568
54.971
62.8652
72.1088
51.6938
64.7172
56.39
49.2964
59.4544
61.1133
51.6938
67.7005
57.1265
58.6578
51.0779
64.7172
72.1088
52.9629
52.3219
57.1265
64.7172
49.8799
61.9771
72.1088
52.3219
49.8799
49.2964
58.6578
54.2866
60.2726
50.4735
73.2963
73.2963
61.1133
49.2964
73.2963
60.2726
57.8821
52.9629
66.6773
54.2866
67.7005
52.9629
64.7172
57.8821
68.754
48.7225
64.7172
48.1575
74.5208
64.7172
74.5208
51.0779
54.2866
58.6578
51.6938
51.6938
72.1088
61.9771
74.5208
62.8652
70.9568
52.3219
74.5208
57.8821
74.5208
54.971
49.2964
69.839
59.4544
65.6832
53.6175
63.7782
70.9568
64.7172
49.8799
57.8821
53.6175
72.1088
61.9771
59.4544
70.9568
51.0779
70.9568
75.7838
68.754
64.7172
75.7838
67.7005
54.971
66.6773
62.8652
54.2866
77.0871
72.1088
59.4544
49.8799
72.1088
77.0871
52.3219
57.1265
51.0779
54.2866
77.0871
54.2866
70.9568
70.9568
77.0871
5.42236
55.6719
3.21788
12.0023
27.2301
74.5208
30.4686
17.3821
29.9257
26.7863
22.852
11.625
48.1575
40.1846
37.694
26.5994
34.1547
41.5864
43.3203
47.9577
20.5386
41.3585
77.0871
48.1417
0.43354
39.1406
49.8799
51.6938
11.9313
48.1915
48.594
45.2708
50.4735
42.2633
48.3756
68.754
48.1905
13.0445
24.4032
46.4579
45.9625
48.3711
51.5954
45.2611
20.1938
36.3955
45.1956
28.3546
29.3893
39.824
49.0992
46.087
52.8161
37.8536
45.6871
53.4662
33.5533
53.2204
28.8465
54.2866
52.2632
47.0983
50.1161
54.6256
53.361
51.5837
35.5368
49.716
47.3439
56.3828
1.42426
56.0223
49.8875
45.1116
54.2692
67.7005
41.7068
54.4962
44.5905
50.7365
58.6321
53.3903
48.4495
53.6608
54.6866
37.4331
52.5487
48.2395
45.7553
52.8527
52.1826
56.2965
55.507
58.2922
16.288
57.6937
55.617
61.0848
42.2396
40.1282
54.7187
44.9554
42.364
40.8119
38.5122
61.0549
55.6835
61.9681
49.8148
62.8347
31.2487
20.5584
45.7784
26.3755
49.9113
60.0673
39.4027
56.7202
60.8265
63.6133
45.6548
61.9054
61.7049
61.1215
51.4352
53.8668
49.204
66.642
2.6157
57.2088
56.7908
44.5484
65.9834
64.8306
44.8882
29.5726
63.3401
63.6761
48.6588
51.5947
69.6328
51.0949
46.5771
54.1395
53.1205
67.4962
38.0851
36.2642
44.4761
77.0871
70.598
72.3528
53.5946
68.2016
34.5871
33.6916
40.9747
39.1022
39.565
40.0312
40.9747
35.9315
41.4523
41.4523
43.9099
34.5871
34.1391
42.9117
36.38
35.0351
40.9747
44.4175
35.0351
33.6916
38.1859
32.7991
39.565
33.2446
33.6916
38.1859
34.5871
38.1859
35.0351
33.6916
44.4175
32.7991
33.2446
33.2446
37.7317
43.4081
44.4175
39.565
33.6916
37.2797
43.4081
42.4205
41.4523
45.4513
33.2446
37.2797
40.9747
35.4833
34.5871
39.565
35.4833
35.9315
38.1859
40.501
35.4833
37.7317
33.6916
45.4513
44.9312
34.5871
44.4175
45.4513
32.3553
42.4205
44.9312
39.1022
36.8293
36.38
39.565
36.8293
33.6916
35.9315
43.4081
35.4833
37.7317
42.4205
42.4205
38.6426
43.9099
42.4205
42.4205
39.565
37.7317
41.4523
40.501
33.6916
40.501
39.1022
37.7317
35.0351
42.9117
35.0351
45.9781
40.0312
37.2797
39.565
32.3553
31.476
34.1391
40.0312
41.9342
35.9315
40.9747
31.914
39.1022
31.476
37.7317
41.9342
37.2797
33.2446
41.4523
35.9315
43.4081
39.1022
35.4833
45.9781
35.9315
40.501
38.1859
40.9747
35.0351
44.9312
43.9099
41.4523
41.4523
40.501
46.5117
43.9099
38.6426
46.5117
35.9315
46.5117
32.3553
42.9117
35.4833
34.1391
34.5871
31.476
43.4081
35.4833
40.9747
31.476
43.4081
40.501
40.9747
41.9342
40.501
42.9117
31.476
40.501
46.5117
33.6916
32.3553
35.0351
35.0351
31.914
31.914
32.7991
31.476
44.4175
39.1022
33.2446
31.914
47.0525
35.9315
35.0351
41.9342
31.914
33.2446
47.0525
34.5871
47.0525
40.0312
47.0525
47.0525
40.9747
47.0525
39.565
32.3553
43.4081
47.0525
40.0312
47.601
47.601
45.9781
41.4523
35.9315
44.4175
40.501
32.3553
9.2636
17.6866
13.2294
13.6052
14.985
21.9485
6.81353
40.0312
14.1537
41.4523
18.8385
13.4108
22.3588
32.7991
23.7496
20.1278
11.5024
14.3507
31.268
29.9771
31.8836
27.3456
10.0382
21.9864
28.4224
29.3495
8.16168
31.268
17.9812
26.3861
31.5264
31.7543
26.017
19.3229
28.7823
25.3186
18.2034
31.7265
26.5339
31.8696
30.1699
23.9037
29.4145
30.9251
32.2602
8.90238
32.6004
31.7364
25.8346
25.3429
5.09486
25.9753
11.6052
18.9752
12.2935
31.3767
6.55049
32.6288
24.0278
32.7273
33.413
29.5028
25.4102
30.244
33.5372
33.0451
14.3763
27.0422
34.1197
15.1487
22.7204
33.1547
21.9263
32.318
15.715
33.8737
18.4168
32.99
21.8217
33.317
31.7592
35.0329
18.5851
35.0361
28.6578
32.4632
33.2166
31.748
35.0361
33.4154
12.3698
33.4184
17.4668
29.5414
26.9383
32.4937
29.2272
35.6811
2.66975
34.769
35.5229
15.7128
16.446
37.668
31.0294
36.5384
35.7584
36.8785
29.986
23.0523
35.5631
37.2624
10.3334
36.8292
36.7555
33.149
27.9114
37.2674
34.1953
37.0814
28.1078
28.8691
36.3472
31.3573
36.5694
16.2139
37.4959
23.3387
24.7314
39.0694
38.6315
13.8872
38.3839
23.0261
39.514
47.601
40.447
35.2318
2.21965
26.8197
22.903
38.631
37.4096
40.501
38.4341
24.4425
36.9863
25.7036
40.2617
40.2617
41.4523
38.7526
33.8231
39.6713
31.1008
12.5993
40.5279
35.4379
20.9572
32.3895
30.0825
36.6252
40.5741
35.0475
34.7898
16.9056
39.2803
41.52
41.9307
15.473
40.1473
40.9463
26.0565
28.8837
19.3571
37.5014
42.7235
42.345
42.908
41.9559
0.419149
38.757
41.704
38.5807
43.1241
42.9891
16.803
43.3102
25.7844
15.3087
35.8579
29.1252
41.2191
39.8751
9.04829
44.7627
38.1014
28.3056
36.5967
45.9781
43.2031
47.601
0.934101
45.4231
45.3853
45.949
45.9737
21.9814
46.9428
42.2739
43.8387
47.1806
37.3965
20.6929
23.5085
23.8205
26.5304
22.5563
27.8564
25.9211
23.1931
24.7335
27.5079
20.0804
22.5563
20.6929
22.8752
20.9949
20.3907
24.1286
27.5079
24.7335
21.9224
29.3701
28.5899
25.3274
29.7759
22.8752
20.6929
23.5085
23.1931
26.5304
24.1286
23.8205
20.6929
24.4329
20.9949
25.3274
27.5079
29.7759
20.9949
29.3701
20.3907
24.1286
22.8752
26.5304
27.5079
29.7759
25.6233
27.1714
25.3274
28.5899
28.9745
19.7506
20.6929
19.3908
25.3274
27.8564
20.9949
24.7335
24.1286
24.1286
27.8564
29.7759
25.3274
23.5085
27.8564
30.1907
21.6097
23.5085
25.9211
26.846
22.8752
24.1286
26.846
24.4329
21.9224
25.3274
20.3907
26.2228
28.9745
28.9745
24.7335
27.8564
27.5079
30.1907
29.7759
23.1931
23.1931
19.7506
29.3701
30.1907
29.3701
23.8205
21.9224
27.1714
27.5079
25.0312
26.846
19.3908
22.5563
24.7335
19.3908
21.6097
20.3907
27.8564
20.3907
28.9745
25.9211
20.9949
24.7335
25.0312
26.5304
23.5085
26.846
21.3003
28.9745
21.3003
23.5085
26.846
23.5085
23.1931
26.2228
28.5899
26.5304
22.2383
28.9745
24.7335
20.3907
20.3907
30.1907
27.5079
20.3907
20.9949
30.6131
26.846
21.3003
30.6131
19.3908
23.5085
28.217
19.3908
25.3274
29.3701
26.2228
24.1286
21.9224
23.1931
30.1907
25.0312
20.3907
23.5085
29.7759
20.9949
26.846
20.0804
19.3908
26.5304
21.9224
30.6131
29.3701
30.1907
21.9224
26.5304
30.1907
26.846
23.8205
27.8564
23.8205
25.6233
28.217
20.0804
30.6131
24.1286
20.9949
29.3701
26.5304
30.6131
24.1286
24.7335
21.3003
20.9949
23.8205
26.5304
22.5563
20.3907
23.8205
25.3274
28.217
26.5304
27.5067
24.7335
30.1907
21.9224
21.3003
20.0804
22.5563
22.2383
20.0804
25.9211
24.1286
19.3908
20.3907
23.8205
23.5085
25.3274
29.3701
29.3701
22.2383
2.61124
6.95834
4.64877
6.9013
0.719038
27.8564
0.419395
20.9949
19.3908
11.7787
12.6087
12.6467
20.6929
8.27722
16.6818
10.5319
8.6223
11.896
25.9211
5.35634
18.753
18.2227
19.3188
10.7197
18.0774
29.7759
18.9046
3.63573
19.2255
14.9512
23.1931
3.36224
12.3136
19.747
18.9776
18.0399
19.0927
16.7349
8.05579
19.5114
18.6878
5.32808
18.0312
18.2385
5.96126
18.7558
7.76202
19.7488
19.385
11.0317
17.0254
31.0419
9.98661
19.933
18.2184
15.6327
21.9224
14.692
25.6233
14.4896
26.5304
12.7195
15.6327
18.3939
19.1554
19.4576
19.5877
24.4329
20.2778
20.3213
19.747
15.0253
11.739
20.2778
20.3907
15.5712
15.5098
20.3888
17.4579
18.6926
20.2422
0.419253
18.9471
11.1035
20.3561
11.1035
19.1831
19.6695
7.2488
25.9211
6.78846
20.6909
16.5177
4.95299
14.5436
31.0419
18.3228
20.8988
18.8958
20.6469
3.84221
20.3075
20.9483
5.22006
10.5202
20.5541
20.766
22.2383
19.4797
23.5085
20.4508
20.9398
19.666
19.886
17.9017
20.5541
19.9283
18.7957
17.4686
18.1409
6.91047
17.3947
21.28
21.045
21.0255
18.8192
16.7157
15.9358
10.0249
15.6447
21.6097
16.1516
20.9992
15.1655
21.5191
20.7412
12.7111
11.7849
20.7412
0.4191
13.6858
21.5508
11.9258
19.9675
12.3756
21.0595
18.165
21.5374
20.9387
20.3823
20.7957
17.1043
28.5899
17.4353
17.9755
17.6081
17.8888
21.8161
21.3454
22.1646
20.9406
20.7217
22.0516
9.23527
20.5314
9.63494
19.2938
16.8851
2.65687
26.846
22.2851
19.8526
21.8469
18.1414
22.3807
22.3632
22.5495
19.8486
20.3276
22.2097
21.6705
26.2228
22.8702
18.5421
31.0419
22.005
21.1053
0.4191
20.9486
0.419098
22.1072
19.1737
22.8745
20.5031
21.6302
21.3054
17.8797
20.6862
21.6715
23.1116
22.8511
22.5722
27.1714
22.9468
31.0419
22.7263
31.0419
23.1233
22.1338
16.1397
30.6131
22.3997
23.1607
15.2659
14.5769
23.232
23.1089
23.5112
23.6572
23.435
23.6743
23.3671
16.9398
23.6743
23.5112
0.4191
17.9236
23.7305
23.4087
18.179
23.9777
24.1286
22.9542
24.1229
9.71685
28.5899
24.3258
21.3253
14.582
21.8002
19.166
24.0771
24.2943
28.217
16.618
24.387
20.4461
24.3656
20.7864
28.217
16.7093
12.9243
24.4193
2.34221
18.6227
24.6957
20.313
24.5905
24.5131
22.2215
22.5108
24.6757
16.0236
21.4614
21.4366
24.8654
19.0208
23.9372
22.1687
24.9923
13.9438
24.907
13.6679
22.5925
25.9211
15.7884
21.7826
0.421517
22.5221
25.3264
20.9836
21.5487
25.0927
24.4705
20.2208
24.8249
22.6621
15.9868
25.62
25.4467
16.2433
25.5818
22.0527
0.4191
25.8281
14.5077
25.5356
17.4196
31.0419
20.8798
0.419416
24.154
14.906
25.9141
16.136
17.389
25.2344
21.5757
25.8667
26.2217
24.931
27.5079
23.9014
31.0419
10.0265
23.7448
22.7612
22.1831
26.2637
26.5267
8.33889
25.7412
22.2808
25.5583
15.748
15.4095
17.7736
24.5725
8.33889
29.7759
19.2239
26.4731
26.6212
16.7643
11.4184
17.6317
20.4888
15.6941
25.4404
19.3308
21.6997
18.4669
0.419104
27.1836
21.7976
21.9675
22.9436
26.7998
10.8681
27.6582
4.71971
27.3835
27.9863
18.1463
19.6592
22.1104
26.0131
28.1962
27.2203
5.48334
28.5899
7.66611
28.9504
27.2907
28.082
11.141
27.8043
22.9419
22.2916
20.7373
28.973
27.9708
25.0829
6.68933
22.904
28.6976
27.838
28.6475
29.7501
19.0291
27.0001
24.9806
29.5404
29.7501
7.41356
16.4327
27.8496
24.2633
30.1907
29.1452
23.92
25.7318
29.2083
30.0157
29.2762
29.5326
30.6114
24.3927
28.6918
30.3759
21.7448
30.3759
0.419106
29.295
)


// ************************************************************************* //
