/*--------------------------------*- C++ -*----------------------------------*\
  =========                 |
  \\      /  F ield         | OpenFOAM: The Open Source CFD Toolbox
   \\    /   O peration     | Website:  https://openfoam.org
    \\  /    A nd           | Version:  7
     \\/     M anipulation  |
\*---------------------------------------------------------------------------*/
FoamFile
{
    version     2.0;
    format      ascii;
    class       scalarField;
    location    "0.7/lagrangian/reactingCloud1";
    object      T;
}
// * * * * * * * * * * * * * * * * * * * * * * * * * * * * * * * * * * * * * //


2449
(
592.597
591.159
590.885
590.48
590.476
589.719
590.02
589.106
588.846
589.423
589.65
588.631
587.96
589.356
588.507
588.611
588.9
588.478
588.083
588.159
588.188
588.56
588.688
588.532
588.449
588.532
588.374
588.404
588.379
588.449
588.413
588.557
588.482
588.447
588.461
588.485
588.494
588.486
588.523
588.518
588.505
588.508
597.988
595.093
597.804
594.981
594.841
597.493
596.252
590.849
590.525
589.998
591.562
591.326
590.13
593.543
594.882
592.024
591.491
593.589
592.91
593.111
592.141
595.193
591.52
592.222
592.458
594.284
593.2
593.015
595.138
594.864
592.41
597.058
595.18
593.918
592.747
593.256
594.464
594.718
594.332
593.165
594.3
594.012
594.435
594.094
593.472
593.811
593.735
593.271
593.913
595.235
593.477
593.347
592.664
592.988
592.949
592.877
592.508
592.488
592.707
593.269
594.939
592.231
592.084
592.532
592.396
591.741
594.565
591.589
591.922
556.677
562.195
562.698
564.937
565.197
565.516
569.699
570.819
576.947
577.863
579.688
580.523
582.564
583.823
583.374
584.561
584.841
584.203
588.712
588.319
586.867
587.571
591.212
522.545
527.263
534.924
538.477
539.474
543.987
545.386
543.142
547.518
331.135
550.431
508.331
508.619
413.153
505.158
508.719
509.142
509.665
509.767
510.427
441.35
517.061
518.652
511.701
520.489
493.621
519.736
520.278
226.063
506.659
506.896
507.01
381.642
506.648
507.164
504.451
506.873
506.884
506.345
507.266
484.973
506.769
507.46
507.938
507.732
508.426
271.499
505.348
505.197
505.43
432.948
492.203
505.454
440.146
505.621
417.103
464.834
484.957
505.896
505.941
505.864
503.393
505.877
490.659
506.215
496.308
506.408
506.185
484.685
506.515
506.728
506.663
500.897
504.578
504.665
504.746
459.816
504.756
453.172
497.919
494.665
504.633
500.238
504.824
504.835
498.353
503.231
463.01
504.715
504.799
317.654
475.442
504.431
424.883
502.665
378.371
504.773
438.896
490.001
338.529
401.557
470.897
470.897
505.011
505.163
505.083
226.94
445.625
505.06
502.501
505.046
316.68
498
504.999
505.306
505.261
504.427
504.435
504.463
504.497
504.512
504.45
266.983
360.262
330.396
355.716
479.305
416.72
504.364
504.441
356.103
437.137
504.432
413.254
504.467
504.483
457.635
414.153
504.435
486.469
458.837
494.879
267.499
504.336
504.37
473.025
504.452
504.489
412.955
499.928
439.45
366.576
439.45
504.534
230.779
504.133
311.174
504.539
504.51
494.695
418.277
504.346
504.508
504.585
502.667
504.557
488.165
363.357
504.543
504.533
504.537
364.202
504.185
453.735
341.625
504.537
503.753
388.982
494.058
245.314
437.051
504.669
504.65
504.588
486.967
390.904
504.664
384.054
469.94
504.661
504.423
504.423
504.423
504.423
504.42
504.42
504.423
504.423
504.422
504.42
504.421
504.421
504.423
504.421
504.423
228.579
411.477
405.997
411.477
442.804
287.131
323.299
417.003
403.734
494.016
469.505
504.365
503.493
504.096
463.941
477.155
465.058
467.311
495.78
233.151
376.48
400.991
504.381
504.403
417.761
491.37
504.423
481.894
504.34
504.373
255.288
368.431
502.127
342.758
503.779
291.379
504.188
374.76
504.368
495.859
504.298
391.324
417.933
504.428
263.629
327.879
376.474
504.419
503.046
504.421
504.424
491.663
504.439
328.56
345.253
434.618
498.916
381.318
398.727
504.417
422.819
462.418
497.918
504.403
364.867
235.036
407.088
504.461
449.289
437.653
504.344
504.304
504.354
504.195
504.385
503.932
504.344
504.304
504.354
504.164
504.287
504.404
504.407
503.994
504.395
504.371
504.195
504.195
504.164
504.414
503.932
504.4
503.932
504.41
504.395
504.332
504.414
504.379
504.332
504.045
504.385
504.42
504.414
504.42
504.045
504.42
504.304
504.412
504.42
504.363
504.09
237.742
228.103
504.247
315.589
390.519
429.795
423.089
368.363
471.376
359.476
480.82
421
428.007
477.395
272.912
397.25
308.391
412.747
389.965
426.282
393.077
403.621
503.86
504.042
398.342
436.798
461.999
389.87
504.363
481.772
345.025
278.777
459.806
402.414
504.422
281.193
365.248
361.701
438.458
504.416
401.004
439.515
297.197
448.959
300.97
263.63
448.959
280.907
454.196
442.661
382.638
267.462
417.832
317.349
487.361
297.775
440.462
484.938
410.931
326.813
262.164
471.924
452.17
408.292
468.969
468.969
431.4
470.061
504.413
434.322
420.837
470.307
439.786
376.679
454.167
395.158
503.994
450.783
432.715
391.301
464.244
494.744
439.336
439.336
444.335
424.684
478.019
444.335
464.244
439.336
482.126
429.493
424.684
489.279
410.853
410.853
473.633
499.793
499.793
402.2
419.969
419.969
502.201
444.335
429.493
478.019
502.663
415.356
492.234
429.493
473.633
434.382
415.356
469.023
415.356
485.897
501.598
449.049
503.294
449.356
502.201
502.663
449.356
485.897
473.633
406.467
434.382
502.201
402.2
503.495
459.346
402.2
402.2
449.356
503.495
406.467
473.633
454.37
406.467
478.019
464.244
419.969
503.647
419.969
419.969
434.382
503.764
410.853
464.244
503.764
494.744
402.2
419.969
494.744
229.915
234.653
503.857
304.895
328.878
327.187
419.969
284.283
372.853
298.862
246.608
339.183
344.074
360.368
246.332
351.301
305.176
293.204
404.048
399.482
295.62
355.247
289.165
274.68
380.943
301.118
228.938
421.417
315.656
225.183
273.41
342.668
380.729
309.516
396.433
247.164
353.887
398.968
335.698
396.786
427.473
312.632
425.68
382.659
436.561
382.087
326.687
340.285
414.386
340.059
327.549
417.603
437.775
342.67
377.604
297.737
328.424
449.189
322.805
389.669
325.147
388.912
411.13
369.533
353.554
433.688
292.877
267.822
426.911
433.632
325.951
289.009
357.979
340.324
236.285
341.457
264.882
470.07
370.808
401.813
321.195
482.186
337.855
327.375
437.191
444.551
302.016
384.841
469.529
344.983
377.835
417.572
228.246
315.162
408.834
237.445
446.345
376.289
352.018
432.616
303.23
446.575
419.68
500.934
279.245
365.335
418.14
449.05
393.228
321.108
315.216
446.152
370.242
321.823
225.261
498.216
341.352
395.21
255.116
263.236
458.264
347.044
499.634
503.594
333.859
489.618
366.917
355.495
500.916
467.315
285.072
338.134
330.199
316.957
328.365
340.281
321.56
324.86
312.731
326.586
312.731
316.957
357.448
321.56
326.586
344.788
318.447
326.586
314.101
332.09
342.498
326.586
366.129
324.86
324.86
338.134
349.601
314.101
354.744
369.224
323.185
357.448
340.281
314.101
336.055
336.055
347.155
354.744
323.185
326.586
342.498
323.185
340.281
321.56
321.56
318.447
334.042
328.365
321.56
314.101
363.137
340.281
369.224
321.56
323.185
328.365
326.586
315.509
321.56
330.199
312.731
352.129
340.281
314.101
344.788
326.586
336.055
369.224
315.509
354.744
321.56
323.185
375.736
323.185
324.86
349.601
349.601
340.281
298.151
347.155
328.365
334.042
334.042
324.86
375.736
321.56
326.586
324.86
363.137
342.498
336.055
321.56
336.055
319.981
344.788
318.447
326.586
326.586
321.56
375.736
379.16
323.185
328.365
342.498
319.981
319.981
334.042
315.509
315.509
379.16
336.055
318.447
366.129
314.101
379.16
321.56
372.425
332.09
319.981
330.199
314.101
344.788
372.425
316.957
344.788
342.498
338.134
314.101
319.981
375.736
312.731
382.699
375.736
328.365
316.957
332.09
340.281
340.281
312.731
386.357
312.731
354.744
314.101
328.365
382.699
386.357
352.129
344.788
315.509
334.042
344.788
379.16
316.957
338.134
352.129
349.601
379.16
360.244
338.134
336.055
360.244
349.601
334.042
342.498
366.129
349.601
354.744
372.425
390.134
390.134
324.86
336.055
366.129
326.586
314.101
347.155
318.447
394.034
363.137
360.244
326.586
360.244
375.736
375.736
382.699
330.199
338.134
326.586
357.448
394.034
344.788
354.744
340.281
369.224
349.601
352.129
324.86
398.056
398.056
352.129
398.056
398.056
324.86
342.498
256.103
398.056
266.168
259.383
290.752
390.134
283.577
296.927
299.512
305.857
292.869
302.337
297.088
314.08
305.857
295.001
312.556
307.508
324.86
312.299
314.671
288.549
248.329
300.618
306.439
250.908
296.607
241.272
311.003
261.091
291.614
304.739
304.077
267.403
330.199
322.456
254.072
265.106
326.586
321.649
319.731
398.056
291.751
287.8
322.79
296.73
319.655
298.405
326.047
234.344
304.107
331.533
329.452
307.066
309.047
282.988
289.803
248.964
299.144
354.744
297.851
331.915
313.038
309.047
288.738
244.872
327.278
269.003
332.532
338.01
318.193
334.849
286.835
326.508
225.98
329.783
266.326
312.132
340.801
309.916
284.376
344.292
271.766
233.424
308.364
229.812
264.6
286.12
336.102
305.646
320.165
325.781
349.601
346.844
349.601
242.199
333.935
346.601
313.916
273.049
320.169
274.043
379.16
333.131
301.649
347.709
294.694
333.131
322.629
349.115
340.551
228.859
315.247
348.333
266.371
271.334
320.567
278.946
363.361
314.248
353.529
347.129
356.486
249.866
357.653
358.712
222.123
309.168
379.16
348.432
358.113
377.035
353.799
390.023
254.939
375.357
362.869
379.186
267.117
361.157
287.425
373.827
277.238
259.223
331.453
342.799
397.221
271.43
329.605
294.17
289.229
298.84
280.879
299.843
288.466
290.804
290.008
282.17
290.793
281.521
275.135
298.84
292.449
285.553
294.17
300.871
283.493
287.717
286.262
287.717
300.871
292.449
286.983
290.008
280.879
282.827
284.856
282.827
289.229
284.856
296.906
281.521
292.449
296.906
303.004
303.004
295.972
284.856
289.229
301.924
294.17
292.449
288.466
289.229
290.804
299.843
290.804
280.879
299.843
301.924
281.521
301.924
288.466
285.553
284.17
280.879
281.521
294.17
288.466
304.112
303.004
300.871
282.827
291.617
303.004
303.004
304.112
289.229
280.879
285.553
305.248
282.827
305.248
291.617
281.521
295.061
298.84
288.466
287.717
301.924
285.553
298.84
288.466
295.972
281.521
284.856
305.248
288.466
296.906
306.415
284.856
298.84
290.008
282.17
293.3
295.061
284.856
301.924
290.804
292.449
284.17
298.84
306.415
286.262
285.553
290.804
298.84
282.827
295.972
306.415
285.553
282.827
282.17
292.449
287.717
294.17
283.493
307.611
307.611
295.061
282.17
307.611
294.17
291.617
286.262
300.871
287.717
301.924
286.262
298.84
291.617
303.004
281.521
298.84
280.879
308.84
298.84
308.84
284.17
287.717
292.449
284.856
284.856
306.415
295.972
308.84
296.906
305.248
285.553
308.84
291.617
308.84
288.466
282.17
304.112
293.3
299.843
286.983
297.861
305.248
298.84
282.827
291.617
286.983
306.415
295.972
293.3
305.248
284.17
305.248
310.102
303.004
298.84
310.102
301.924
288.466
300.871
296.906
287.717
311.399
306.415
293.3
282.827
306.415
311.399
285.553
290.804
284.17
287.717
311.399
287.717
305.248
305.248
311.399
217.204
289.229
213.969
227.379
250.182
308.84
254.942
235.55
254.145
249.48
243.661
226.887
280.879
269.175
265.528
249.159
260.164
271.229
273.62
280.585
240.209
270.895
311.399
280.856
211.63
267.282
282.827
284.856
227.418
280.558
281.145
276.145
283.493
271.521
280.644
303.004
280.196
229.159
245.766
277.37
276.506
280.102
284.715
275.662
239.667
262.834
275.417
251.376
252.795
267.794
280.964
276.372
286.053
264.695
275.659
286.769
258.811
286.422
251.981
287.717
285.071
277.635
281.862
287.982
286.013
283.358
261.041
280.778
277.504
289.998
211.844
289.498
280.671
274.424
286.867
301.924
269.493
286.975
273.3
281.656
292.413
285.267
278.546
285.635
287.033
263.467
283.935
278.104
274.606
284.347
283.257
288.801
287.736
291.494
234.168
290.686
287.679
295.022
269.756
266.823
286.278
273.139
269.588
267.635
264.66
294.982
287.565
295.96
279.583
296.865
254.796
240.222
274.231
248.195
279.551
292.951
265.667
288.531
293.955
297.642
273.68
295.138
294.634
293.872
281.063
284.399
278.167
300.824
213.578
288.355
287.815
271.999
299.698
298.205
272.323
252.389
296.032
296.464
277.037
280.634
303.847
279.999
274.251
283.697
282.41
300.57
263.251
260.872
271.258
311.399
303.643
305.827
282.369
300.403
264.715
263.627
272.499
270.236
270.798
271.363
272.499
266.357
273.071
273.071
275.98
264.715
264.171
274.805
266.906
265.262
272.499
276.574
265.262
263.627
269.119
262.543
270.798
263.085
263.627
269.119
264.715
269.119
265.262
263.627
276.574
262.543
263.085
263.085
268.563
275.391
276.574
270.798
263.627
268.009
275.391
274.224
273.071
277.776
263.085
268.009
272.499
265.808
264.715
270.798
265.808
266.357
269.119
271.929
265.808
268.563
263.627
277.776
277.172
264.715
276.574
277.776
262.004
274.224
277.172
270.236
267.457
266.906
270.798
267.457
263.627
266.357
275.391
265.808
268.563
274.224
274.224
269.677
275.98
274.224
274.224
270.798
268.563
273.071
271.929
263.627
271.929
270.236
268.563
265.262
274.805
265.262
278.384
271.363
268.009
270.798
262.004
260.928
264.171
271.363
273.645
266.357
272.499
261.464
270.236
260.928
268.563
273.645
268.009
263.085
273.071
266.357
275.391
270.236
265.808
278.384
266.357
271.929
269.119
272.499
265.262
277.172
275.98
273.071
273.071
271.929
278.999
275.98
269.677
278.999
266.357
278.999
262.004
274.805
265.808
264.171
264.715
260.928
275.391
265.808
272.499
260.928
275.391
271.929
272.499
273.645
271.929
274.805
260.928
271.929
278.999
263.627
262.004
265.262
265.262
261.464
261.464
262.543
260.928
276.574
270.236
263.085
261.464
279.619
266.357
265.262
273.645
261.464
263.085
279.619
264.715
279.619
271.363
279.619
279.619
272.499
279.619
270.798
262.004
275.391
279.619
271.363
280.246
280.246
278.384
273.071
266.357
276.574
271.929
262.004
222.867
237.147
229.525
230.164
232.516
244.392
218.895
271.363
231.06
273.071
238.967
229.769
245.099
262.543
247.631
241.165
226.55
231.313
260.564
258.308
261.411
253.55
224.113
243.799
255.598
257.013
221.052
260.564
237.361
251.896
260.79
261.186
251.106
239.621
255.663
249.766
237.66
260.917
251.99
261.164
258.034
247.365
256.932
259.128
261.839
222.237
262.201
260.718
250.497
249.526
216.266
250.734
226.622
238.794
227.751
259.897
218.485
262.25
247.199
262.201
263.153
256.358
249.506
257.603
263.153
262.322
231.064
252.234
263.929
232.365
244.722
262.307
243.507
260.721
233.211
263.318
237.612
262.03
243.167
262.204
259.789
265.258
237.886
265.063
254.358
260.62
262.037
259.601
265.063
262.367
227.762
262.029
235.982
255.675
251.424
260.359
255.161
265.753
212.978
264.25
265.313
233.124
234.305
268.459
257.839
266.798
265.525
267.353
256.032
244.825
265.042
267.98
224.508
267.096
266.977
261.135
252.596
267.808
262.68
267.166
252.727
253.935
266.314
258
266.344
233.837
267.666
245.113
247.311
270.184
269.311
230.16
268.917
244.569
270.717
280.246
271.844
263.909
212.492
250.458
244.327
269.143
267.21
271.929
268.831
246.682
266.392
248.648
271.552
271.552
273.071
269.172
261.303
270.62
257.057
228.13
271.797
263.825
241.21
258.856
255.38
265.542
271.698
263.088
262.566
234.874
269.522
273.001
273.64
232.645
270.868
272.109
249.016
253.292
238.649
266.488
274.515
273.932
274.799
273.333
211.451
268.272
272.779
268.003
274.955
274.575
234.712
275.065
248.394
232.413
263.613
253.446
271.721
269.686
222.721
276.917
266.872
252.143
264.609
278.384
274.56
280.246
211.469
277.733
277.496
278.341
278.378
242.48
279.456
272.384
274.69
279.624
265.207
244.782
248.819
249.37
254.087
247.316
256.139
253.068
248.314
250.971
255.627
244.021
247.316
244.782
247.781
245.13
244.352
249.89
255.627
250.971
246.401
258.246
257.184
252.034
258.783
247.781
244.782
248.819
248.314
254.087
249.89
249.37
244.782
250.445
245.13
252.034
255.627
258.783
245.13
258.246
244.352
249.89
247.781
254.087
255.627
258.783
252.563
255.108
252.034
257.184
257.716
243.574
244.782
243.266
252.034
256.139
245.13
250.971
249.89
249.89
256.139
258.783
252.034
248.819
256.139
259.317
245.94
248.819
253.068
254.602
247.781
249.89
254.602
250.445
246.401
252.034
244.352
253.585
257.716
257.716
250.971
256.139
255.627
259.317
258.783
248.314
248.314
243.574
258.246
259.317
258.246
249.37
246.401
255.108
255.627
251.516
254.602
243.266
247.316
250.971
243.266
245.94
244.352
256.139
244.352
257.716
253.068
245.13
250.971
251.516
254.087
248.819
254.602
245.565
257.716
245.565
248.819
254.602
248.819
248.314
253.585
257.184
254.087
246.819
257.716
250.971
244.352
244.352
259.317
255.627
244.352
245.13
259.855
254.602
245.565
259.855
243.266
248.819
256.663
243.266
252.034
258.246
253.585
249.89
246.401
248.314
259.317
251.516
244.352
248.819
258.783
245.13
254.602
244.021
243.266
254.087
246.401
259.855
258.246
259.317
246.401
254.087
259.317
254.602
249.37
256.139
249.37
252.563
256.663
244.021
259.855
249.89
245.13
258.246
254.087
259.855
249.89
250.971
245.565
245.13
249.37
254.087
247.316
244.352
249.37
252.034
256.663
254.087
255.624
250.971
259.317
246.401
245.565
244.021
247.316
246.819
244.021
253.068
249.89
243.266
244.352
249.37
248.819
252.034
258.246
258.246
246.819
212.136
219.384
215.495
219.308
211.264
256.139
211.092
245.13
243.266
228.389
229.755
230.058
244.782
221.747
237.569
225.865
222.33
228.411
253.068
216.662
242.002
240.953
243.123
226.116
240.666
258.783
242.302
214.286
242.938
234.225
248.314
213.905
229.065
243.567
242.053
240.592
242.279
237.673
221.33
242.9
241.484
216.794
240.199
240.604
217.813
241.618
220.788
243.571
242.854
226.601
238.044
260.389
224.72
243.73
240.365
235.357
246.401
233.381
252.563
233
254.087
229.825
235.357
240.708
242.2
242.794
243.05
250.445
244.131
244.216
243.092
234.011
227.801
244.131
244.352
235.238
234.631
244.348
238.653
241.039
243.9
211.128
241.533
226.542
244.123
226.542
241.993
242.784
219.819
253.068
219.069
244.778
236.529
216.193
232.984
260.389
239.965
244.943
241.065
244.452
214.612
243.792
245.039
216.59
225.409
244.272
244.684
246.819
242.037
248.819
244.071
245.022
242.55
242.821
239.014
244.272
242.902
240.872
238.19
239.47
219.175
237.872
245.526
245.068
245.03
240.767
236.595
235.137
224.384
234.595
245.94
235.539
244.758
233.602
245.764
244.259
229.128
227.472
244.259
211.109
230.787
245.826
227.722
242.769
228.434
244.733
239.329
245.656
244.641
243.256
244.224
237.07
257.184
237.83
238.848
238.011
238.537
246.195
245.1
246.677
244.213
243.904
246.459
222.835
243.54
223.512
241.083
236.569
212.978
254.602
246.793
242.141
245.949
238.913
246.977
246.943
247.154
242.239
242.911
246.502
245.61
253.585
247.772
239.546
260.389
246.253
244.39
211.038
244.091
211.128
246.305
240.732
247.78
243.17
245.392
244.771
238.308
243.518
245.394
248.157
247.735
247.119
255.108
247.84
260.389
247.316
260.389
248.18
246.182
234.953
259.855
246.788
248.15
233.326
232.077
248.287
248.05
248.774
249.055
248.627
249.088
248.547
236.39
249.088
248.774
211.048
238.165
249.125
248.507
238.638
249.6
249.89
247.637
249.879
223.504
257.184
250.239
244.513
232.041
245.413
240.456
249.761
250.179
256.663
235.743
250.357
242.855
250.316
243.458
256.663
235.886
229.058
250.367
212.568
239.414
250.898
242.569
250.696
250.547
246.17
246.7
250.86
234.627
244.731
244.667
251.197
240.143
249.417
246.051
251.441
230.864
251.227
230.372
246.817
253.068
234.187
245.287
211.369
246.684
252.032
243.784
244.846
251.583
250.392
242.355
251.035
246.949
234.547
252.557
252.225
235.009
252.484
245.774
211.136
252.89
231.867
252.331
237.142
260.389
243.539
211.343
249.656
232.582
253.054
234.8
237.078
251.704
244.812
252.827
253.583
251.128
255.627
249.118
260.389
224.033
248.884
247.032
245.948
253.58
254.08
221.212
252.589
246.084
252.243
234.09
233.481
237.764
250.32
221.212
258.783
240.42
253.978
254.177
235.921
226.433
237.494
242.686
233.985
251.861
240.566
244.913
238.992
211.052
255.02
245.094
245.355
247.151
254.178
225.519
255.77
215.596
255.125
256.236
238.33
241.048
245.48
252.604
256.462
254.676
216.744
257.184
220.185
257.672
254.654
256.092
226.018
255.587
246.9
245.725
242.858
257.713
255.718
250.527
218.647
246.633
257.03
255.478
256.758
258.737
239.755
253.81
250.344
258.36
258.737
219.822
235.148
255.148
248.936
259.317
257.453
248.197
251.395
257.367
258.796
257.487
257.941
259.852
248.893
256.455
259.217
244.265
259.217
211.242
257.317
)


// ************************************************************************* //
