/*--------------------------------*- C++ -*----------------------------------*\
  =========                 |
  \\      /  F ield         | OpenFOAM: The Open Source CFD Toolbox
   \\    /   O peration     | Website:  https://openfoam.org
    \\  /    A nd           | Version:  7
     \\/     M anipulation  |
\*---------------------------------------------------------------------------*/
FoamFile
{
    version     2.0;
    format      ascii;
    class       scalarField;
    location    "0.7/lagrangian/reactingCloud1";
    object      tTurb;
}
// * * * * * * * * * * * * * * * * * * * * * * * * * * * * * * * * * * * * * //


2449
(
0.0003555
0.004115
0.00401
0.003905
0.0038
0.003695
0.00359
0.003485
0.00338
0.003275
0.00317
0.003065
0.00296
0.002855
0.00275
0.002645
0.00254
0.002435
0.00233
0.002225
0.00212
0.002015
0.00191
0.001805
0.0017
0.001595
0.00149
0.00148625
0.001385
0.00128
0.001175
0.00107
0.000965
0.00086
0.000755
0.00065
0.000545
0.00044
0.000335
0.00023
0.000125
2e-05
0.000467
0.0038335
0.0007655
6.55e-05
0.000697
0.0007455
0.001565
0.000950763
0.010525
0.01042
0.01021
0.010105
0.01
0.00298292
0.0012205
0.0097
0.0096
0.0095
0.0094
0.0093
0.0092
0.00440519
0.0091
0.0089
0.0088
0.0087
0.0086
0.0085
0.00401
0.00129578
0.0083
0.00115671
0.00288286
0.0078
0.0079
0.0077
0.0019905
0.000695
0.0074
0.0073
0.0072
0.0071
0.000137776
0.0069
0.0068
0.0067
0.0066
0.0065
0.0064
0.00222
0.0062
0.006
0.0061
0.0059
0.005795
0.00569
0.00548
0.005585
0.005375
0.005165
0.0009435
0.004955
0.00506
0.004745
0.00464
0.004535
0.000862
0.00443
0.0036535
0.00105579
0.000527812
0.0121
0.0120962
0.00019
0.00087
0.00116231
0.011785
0.000846318
0.0001385
0.0112562
0.01126
0.011365
0.01147
0.01105
0.011155
0.010945
0.010735
0.00370586
0.00597
0.01084
0.010315
0.002817
0.0016876
0.00172241
0.013045
0.01294
0.0029105
0.01273
0.01252
0.000483167
0.00505033
0.000597
0.00108716
0.014935
0.00317531
0.000387
0.00124238
0.0027
0.01462
0.0026085
0.014515
0.002775
0.0005305
0.0016455
0.00274296
0.001225
0.01357
0.00116197
0.013675
0.00187645
0.0044885
0.01698
0.01678
0.0046585
7.05e-05
0.01638
0.00459
0.00388
0.0011435
0.01618
0.00271523
0.015775
0.001325
0.004135
0.01567
0.0033435
0.015145
0.003285
0.002542
0.0035735
0.01968
0.0010785
1.35e-05
0.00201
0.01928
0.0019555
0.01898
0.0031055
0.00156
0.0004985
0.006142
0.00685823
0.01838
0.0035305
0.01828
0.001017
0.01798
0.001947
0.01738
0.005543
0.00137526
0.01718
0.0115831
0.0008105
0.000667
0.000327828
0.02397
0.0012305
0.0002335
0.0126635
0.00537812
0.00215138
0.00102311
0.023235
6.85e-05
0.0014135
0.0013085
0.002502
0.008762
0.0047535
0.022395
0.02229
0.0051155
0.002445
0.0098405
0.002435
0.01007
0.0036535
0.021345
0.0009355
0.002325
0.0002405
0.0033685
0.004032
0.0025935
0.0085805
0.0023885
0.02061
0.0045255
0.0015385
0.0204
0.0025305
0.020295
0.0025155
0.000615
0.008215
0.000297
0.01998
0.00160398
0.00258187
0.00206921
0.0013674
0.00157121
0.000438706
0.002137
0.0014635
0.0022155
0.004837
0.0051155
0.0072335
0.0061755
0.02926
0.0007105
0.0034105
0.0016905
0.0029655
0.0016255
0.02866
0.0047785
0.000727
0.0187885
0.00704181
0.004242
0.0064055
0.0038085
0.002705
0.003892
0.00465073
0.02766
0.02756
0.0063805
0.011482
0.005342
0.0051435
0.0037835
0.0013955
0.000527
0.00397646
0.00761
0.002197
0.002792
0.00447285
0.0043655
0.004132
0.014122
0.000805
0.0129352
0.02596
0.00269765
0.0027735
0.025545
0.0254362
0.013117
0.003122
0.011387
0.00594673
0.0004805
0.0250162
0.0017085
0.004897
0.001292
0.0050005
0.0045155
0.0071555
0.0246
0.004832
0.0047935
0.002542
0.02439
0.000607
0.0054055
0.02418
0.00468261
0.00418347
0.00411489
0.00523551
0.00349045
0.00246751
0.00215069
0.00198324
0.00208292
0.00165748
0.00156386
0.00122039
0.00184859
0.000908339
0.000174232
0.0130485
0.008575
0.0011835
0.004187
0.0088535
0.006637
0.0095735
0.004947
0.0064585
0.0089105
0.00664677
0.013487
0.01028
0.022037
0.0069935
0.001692
0.0042355
0.006447
0.008277
0.0094855
0.0098135
0.0020035
0.0053555
0.0027435
0.0034355
0.0078855
0.00104
0.0004035
0.008457
0.0025035
0.0138255
0.006287
0.0040105
0.0051085
0.0225231
0.000617
0.004842
0.00313
0.0032635
0.00755
0.0132335
0.00839
0.001887
0.0006785
0.00488
0.0060885
0.0044185
0.0017405
0.0160735
0.0058905
0.031745
0.0053685
0.0006085
0.008082
0.001527
0.0083285
0.003715
0.000351408
0.0075505
0.0027405
0.0006405
0.006485
0.0115955
0.0043155
0.002952
0.0009605
0.0034335
0.001587
0.0064185
0.0066885
0.0040884
0.00347456
0.00345518
0.00513036
0.00231183
0.00268113
0.00267102
0.00102391
0.00251947
0.00212968
0.00184954
0.00258568
0.00272954
0.00171388
0.00200842
0.00156603
0.00149451
0.00108713
0.0010375
0.00445335
0.00095014
0.00114646
0.00093633
0.00128515
0.00100382
0.000919227
0.00104929
0.000905762
0.00072926
0.000685655
0.00062749
0.00276425
0.000603406
0.001842
0.000415244
0.000905589
0.000386516
0.000417624
0.000985225
0.00031405
0.000237
0.014007
0.018607
0.000104358
0.0027135
0.0042055
0.0081535
0.0021955
0.0099335
0.0057485
0.010132
0.0135029
0.0032035
0.007205
0.0122455
0.013722
0.004622
0.005617
0.002712
0.0014855
0.0082055
0.007552
0.002342
0.00897
0.0035985
0.0083905
0.0049235
0.002772
0.0026435
0.00447324
0.013142
0.0009735
0.0114155
0.00803812
0.005672
0.00396865
0.0108735
0.0015285
0.0061
0.0096285
2.7e-05
0.002237
0.009557
0.0117505
0.007582
0.0061035
0.004912
0.00754642
0.0137285
0.0105971
0.0049135
0.0054385
0.001157
0.007165
0.012342
0.01359
0.007617
0.0015655
0.0109955
0.0027955
0.005047
0.0137135
0.0023885
0.003247
0.002657
0.0045705
0.0041205
0.0078885
0.00794284
0.000522
0.002047
0.00408
0.005327
0.0053285
0.01017
0.00418087
0.00186538
0.0058185
0.0083055
0.010317
0.0106805
0.00483605
0.00605778
0.00421933
0.00368179
0.00347594
0.00344504
0.00338652
0.00327855
0.00324943
0.00318071
0.00280774
0.00301721
0.00281671
0.00285411
0.0106847
0.00259549
0.00252796
0.00250795
0.00220428
0.00205692
0.0037277
0.00198555
0.00341272
0.00190784
0.00178409
0.00275071
0.0032765
0.00167729
0.00173416
0.00200671
0.00215523
0.00249336
0.00144453
0.0014563
0.012804
0.00139362
0.00137388
0.0014035
0.00140078
0.00115822
0.00531503
0.00122091
0.00113532
0.00365285
0.00110149
0.00104451
0.00106876
0.00102253
0.000898837
0.00148344
0.00117517
0.000802312
0.000797208
0.000881949
0.00404542
0.00072492
0.00378896
0.000725009
0.00067229
0.000706754
0.000583953
0.000438035
0.0144296
0.000596126
0.000328913
0.000327798
0.00126011
0.000177552
0.000804975
0.00100303
0.000215202
0.000969892
0.00470588
0.000141
0.0135535
0.005002
0.00148293
0.0176135
0.0150555
0.0020355
0.000441053
0.002212
0.010515
0.0164785
0.0031985
0.003277
0.0162585
0.0058555
0.016405
0.015715
0.0063085
0.00968
0.010378
0.0133109
0.0106705
0.0116005
0.001532
0.003205
0.0100405
0.000635
0.0043135
0.005662
0.0097655
0.0047855
0.010522
0.0007735
0.003422
0.0159855
0.00912038
0.015167
0.01209
0.0114735
0.0053955
0.0117585
0.00745591
0.005337
0.0048255
0.012635
0.00327
0.0102055
0.0122835
0.000145
0.0014305
0.002947
0.00897
0.003562
0.0038435
0.001212
7.55e-05
0.002605
0.006555
0.002467
0.010505
0.002275
0.0054285
0.00173
0.0007985
0.0021
1.7e-05
0.0016605
0.008165
0.0024855
0.0133555
0.0038855
0.0074705
0.0101485
0.001182
0.0116735
0.0015005
0.0119335
0.011052
0.00357307
0.0030735
0.0116855
0.0015705
0.0115635
0.0043485
0.001032
0.005057
0.003882
0.003087
0.0048805
0.0041085
0.0104585
0.004077
0.0095135
0.0113405
0.012442
0.006262
0.0074135
0.0123055
0.00911
0.0029805
0.0023855
0.0062755
0.006947
0.0071685
0.006362
0.015547
0.0131235
0.005307
0.0120605
0.0097685
0.0022205
0.00415
0.0050035
0.0131355
0.005522
0.0143535
0.0116035
0.0019035
0.0127505
0.0133435
0.0061985
0.0099085
0.0122455
0.0111655
0.017113
0.005057
0.0051055
0.001302
0.0131055
0.01532
0.0103035
0.0059885
0.00245723
0.00392918
0.00742307
0.00391375
0.000528157
0.00584333
0.00087648
0.00533574
0.00174128
0.0065921
0.0131378
0.003313
0.0037703
0.00373442
0.00375868
0.0137038
0.000328
0.00265197
0.00357272
0.00577022
0.00353749
0.00587142
0.000323561
0.00350036
0.00165957
0.010366
0.00317863
0.00326816
0.00356156
0.00173998
0.00315232
0.0031013
0.0101355
0.00306472
0.00306147
0.00113328
0.00303198
0.00296538
0.00292643
0.00296727
0.00289887
0.00292919
0.00287681
0.00474849
0.00283706
0.00285042
0.00285587
0.00591339
0.000755181
0.00283922
0.00280066
0.00280578
0.00267726
0.00266236
0.00289155
0.00258636
0.00251794
0.0025295
0.00261231
0.000381275
0.00258779
0.00137484
0.00248259
0.00124625
0.000280321
0.00182673
0.00253551
0.0244521
0.00244939
0.00234206
0.00108186
0.00285961
0.000625432
0.00233882
0.0116868
0.00237353
0.00235795
0.0030085
0.00235978
0.00219428
0.00230696
0.00916228
0.00226098
0.00384167
0.0052339
0.00221135
0.0021596
0.00222553
0.00228188
0.00864171
0.00211943
0.00214937
0.00652337
0.00227188
0.00496657
0.00206556
0.00204519
0.00204486
0.00212777
0.00345431
0.00315885
0.00197295
0.00196745
0.0046942
0.0018407
0.00189188
0.00183072
0.00188423
0.000629142
0.00179201
0.00174543
0.00182825
0.00171578
0.00343374
0.00747375
0.00180902
0.0192675
0.00163589
0.00167298
0.00160931
0.00169548
0.00924231
0.00115304
0.00027715
0.0016343
0.001619
0.00153075
0.00498274
0.00159195
0.00142279
0.00256446
0.00317177
0.0037461
0.00141472
0.00885494
0.00140445
0.0068415
0.00458931
0.00159541
0.00127665
0.00402516
0.0092635
0.00123657
0.00152024
0.00249977
0.00178697
0.00120299
0.00116529
0.00114039
0.00116657
0.00112447
0.000996926
0.00427968
0.0010756
0.00105656
0.00109206
0.00100913
0.000962415
0.00110025
0.00094283
0.0009228
0.00148055
0.000869474
0.00093446
0.000868694
0.00702287
0.000764164
0.00325885
0.00170662
0.0116755
0.000702523
0.00212259
0.0164387
0.000583038
0.000680075
0.00447503
0.00215144
0.000637866
0.0130837
0.000543234
0.000582237
0.000609989
0.000546714
0.000563626
0.000450248
0.000371684
0.000337574
0.000385535
0.000231428
0.0193276
0.000324068
0.000270516
0.000307401
0.00448574
0.00254775
0.000198723
0.00947492
0.000772207
0.0109668
0.00246279
0.00121114
8.21538e-05
0.000141439
0.012115
0.000708693
0.012472
0.027072
0.0244635
0.000173812
0.023437
0.019507
0.0067905
0.021155
0.008177
0.005652
0.0210355
0.0005435
0.0146305
0.0148805
0.00418369
0.0070135
2.76769e-05
0.0167035
0.0202485
0.023466
0.0044205
0.0085285
0.0092435
0.0224105
0.0209055
0.0163105
0.0201455
0.0062235
0.0064735
0.0047805
0.017555
0.002217
0.00378022
0.01968
0.0146555
0.0026355
0.0099515
7.85e-05
0.0196755
0.00211966
0.005592
0.0223335
0.0126585
0.004567
0.008547
0.0153035
0.014517
0.0232735
0.0119185
0.004288
0.0213935
0.0059035
0.0096055
0.011695
0.022155
0.0235255
0.013275
0.000165327
0.0110405
0.0035705
0.021845
0.0145705
0.0019335
0.0110255
0.0111014
0.004992
0.0150255
0.011728
0.012477
0.0104005
0.0071155
0.012972
0.0159285
0.007892
0.0200035
0.002147
0.0107585
0.01462
0.002262
0.0006185
0.0117435
0.0058435
0.017167
0.0038955
0.018292
0.0165205
0.0012985
0.019745
0.0121135
0.0087855
0.0199085
0.0013435
0.00141024
0.0066185
0.0181605
0.0106426
0.0175785
0.0007685
0.0134305
0.012175
0.00698746
0.004317
0.0056485
0.01327
0.006517
0.012142
0.003887
0.0057585
0.006852
0.0162755
0.0147805
0.0138955
0.0131085
0.012567
0.006597
0.0177255
0.016567
0.011347
0.008207
0.0079535
0.002327
0.0028285
0.0156381
0.015132
0.025602
0.0072135
0.01378
0.013602
0.0028905
0.0081955
0.0104034
0.0004735
0.0213273
0.0022435
0.004275
0.0067235
0.019952
0.0072085
0.0182135
0.0135235
0.010117
0.0189305
0.0151555
0.009457
0.014562
0.017047
0.001877
0.000998766
0.00871814
0.0244069
0.00369271
0.00172847
0.00373371
0.00374923
0.00373423
0.00366717
0.0043865
0.010085
0.0099385
0.00957629
0.00292457
0.00588165
0.000987528
0.00365485
0.00353939
0.00292109
0.000576706
0.00348311
0.00355674
0.00833397
0.00342089
0.00828953
0.00334701
0.00778108
0.00493159
0.00326199
0.00944953
0.00702656
0.00329094
0.0123485
0.0275253
0.00322285
0.00346144
0.00504538
0.00317316
0.0121418
0.00170235
0.00322659
0.0254758
0.000764286
0.000193603
0.00300906
0.00302285
0.0260893
0.000145204
0.00283273
0.00290101
0.00289381
0.00275561
0.00280303
0.00268428
0.00583935
0.00264823
0.0174864
0.0027848
0.00270516
0.00264872
0.00295919
0.00521451
0.00270789
0.00258854
0.00262886
0.00407849
0.00264892
0.00341825
0.00258346
0.00249304
0.0165844
0.00266441
0.0024101
0.00292876
0.00237596
0.00227724
0.00641553
0.00633543
0.00220644
0.00219987
0.00570115
0.00217446
0.00313536
0.0329664
0.00722883
0.00207982
0.002116
0.00296819
0.000834327
0.0073326
0.000100174
0.002125
0.00786357
0.00172857
0.00188887
0.0126809
0.00193832
0.00170217
0.00677589
0.00183881
0.00202412
0.00304889
0.0018185
0.00201513
0.00256355
0.00381149
0.00501199
0.00296505
0.00157541
0.00166492
0.0033949
0.00168622
0.00374214
0.00195435
0.0015769
0.00154826
0.00157278
0.00150082
0.00273537
0.00287319
0.00142467
0.00128848
0.00391423
0.00100724
0.0134644
0.0016803
0.00137044
0.00126453
0.00131736
0.0012497
0.00129349
0.00119513
0.00145229
0.00103225
0.00228888
0.00101606
0.00392735
0.025518
0.00125726
0.00099403
0.00118693
0.000939024
0.000865172
0.000865893
0.000986766
0.000930639
0.00353928
0.002239
0.00124173
0.00950877
0.00308309
0.0114672
0.00312753
0.000785793
0.00284981
0.00082675
0.000757248
0.00879349
0.00216493
0.00152183
0.00801744
0.00999371
0.000599752
0.00911397
0.0339991
0.000680259
0.000624106
0.000598602
0.00250192
0.000503789
0.000577532
0.00409878
0.000537169
0.00300744
0.000925204
0.000447
0.000364398
0.000404028
0.000376502
0.000321092
0.000522203
0.000394835
0.000303611
0.0025732
0.000315617
0.000560919
0.00221871
0.000219858
0.000166522
0.000199565
0.00284969
0.000133687
0.00023396
0.000224412
0.00104715
0.015577
0.000193501
0.014232
0.0339205
0.02873
0.000902545
0.02699
0.00809219
0.0129505
0.0167585
0.0126005
0.0313735
0.0281434
0.0201085
0.0128355
0.0117105
0.0266435
0.0271635
0.026232
0.0247135
0.0246085
0.0051635
0.00128374
0.01411
0.020892
0.021837
0.00716438
2.60512e-05
0.028832
0.035527
0.0306905
0.0031155
1.611e-05
0.0200885
0.018177
0.000125908
0.0311405
0.0176185
0.0102185
0.0079235
0.0212485
0.034475
0.0270585
0.003782
0.026517
0.01053
0.0081285
0.028057
0.0027185
0.027867
0.0237635
0.013612
0.0070235
0.0191635
0.0053555
0.0074255
0.0129085
0.010887
0.011727
0.0232885
0.0025785
0.018502
0.0312885
0.005817
0.0250885
0.0226055
0.022397
0.009347
0.025167
0.0257705
0.0104584
0.020008
0.001407
0.0104935
0.014672
0.00125148
0.0152055
0.00723513
0.004602
0.0166155
0.0079085
0.015097
0.0042155
0.02421
0.0055535
0.0037785
0.029967
0.0069785
0.0125605
0.0018935
0.0052585
0.009867
0.0277585
0.0308929
0.0158728
0.02609
0.0166305
0.008477
0.0226605
0.0006385
0.0198235
0.001887
0.0063805
0.00131
0.0176055
0.0275105
0.0232855
0.0294755
0.027612
0.0112085
0.004672
0.011667
0.0173585
0.0308285
0.002347
0.0288035
0.000247
0.024257
0.005867
0.0056935
0.028325
0.024305
0.0016955
0.015017
0.0128755
0.0073855
0.01007
0.0067585
0.0154905
0.020495
0.014467
0.00925894
0.0062185
0.0073705
0.023522
0.0006655
0.000477
0.0166155
0.0044255
0.0187555
0.0161635
0.0187985
0.0220885
0.0156205
0.015407
0.0005785
0.0188635
0.027387
0.0190885
0.00326767
0.0128085
0.0122305
0.00285
0.005207
0.00350635
0.00348172
0.00429922
0.0121698
0.00356219
0.00356214
0.00351952
0.00344133
0.00192884
0.0297487
0.00350139
0.00333389
0.00328932
0.00337123
0.00329625
0.00321963
0.0182096
0.00339169
0.00321962
0.00303673
0.00311095
0.00582563
0.00310024
0.00298366
0.00920343
0.00329439
0.0241613
0.00337292
0.00290965
0.0028499
0.0036723
0.00162693
0.00826614
0.00463321
0.0201787
0.011098
0.00286569
0.00278397
0.0204995
0.0026663
0.00274022
0.0132076
0.0026631
0.00307234
0.00289413
0.00242363
0.00271167
0.00245775
0.00428227
0.00246542
8.87202e-05
0.00238032
0.00238474
0.00236183
0.0183503
0.0128688
0.00208401
0.0251605
0.0213235
0.00205673
0.00220701
0.00266025
0.00198011
0.00346908
0.0029445
0.0310783
0.00878346
0.00786313
0.00415954
0.00825363
0.00277902
0.00737396
0.0120438
0.00186084
0.00189005
0.00192812
0.00302003
0.0183121
0.00629826
0.00585998
0.00335279
0.00177467
0.00290808
0.00369246
0.00490941
0.00155813
0.00173467
0.00160677
0.00158212
0.00232617
0.00165253
0.00291485
0.00692592
0.0015924
0.00151444
0.00156839
0.00140244
0.00136569
0.00143167
0.00510473
0.00138338
0.00144558
0.00152554
0.00134821
0.00147811
0.0131308
0.0019583
0.0181354
0.0256434
0.0013149
0.00143024
0.00622915
0.00229441
0.0013747
0.0123219
0.0372178
0.00128508
0.00195304
0.0111418
0.00317697
0.00121782
0.00136551
0.0013402
0.0012909
0.00128485
0.0258803
0.00133615
0.035541
0.00117929
0.00365625
0.0217682
0.00142288
0.00104067
0.00118866
0.00106924
0.00102654
0.00100289
0.000913123
0.00111058
0.00100875
0.0150158
0.000846675
0.0010773
0.00103154
0.00777962
0.00102705
0.00206646
0.00101366
0.000758978
0.0311006
0.000581992
0.0102162
0.00290008
0.0294303
0.00385138
0.000632113
0.000631432
0.000655639
0.0109429
0.0278394
0.0048718
0.000573965
0.000527425
0.00247238
0.00311252
0.00974292
0.000689117
0.000468474
0.0445642
0.0227813
0.000539632
0.00316931
0.000559765
0.00285389
0.0031563
0.0012817
0.00056131
0.000466524
0.00395961
0.000446004
0.0356185
0.000377185
0.00453414
0.00318689
0.0048684
0.00515223
0.000250658
0.00168979
0.000295964
8.60335e-05
0.0326205
0.0071785
0.045947
0.0441755
0.0158055
0.015667
0.015767
0.000213054
0.0041035
0.0404184
0.029617
0.0081085
0.034147
0.0203634
0.021705
0.043907
0.036047
0.0443355
0.004917
0.0001285
0.024847
0.0228085
0.0423635
0.0408955
0.0257355
0.0300305
0.0251785
0.003777
0.040362
0.012157
0.0093755
0.051487
0.0111805
0.019585
0.024308
0.0305305
0.0440155
0.0492605
0.0017385
0.008045
0.028025
0.0030235
0.015422
0.008367
0.035422
0.0047985
0.006503
0.0016135
0.0409435
0.0047635
0.0104905
0.0105835
0.030077
0.0118085
0.002327
0.036755
0.0276273
0.0075635
0.0333
0.0487305
0.031597
0.0335985
0.022707
0.046482
0.04827
0.0206755
0.040515
0.023712
0.0137005
0.002465
0.0044885
0.0437685
0.0165905
0.0401585
0.0079135
0.0357955
0.0356385
0.047347
0.006797
0.0023855
0.004902
0.010327
0.0302535
0.032752
0.029692
0.006252
0.0283635
0.0153355
0.0326555
0.0177485
0.0044535
0.0041385
0.045502
0.041837
0.0451485
0.0091005
0.0107605
0.0271485
0.0471005
0.0245205
0.0435655
0.03221
0.0018185
0.0220655
0.0148385
0.0287335
0.003937
0.01579
0.040137
0.0104085
0.0313685
0.0243085
0.0303935
0.010065
0.0080505
0.025097
0.0314685
0.0191935
0.0110905
0.0356755
0.0088085
0.005032
0.0269685
0.011592
0.0118105
0.014472
0.0361335
0.0012735
0.0001605
0.0149055
0.01765
0.005015
0.0308701
0.016022
0.0430705
0.000107641
0.00231
0.011127
0.025102
0.0338655
0.0316285
0.036057
0.03647
0.0168635
0.01021
0.0260135
0.0080985
0.015097
0.040187
0.019277
1.29387e-05
0.0102435
0.0063535
0.0080485
0.0078705
0.026702
0.023477
0.011757
0.027292
0.015937
0.019202
0.0161135
0.0289805
0.026107
0.0312305
0.033702
0.0278985
0.0118855
0.0394585
0.0094605
0.005662
0.0236135
0.01292
0.0322535
0.0058505
0.010132
0.0164635
0.0247105
0.0013985
0.0355685
0.0266753
0.019245
0.0129585
0.0270485
0.0148685
0.037782
0.0183755
0.0074655
0.0271085
0.007322
0.011122
0.0182855
0.0387955
0.035648
0.0364805
0.0008135
0.016367
0.0159155
0.0202835
1.12354e-05
0.0149985
0.00259654
0.00527686
0.001683
0.03055
0.002722
2.5e-05
0.0363605
0.0024155
0.0251305
0.004677
0.0262685
0.0305855
0.0144874
0.00590266
0.00308388
0.00320844
0.0030129
0.00324615
0.0395698
0.00302447
0.0114098
0.0103675
0.00480917
0.00742729
0.00421635
0.00293439
0.00050903
0.00486682
0.00329153
0.00785524
0.00299514
0.0344553
0.00341861
0.00308456
0.0225233
0.00319025
0.00269821
0.0213605
0.00678294
0.0027002
0.0247731
0.00275111
0.0201186
0.0224046
0.0034957
0.00410217
0.00241208
0.00282209
0.00290128
0.0527502
0.00532401
0.0039679
0.00275049
0.00251497
0.0473161
0.057679
0.00138933
0.0026619
0.0164381
0.00309293
0.0511938
0.0141242
0.00258643
0.00327904
0.0113604
0.00256189
0.00876071
0.00391306
0.00246054
0.00446168
0.0149842
0.00246671
0.00254561
0.00240355
0.0333991
0.0369119
0.00305423
0.00316606
0.0159138
0.0298906
0.034148
0.00209779
0.00193038
0.00231626
0.00450555
0.00278782
0.00216333
0.00692285
0.00287937
0.0022576
0.00226981
0.00223908
0.00220899
0.00218762
0.01587
0.00222868
0.00191755
0.00191246
0.0027424
0.00222956
0.00221941
0.00354801
0.00188774
0.0165822
0.00205963
0.0230136
0.00195637
0.0158604
0.0132569
0.0399834
0.00710511
0.00771443
0.0047671
0.0205622
0.00199415
0.00094864
0.00200969
0.00184613
0.00179031
0.0272319
0.00173091
0.000490039
0.0233017
0.00184887
0.00449296
0.00184152
0.00254842
0.00150562
0.0133628
0.0015413
0.00159781
0.00164621
0.00177452
0.0016253
0.00154229
0.0129967
0.0664217
0.00824124
0.021283
0.0103855
0.00158524
0.0440656
0.00153645
0.00174154
0.001497
0.00181331
0.0256941
0.0136262
0.00128857
0.00211304
0.00440909
0.00193531
0.0015166
0.0481567
0.00126653
0.00590678
0.0284378
0.0059097
0.0291587
0.0119157
0.00763348
0.00140554
0.00157019
0.00124538
0.0017882
0.00112576
0.023076
0.00123662
0.00165575
0.00120125
0.00121725
0.0010793
0.0478286
0.00127294
0.00103373
0.00136041
0.00280295
0.00087469
0.00395089
0.00103685
0.00141514
0.00382802
0.0623831
0.0141174
0.00104788
0.000932224
0.00332689
0.00697882
0.000798543
0.00253688
0.000814812
0.0476879
0.000819811
0.00517098
0.000982666
0.00560918
0.00298195
0.0403574
0.00922909
0.00133
0.000632964
0.000863459
0.00631768
0.000533599
0.000499914
0.000460358
0.000642876
0.000882447
0.00342758
0.000505519
0.000394825
0.000507674
0.0143232
0.00911027
0.000536667
0.0121718
0.000654899
0.000412089
0.0133055
0.0364685
0.046065
0.03417
0.027417
0.0357759
0.002815
0.0669499
0.00649507
0.0611635
0.0717655
0.024115
0.0262433
0.0202955
0.0652335
0.035562
0.0287255
0.0048655
0.00565332
0.0354635
0.0866905
0.0281855
0.0864885
0.0482855
0.0241905
0.000596614
0.018917
0.003197
0.001932
0.0068455
0.000265791
0.0524685
0.015192
0.0250235
0.0759785
0.055492
0.073127
0.0359985
0.0718805
0.0041155
0.0556405
0.00918303
0.035487
0.0418285
0.0165663
0.047267
0.06055
0.0035385
0.0566835
0.007175
0.0267785
0.000793355
0.030142
0.0191055
0.070062
0.0567755
0.0248551
0.0227485
0.000355305
0.0487805
0.0017637
0.0057985
0.009167
0.05278
0.085247
0.0591485
0.00897
0.000289105
0.040627
0.0635885
0.0172635
0.028162
0.072677
0.0634135
0.0024535
0.0242505
0.0546955
0.001337
0.0499505
0.0576155
0.076107
0.0578685
0.0518535
0.0454255
0.062862
0.0416035
0.0758685
0.0070735
0.0097855
0.0047393
0.0105169
0.032482
0.0776985
0.0214957
0.0078035
0.000497006
0.0596835
0.0689855
0.0257955
0.049847
0.009917
0.009207
0.0023055
0.020992
0.01295
0.0567655
0.0528435
0.000145432
0.07675
0.000169751
0.042507
0.0300535
0.0780305
0.076072
0.071802
0.0768485
0.039862
0.062712
0.0321105
0.0365005
0.0085385
0.0385785
0.020782
0.0206385
0.034917
0.0509485
0.073117
0.0196635
0.027662
0.039367
0.0358935
0.0241455
0.073107
0.015182
0.0180185
0.05303
0.07114
0.0569335
0.042485
0.09517
0.025677
0.0728055
0.0574985
0.026562
0.042215
0.0400105
0.0385455
0.0630835
0.0657485
0.042705
0.0696105
0.0494785
0.0039262
0.068147
0.0732155
0.0430655
0.0604055
0.002022
0.03035
0.00669
0.021177
0.0757485
0.019997
0.0301905
0.030455
0.00171
0.0061735
0.0240455
0.010302
0.000269443
0.043272
0.025112
0.0398885
0.0461655
0.014675
0.0456255
0.014142
0.05573
0.0154885
0.0011955
0.0311685
0.00711389
0.0005605
0.0204085
0.00576651
0.0249955
0.004547
0.102057
0.058472
0.0134385
0.0045155
0.0558655
0.0342815
0.0306035
0.014857
0.0212855
0.029765
0.0415505
0.0293835
0.071742
0.0291055
0.0729855
0.000231621
0.0036785
0.000607286
0.065032
0.0223131
0.04948
0.021437
0.019112
0.013164
0.014402
0.0463235
0.029332
0.0103805
0.0525085
0.0717785
0.0658705
0.058482
0.0170935
0.027147
0.011553
0.0632335
0.041357
0.0282685
0.124648
0.0372205
0.009707
0.0451805
0.0357355
0.0668885
0.0085285
0.034607
0.005592
0.035702
0.00978831
0.0327855
0.0308485
0.0603355
0.045167
0.051502
0.0432985
0.0219085
3.91046e-05
0.0071985
0.0649685
0.058267
0.0138755
0.0130485
0.031758
0.010842
0.0588435
0.00882
0.00763
0.024267
0.051667
0.007912
0.0113185
0.0482735
0.0450735
0.024845
0.0254235
0.0619505
0.0406105
0.058282
0.0458855
0.0526405
0.018537
0.0037605
0.0221035
0.0038355
0.027467
0.026622
0.0092655
0.00017987
0.0145055
0.019657
0.034785
0.0435285
0.0206885
0.031522
0.0402905
0.0007105
0.0401455
0.0501655
0.0160305
0.0253185
0.0576105
0.0179885
0.00117
0.0524355
0.02646
0.041097
0.065625
0.0575885
0.017857
0.020302
0.00316224
0.00298528
0.024032
0.0405005
0.054442
0.0285685
0.0574555
0.057357
0.0054905
0.016982
0.04605
0.0507185
0.0083785
0.0053855
6e-05
0.0458835
0.0199486
0.018362
0.0285005
0.008095
0.0439385
0.010927
0.0195535
0.0139485
0.0060135
0.0148455
0.0533505
0.019902
0.0153055
0.02651
0.0464455
0.004625
0.000486092
0.0568185
0.046487
0.0032755
0.0415735
0.031502
0.047177
0.0173085
0.0471585
0.0558205
0.0384135
0.0517855
0.032607
0.083655
0.0414105
0.026612
0.039822
0.0015605
0.0262555
0.046652
0.0072155
0.0061335
0.016842
0.0129935
0.019167
0.043582
0.0264585
0.0056655
0.0576605
0.0296835
0.022515
0.0033235
0.0285555
0.0487935
0.0322605
0.015612
0.0326905
0.0076635
0.0236735
0.0106205
0.048007
0.0130255
0.0469605
0.0275755
0.0364925
0.018877
0.051935
0.0124185
0.01778
0.0484535
0.046427
0.0007055
0.024035
0.0327835
0.039412
0.017032
0.014832
0.0498885
0.0206505
0.051726
0.0324985
0.018922
0.009632
0.031672
0.0363385
0.032775
0.0480485
0.0308185
0.0185335
0.0034185
0.047252
0.0465903
0.039707
0.062102
0.0507585
)


// ************************************************************************* //
