/*--------------------------------*- C++ -*----------------------------------*\
  =========                 |
  \\      /  F ield         | OpenFOAM: The Open Source CFD Toolbox
   \\    /   O peration     | Website:  https://openfoam.org
    \\  /    A nd           | Version:  7
     \\/     M anipulation  |
\*---------------------------------------------------------------------------*/
FoamFile
{
    version     2.0;
    format      ascii;
    class       vectorField;
    location    "0.7/lagrangian/reactingCloud1";
    object      U;
}
// * * * * * * * * * * * * * * * * * * * * * * * * * * * * * * * * * * * * * //


2449
(
(115.92 15.2749 0)
(133.036 16.0125 0)
(135.703 14.9914 0)
(137.923 9.98631 0)
(138.653 22.1971 0)
(142.231 20.6285 0)
(142.006 7.69727 0)
(147.627 20.4561 0)
(150.036 17.3069 0)
(146.749 8.4292 0)
(145.363 3.81537 0)
(151.739 9.66641 0)
(157.403 12.4714 0)
(147.111 1.1397 0)
(153.179 6.09171 0)
(152.51 4.94003 0)
(150.583 3.14404 0)
(153.178 3.70958 0)
(156.169 2.68715 0)
(156.288 0.918185 0)
(155.417 1.67926 0)
(152.764 1.95062 0)
(151.885 1.24729 0)
(152.932 1.41422 0)
(153.573 1.17368 0)
(152.988 1.04697 0)
(154.018 0.457593 0)
(154.015 -0.190657 0)
(154.003 0.230364 0)
(153.541 0.507807 0)
(153.818 -0.146761 0)
(152.816 0.411836 0)
(153.315 0.315048 0)
(153.532 -0.127375 0)
(153.426 -0.0562046 0)
(153.282 0.128818 0)
(153.22 0.138677 0)
(153.27 -0.11548 0)
(153.045 0.127697 0)
(153.081 0.118133 0)
(153.152 -0.000456625 0)
(153.136 0.118335 0)
(-5.84234 -7.85199 0)
(89.2827 -21.7502 0)
(-5.30123 -1.54876 0)
(89.5279 -23.4037 0)
(94.862 -22.6636 0)
(39.6854 -3.10951 0)
(74.3759 -12.6022 0)
(133.984 -30.8992 0)
(135.25 -30.2936 0)
(141.324 -27.0887 0)
(127.558 -26.9106 0)
(129.681 -25.1159 0)
(140.979 -18.6685 0)
(113.412 -24.1358 0)
(98.3714 -18.1084 0)
(124.353 -20.3424 0)
(130.279 -16.7538 0)
(112.216 -19.1908 0)
(117.947 -17.8523 0)
(116.042 -16.8431 0)
(125.069 -12.9878 0)
(98.7546 -12.6585 0)
(131.229 -6.21328 0)
(124.774 -9.06478 0)
(122.874 -9.01188 0)
(106.783 -10.9894 0)
(115.589 -9.76712 0)
(117.128 -8.5156 0)
(98.056 -8.73087 0)
(102.484 -6.24129 0)
(123.208 -2.73902 0)
(81.3342 5.30928 0)
(100.632 -3.8966 0)
(109.508 -3.98131 0)
(120.086 -2.42583 0)
(115.596 -3.33043 0)
(107.312 -2.28257 0)
(106.887 3.9887 0)
(105.908 0.0502945 0)
(116.557 -1.53375 0)
(106.69 1.30283 0)
(108.843 0.969287 0)
(108.159 -3.7339 0)
(108.198 2.74636 0)
(113.519 0.818542 0)
(110.522 2.4869 0)
(111.276 2.72106 0)
(115.598 1.68251 0)
(109.909 4.48815 0)
(98.2194 7.43919 0)
(113.606 3.91805 0)
(114.786 4.65723 0)
(120.82 0.470863 0)
(117.828 3.91246 0)
(118.16 4.39512 0)
(118.791 4.73844 0)
(121.898 4.00924 0)
(122.169 2.84216 0)
(120.125 6.54176 0)
(115.279 10.176 0)
(97.583 9.08488 0)
(124.34 7.64197 0)
(125.742 4.31718 0)
(120.902 13.1941 0)
(122.392 14.1647 0)
(128.591 9.93426 0)
(86.1541 21.0973 0)
(129.939 10.5999 0)
(138.207 11.7984 0)
(304.157 -25.8 0)
(262.496 -26.3996 0)
(278.226 -22.5482 0)
(268.586 -30.2711 0)
(269.284 -36.5777 0)
(273.077 -41.6955 0)
(245.12 -45.511 0)
(247.434 -25.2749 0)
(210.212 -52.7609 0)
(205.929 -48.5054 0)
(202.34 -23.2875 0)
(198.272 -25.7254 0)
(185.349 -36.1994 0)
(177.726 -40.6581 0)
(185.439 -24.2213 0)
(174.854 -33.0084 0)
(174.969 -26.7514 0)
(181.464 -7.85425 0)
(144.064 -37.0179 0)
(156.228 -37.929 0)
(162.563 -29.1683 0)
(160 -12.9746 0)
(129.038 -35.967 0)
(399.55 -6.19994 0)
(390.202 -7.08666 0)
(370.333 -4.89417 0)
(358.381 -7.05586 0)
(356.042 -13.0899 0)
(341.633 -8.86259 0)
(339.41 -2.62792 0)
(325.883 -14.4019 0)
(329.149 -21.0611 0)
(235.78 -17.1848 0)
(326.186 -16.1486 0)
(438.688 0.680462 0)
(437.874 1.60835 0)
(390.241 1.08603 0)
(435.896 1.9384 0)
(438.487 1.25531 0)
(436.419 0.99607 0)
(433.803 2.45625 0)
(434.974 1.16849 0)
(433.625 3.88544 0)
(392.108 9.24073 0)
(412.944 1.38221 0)
(412.29 -4.96543 0)
(414.161 1.36373 0)
(407.863 -0.302907 0)
(399.038 2.41305 0)
(409.562 -0.14588 0)
(412.781 -0.540244 0)
(385.6 27.3075 0)
(442.582 -0.054223 0)
(442.048 -0.0658579 0)
(442.484 1.75453 0)
(398.924 -5.19876 0)
(442.698 -0.0100892 0)
(442.192 -0.536955 0)
(431.073 -6.70327 0)
(440.514 -4.25292 0)
(442.074 -0.0156833 0)
(438.855 -1.65555 0)
(441.12 0.0729503 0)
(429.265 3.92995 0)
(441.362 -0.311785 0)
(440.658 0.167276 0)
(437.463 1.98868 0)
(439.929 0.356999 0)
(438.155 1.6492 0)
(361.058 8.82859 0)
(445.458 0.115162 0)
(446.073 0.0338059 0)
(445.425 0.216952 0)
(419.934 4.22811 0)
(440.383 1.01648 0)
(445.429 0.048912 0)
(414.428 -0.922259 0)
(445.038 0.0463224 0)
(401.856 -0.721141 0)
(408.032 7.61167 0)
(429.377 0.0102778 0)
(444.753 -0.343284 0)
(437.884 -3.18177 0)
(444.458 0.0220123 0)
(441.793 2.08943 0)
(444.487 0.0180766 0)
(436.178 -0.412012 0)
(443.654 -0.0002853 0)
(435.588 -0.662563 0)
(443.202 -0.034509 0)
(442.565 -0.0587335 0)
(432.374 0.0301494 0)
(442.946 -0.0433045 0)
(437.252 -9.88049 0)
(441.693 -1.37154 0)
(441.253 1.16297 0)
(444.488 -7.85287 -0.274228)
(447.341 0.00807748 0)
(442.032 -2.62984 0)
(433.296 9.05443 0)
(448.484 -9.31735 0)
(425.417 -0.328297 0)
(443.414 -4.47168 0)
(442.427 -4.10237 0)
(447.462 0.00641442 0)
(442.211 0.504768 0)
(444.985 3.68715 0)
(447.787 -1.33946 0)
(437.105 0.38569 0)
(445.233 -1.59704 0)
(428.984 -0.83025 0)
(447.245 0.0104218 0)
(447.006 0.0152052 0)
(375.335 6.61518 0)
(433.821 -1.72161 0)
(445.863 0.180456 0)
(406.113 -1.66622 0)
(439.969 -1.603 0)
(393.152 -1.01903 0)
(447.145 0.0101402 0)
(418.827 -18.3507 0)
(440.211 -2.02636 0)
(352.718 7.00892 0)
(404.253 4.32049 0)
(428.143 -0.504798 0)
(439.428 -11.8502 0)
(446.054 0.149376 0)
(446.104 -1.67888 0)
(446.307 0.0406926 0)
(369.255 36.1275 0)
(414.647 6.23043 0)
(446.382 0.0341202 0)
(433.555 -12.6303 0)
(446.442 0.0296691 0)
(369.276 8.1061 0)
(441.044 -0.0760504 0)
(439.791 -10.9888 0)
(445.91 -0.367782 0)
(445.893 0.0493429 0)
(450.133 -2.20049 0.0384097)
(444.713 -3.42056 0.0597061)
(447.72 -0.351328 0.00613245)
(446.15 0.0987871 -0.257349)
(448.065 -0.347177 -0.00605999)
(445.466 0.497366 0.552381)
(369.133 0.967209 0)
(391.326 6.88908 0)
(380.823 -4.00118 0)
(387.7 -1.91326 0)
(435.213 -1.50029 0)
(413.435 0.317283 0)
(449.835 -3.11556 0)
(448.012 0.00211477 0)
(396.049 -7.60246 0)
(418.056 -3.72652 0)
(447.35 -0.651418 0)
(414.835 0.297111 0)
(448.641 -0.825849 0)
(447.824 0.0040017 0)
(428.91 -5.4136 0)
(420.173 -4.60708 0)
(452.743 -15.4192 0)
(440.977 -3.65542 0)
(451.623 -7.77472 0)
(445.505 0.971526 0)
(364.632 3.07555 0)
(445.391 1.84922 0)
(448.599 0.811271 0)
(438.154 -0.778606 0)
(447.99 0.00217296 0)
(447.833 0.0041332 0)
(411.032 -0.00711071 0)
(452.623 -8.40811 0)
(416.962 1.14523 0)
(393.375 0.477624 0)
(428.808 5.91491 0)
(445.14 -2.22104 0)
(346.132 -15.3431 0)
(446.344 2.20316 0)
(377.345 1.57867 0)
(449.274 -0.915984 0)
(447.03 -0.0374432 0)
(442.213 -6.36615 0)
(412.368 -0.62914 0)
(453.276 1.03944 0)
(446.559 -2.93648 0)
(447.462 0.0156638 0)
(449.364 -4.77737 0)
(447.617 0.00601231 0)
(441.209 1.61757 0)
(405.717 10.7788 0)
(447.661 0.0057703 0)
(447.716 0.00496024 0)
(449.603 -2.33724 0)
(402.736 5.36116 0)
(448.085 -1.89805 0)
(424.76 0.18908 0)
(377.997 13.8066 0)
(447.724 0.00446732 0)
(446.509 -0.830062 0)
(402.995 0.53741 0)
(439.524 -1.08141 0)
(362.734 12.9981 0)
(427.94 -1.12745 0)
(447.282 -2.44131 0)
(447.335 0.00835669 0)
(447.389 -0.194457 0)
(439.45 -1.186 0)
(402.138 0.250078 0)
(447.338 0.00886929 0)
(409.068 -2.69278 0)
(434.377 -0.206542 0)
(447.331 0.00918259 0)
(448.966 -0.59943 -0.0104631)
(448.307 -0.0179869 0.000313962)
(445.724 0.901555 0.382687)
(451.938 -0.66272 -0.0115678)
(450.675 -1.90783 -0.336402)
(449.23 1.60584 2.13102)
(448.035 0.201091 4.48981e-11)
(448.28 -0.280312 0.00489286)
(441.212 -0.0622733 0.443098)
(448.92 0.141615 0.194916)
(449.007 -3.16539 0.0552521)
(447.395 -3.23554 0.0564765)
(448.494 -0.0922101 -0.00160953)
(447.646 -0.842214 -0.65801)
(450.539 -4.17343 0.145739)
(315.443 0.454516 0)
(414.525 -2.18632 0)
(412.899 -2.20287 0)
(415.034 0.327804 0)
(425.774 0.846814 0)
(371.443 -1.29016 0)
(378.026 6.89736 0)
(415.886 -2.23748 0)
(411.807 0.608528 0)
(443.402 0.798274 0)
(437.279 -0.00262024 0)
(447.656 -10.6972 0)
(449.215 -2.99959 0)
(448.206 -5.70901 0)
(434.326 -0.774344 0)
(446.026 -2.34679 0)
(431.703 -1.15096 0)
(432.838 -1.53661 0)
(444.792 1.05783 0)
(338.311 21.3641 0)
(402.563 -0.487052 0)
(412.591 17.7404 0)
(451.277 -4.40569 0)
(449.481 -2.77786 0)
(412.28 2.44712 0)
(442.589 2.34551 0)
(447.764 -0.448844 0)
(439.148 4.8058 0)
(447.564 -0.503956 0)
(446.953 1.16423 0)
(372.569 8.69519 0)
(406.119 -0.780417 0)
(446.203 0.511556 0)
(388.966 7.26133 0)
(450.057 -7.75836 0)
(375.653 2.29669 0)
(446.812 -1.0452 0)
(400.819 -1.02104 0)
(450.398 -1.32149 0)
(444.153 1.69228 0)
(445.747 -4.7354 0)
(416.395 -2.12865 0)
(424.371 11.7836 0)
(450.963 -0.447537 0)
(357.986 7.92328 0)
(383.203 0.405957 0)
(396.87 -0.848949 0)
(448.066 0.842432 0)
(435.711 -8.00946 0)
(445.693 -6.11543 0)
(448.1 0.000773311 0)
(436.421 -0.412665 0)
(447.554 -0.135262 0)
(384.1 -0.931526 0)
(381.269 8.54019 0)
(421.153 1.49055 0)
(445.173 0.258603 0)
(400.17 5.07187 0)
(405.764 3.70106 0)
(447.766 -1.64647 0)
(419.212 0.708009 0)
(437.7 0.287836 0)
(446.431 -0.870945 0)
(448.372 -3.20934 0)
(397.622 -0.649654 0)
(355.149 3.39583 0)
(411.268 6.35688 0)
(445.612 -4.44046 0)
(432.32 -5.66689 0)
(419.67 0.460207 0)
(448.17 -0.600504 0.0104818)
(447.731 -0.325108 -0.464303)
(448.013 -0.387357 0.387357)
(446.414 0.236388 0.313697)
(447.598 -2.17431 -0.0379526)
(447.735 -0.140594 -0.00245407)
(447.903 -1.0246 0.0178845)
(445.873 1.11577 -1.48068)
(447.122 0.186237 0.54087)
(444.604 -2.18174 -0.0380823)
(446.963 -0.140099 0.330054)
(445.503 -0.959897 -0.0167551)
(447.67 -0.793412 -1.49219)
(447.943 -0.55439 0.00967691)
(449.039 -1.37544 -0.0240084)
(446.051 -0.762774 1.79698)
(447.566 -0.0696227 -0.00121527)
(450.456 0.575963 1.23516)
(447.903 -0.183126 -0.00319647)
(444.317 -1.87038 -0.0326477)
(448.534 -0.581199 0.0101449)
(447.372 -1.29225 0.0225564)
(446.207 -2.53753 -0.0442928)
(444.723 0.938178 -1.39091)
(449.259 -0.604356 -0.0105491)
(449.953 -1.6274 0.0284064)
(451.021 -1.57103 0.220794)
(447.468 -0.230986 0.00403187)
(446.995 -1.81076 0.0316069)
(448.784 -1.97241 -1.8393)
(447.634 -0.264555 -1.50037)
(446.925 0.384792 -1.27366e-10)
(447.628 -0.434014 0.339089)
(446.582 -0.533088 0.00930509)
(448.351 0.153713 -0.400435)
(447.746 -0.515907 0.0090052)
(446.935 -1.27077 -0.0221813)
(439.383 -1.40822 0.0245806)
(445.179 -1.6294 0.0284413)
(445.98 0.50429 0.694096)
(443.322 2.53304 3.48643)
(319.542 1.40871 0)
(310.248 15.7728 0)
(448.653 0.00408774 0.234187)
(381.794 -7.15014 0)
(406.879 -0.739575 0)
(418.957 0.153212 0)
(418.935 0.969392 0)
(399.531 -0.424762 0)
(428.442 -19.5492 0)
(397.904 8.33015 0)
(432.903 -4.94083 0)
(414.597 -5.13573 0)
(422.47 0.117295 0)
(436.619 1.26084 0)
(363.249 9.31156 0)
(401.43 -2.56341 0)
(377.624 -1.15588 0)
(431.282 6.98965 0)
(391.863 -3.95798 0)
(417.589 -1.87387 0)
(419.467 5.05097 0)
(405.268 -18.5818 0)
(447.958 0.576924 0)
(448.533 6.21332 0)
(412.946 -6.41537 0)
(429.217 -7.40253 0)
(431.02 -13.8132 0)
(406.698 -1.89163 0)
(448.211 -2.72285 0.0475275)
(439.746 0.0239276 0)
(389.364 -4.57699 0)
(369.351 8.26709 0)
(432.979 0.605701 0)
(414.972 0.667205 0)
(447.475 1.66386 -0.605596)
(362.487 -3.36286 0)
(401.54 3.22987 0)
(397.341 -0.762461 0)
(422.532 0.0317534 0)
(448.238 -1.49724 0.0261345)
(409.452 -2.41268 0)
(422.124 0.167929 0)
(374.096 10.0621 0)
(426.812 0.158937 0)
(372.98 -2.06641 0)
(356.424 0.661727 0)
(424.994 2.72508 0)
(367.796 0.39436 0)
(429.305 -0.48466 0)
(425.966 0.128073 0)
(403.824 12.7374 0)
(359.28 3.783 0)
(416.565 -0.478613 0)
(380.995 5.15413 0)
(442.276 -1.34606 0)
(391.37 9.93754 0)
(421.177 6.18837 0)
(439.469 0.808972 0)
(414.999 5.37196 0)
(385.164 8.43583 0)
(356.284 12.9407 0)
(436.7 -0.186459 0)
(427.406 -2.15148 0)
(410.677 1.50149 0)
(434.811 -0.276015 0)
(446.67 -32.1765 0)
(418.947 3.39151 0)
(434.579 -0.220263 0)
(444.203 2.84064 0)
(416.613 5.99706 0)
(418.147 8.58551 0)
(434.138 -3.08071 0)
(424.578 -3.93393 0)
(399.432 1.46989 0)
(429.235 2.98737 0)
(405.795 2.31613 0)
(448.25 0.263831 0)
(429.525 0.165864 0)
(420.661 1.89975 0)
(407.012 -2.77495 0)
(433.55 -0.798118 -0.579867)
(445.671 -0.00665724 0.000116203)
(421.999 2.72692 -0.0952261)
(424.126 0.520244 0.0181673)
(428.368 -0.769383 3.61966)
(429.667 -3.48893 0.0608995)
(435.205 1.61084 0.523393)
(425.369 -5.53358 0.0965891)
(433.298 -1.13892 -0.01988)
(418.07 -1.26986 0.15592)
(443.646 -2.26665 0.0395645)
(421.969 2.01484 -2.94266e-10)
(426.673 -2.58791 -0.0451722)
(444.097 -0.437109 0.00762976)
(412.94 -0.00401601 7.00997e-05)
(400.161 -8.36061 0.145935)
(438.965 0.606127 1.04984)
(446.156 -1.73502 -0.0302849)
(447.568 -0.577446 -0.0100794)
(409.276 -1.14947 0.0200641)
(417.394 -4.79388 0.0836775)
(415.699 -2.81873 -0.049201)
(446.96 -0.122337 0.0150211)
(427.248 2.33838 0.0408166)
(418.647 -7.85357 -0.137085)
(442.535 2.27451 -0.739033)
(444.413 -0.349217 -0.446977)
(403.123 -8.13014 -0.141912)
(443.284 -2.04485 0.0356931)
(420.694 -0.0629126 -0.00109814)
(438.323 -4.26363 -0.0744219)
(426.751 -8.80436 0.153681)
(416.405 -0.578543 -2.15915)
(439.637 -4.14324 0.0723206)
(417.172 0.303172 -1.91415)
(447.896 -5.97588 0.104309)
(445.978 -0.0853621 0.401597)
(431.663 4.89867 0)
(448.346 -3.83861 -0.0670032)
(436.845 -1.67871 -0.0293019)
(447.585 0.715073 1.14436)
(448.877 -2.18501 -0.0381394)
(423.355 -1.58181 0.0276107)
(443.513 -1.11144 0.0194002)
(429.861 -0.0983987 -1.87756)
(418.036 1.67422 5.47613)
(436.819 -11.5232 -0.201138)
(446.414 -0.589896 0.0102967)
(407.953 -1.71002 -8.04499)
(447.453 -0.666442 -1.6495)
(433.602 -1.78561 -1.29732)
(409.923 -4.98864 0.087077)
(407.045 -1.57264 1.41601)
(406.101 -0.427556 -0.00746301)
(447.278 -2.21109 -0.0385947)
(406.412 -6.56826 0.114649)
(438.895 -3.18641 -0.677292)
(426.998 -1.19856 -6.16604)
(397.164 0.175702 -0.574695)
(447.113 1.08924 -1.81281)
(434.446 -0.36514 0.00637354)
(420.725 1.14187 5.37206)
(447.561 -0.200204 0.00349457)
(417.413 0.211751 0.0335381)
(416.878 1.56131 2.40421)
(413.351 -5.37473 0.0938162)
(445.345 -1.8917 4.45657)
(408.759 -19.2566 0.336125)
(434.349 -0.107987 -0.00188491)
(447.994 -0.142138 0.00248102)
(440.806 -1.49587 -0.0261105)
(401.387 -6.56027 0.11451)
(414.998 -0.756293 0.0132011)
(444.933 -0.471183 0.00822453)
(293.529 8.53502 0)
(299.251 33.8716 0)
(447.075 -1.3435 -0.0234508)
(360.013 -0.709449 0)
(370.975 0.331143 0)
(361.085 1.59008 0)
(419.02 -0.00157707 -0.0300922)
(348.589 -5.2151 0)
(386.069 0.369997 0)
(360.537 10.8651 0)
(301.464 -23.6878 0)
(379.802 3.13103 0)
(372.971 1.09686 0)
(390.993 1.91216 0)
(323.588 7.52098 0)
(382.556 3.41769 0)
(358.191 12.1411 0)
(360.706 18.6154 0)
(409.7 -0.3059 0)
(407.979 -0.186368 0)
(366.134 -1.39683 0)
(397.588 -1.6387 0)
(349.466 0.232712 0)
(341.301 2.01304 0)
(397.982 -0.835841 0)
(360.419 -1.17088 0)
(292.77 21.1575 0)
(409.325 -19.2871 0)
(385.546 5.4689 0)
(293.671 5.83186 0)
(357.128 14.5285 0)
(392.813 15.0472 0)
(396.149 4.5127 0)
(368.756 -0.154562 0)
(396.268 1.77211 0)
(321.042 3.091 0)
(385.304 0.205282 0)
(408.818 0.662757 0)
(400.617 13.7045 0)
(406.988 -0.0418463 0)
(419.576 -5.66633 0)
(370.988 -5.45563 0)
(415.113 1.00838 0)
(406.819 0.509855 0)
(423.394 -0.753689 0)
(400.143 -0.111166 0)
(368.037 1.65518 0)
(381.674 -0.711956 0)
(430.066 -9.78615 0)
(396.321 -4.89419 0)
(370.631 -3.16862 0)
(416.135 3.18725 0)
(424.027 0.532425 0)
(381.843 -5.29787 0)
(402.159 -7.84223 0)
(361.61 -3.36336 0)
(375.527 -0.197282 0)
(437.935 -4.07087 0)
(381.448 5.04774 0)
(403.472 2.76963 0)
(354.414 -15.757 0)
(413.518 3.13286 0)
(409.759 8.25891 0)
(409.428 -19.7063 0)
(388.946 2.18159 0)
(439.756 -5.76065 0)
(323.974 8.54681 0)
(311.095 23.3913 0)
(420.712 0.325234 0)
(419 -2.09744 0)
(376.166 4.40684 0)
(336.248 0.853232 0)
(383.633 -0.745318 0)
(391.515 -2.22251 0)
(315.399 6.58268 0)
(383.335 7.92102 0)
(359.754 3.17072 0)
(430.766 -10.9516 0)
(402.517 -6.73628 0)
(409.543 -6.35472 0)
(378.908 17.519 0)
(438.363 -11.0175 0)
(383.633 12.7045 0)
(379.127 -1.78231 0)
(420.296 -3.45811 0)
(432.948 6.0117 0)
(385.073 12.5229 0)
(398.145 -1.54925 0)
(446.594 -4.93708 0)
(395.914 7.76488 0)
(404.127 1.3033 0)
(415.807 -2.84407 0)
(298.209 0.199121 0)
(376.949 3.59714 0)
(410.999 -1.19378 0)
(319.383 -2.2715 0)
(436.19 -7.59204 0)
(402.847 -4.84783 0)
(388.192 -6.97395 0)
(430.461 -2.19952 0)
(362.611 -2.75979 0)
(425.995 1.27281 0)
(414.514 -1.08301 0)
(447.002 -0.162234 0)
(355.598 3.76399 0)
(393.313 0.948683 0)
(416.383 -0.404635 0)
(426.46 -0.910547 0)
(415.485 3.70422 0)
(373.554 11.8886 0)
(373.569 0.250678 0)
(424.366 -7.37723 0)
(401.944 1.58958 0)
(375.061 -1.04237 0)
(290.868 6.53657 0)
(446.918 0.73274 0)
(393.823 5.89502 0)
(403.916 -1.69638 0)
(341.353 12.941 0)
(365.571 24.4014 0)
(430.982 0.260874 0)
(394.029 4.17591 0)
(444.017 0.779493 0)
(446.898 0.294106 0)
(393.78 9.24949 0)
(441.579 0.379001 0)
(402.727 -1.55221 0)
(399.055 2.86938 0)
(445.486 2.48974 0)
(435.583 -2.10148 0)
(344.466 1.69318 0)
(362.893 -4.84161 0.0845106)
(386.113 -8.35071 -0.145762)
(356.367 -0.903619 0.0157727)
(348.007 -10.9942 1.34992)
(360.555 -1.05359 0.0183905)
(367.121 -3.01914 0.0526993)
(367.984 -0.227223 0.204593)
(376.102 -3.25087 0.0567441)
(363.268 -0.632027 0.0110321)
(366.298 6.8728 -0.240004)
(367.529 1.78855 -2.46173)
(381.263 -1.82788 0.0319057)
(355.396 -6.31186 0.110174)
(361.128 9.04023 0.157798)
(374.719 -10.1451 0.177083)
(362.083 -0.180934 -0.85123)
(368.184 -0.427425 -0.00746073)
(364.824 -4.74699 -0.0828591)
(377.272 -8.73715 -0.152507)
(377.515 -0.010682 0.000186455)
(368.686 -11.7593 0.20526)
(389.374 -1.03357 -0.0180409)
(353.298 -4.22726 0.073787)
(368.893 -0.274594 0.00479306)
(365.342 -13.1587 0.229685)
(389.642 -1.2328 -0.0215185)
(368.985 -12.597 -0.219882)
(361.356 -10.8783 0.189882)
(389.331 -0.626063 0.010928)
(374.792 -8.60061 0.150124)
(392.531 -2.41033 0)
(368.172 -11.8871 0.207491)
(360.915 -0.85022 0.0148406)
(376.278 -1.98487 0.0346461)
(371.724 -3.10642 -0.0542228)
(392.483 17.9876 5.14604e-09)
(380.243 -0.585523 2.75467)
(364.886 -3.83694 -0.0669741)
(374.877 -10.6366 0.185663)
(377.607 -0.743477 -0.0129774)
(364.259 -0.624569 -1.4028)
(378.021 -14.1077 -0.246251)
(357.8 -3.46186 -0.060427)
(373.683 -8.80018 -0.153608)
(358.058 1.04379 -1.00797)
(374.238 -12.1475 0.212036)
(349.485 -1.27631 0.0222781)
(359.892 -6.55323 -0.114387)
(366.628 -15.8016 -0.275818)
(377.534 -9.00019 0.157099)
(358.953 -7.31071 0.127609)
(404.079 -7.39373 -0.129058)
(345.071 -1.26746 0.0221235)
(377.049 -5.60589 0.0978511)
(370.399 -0.0682377 0.0514208)
(358.984 2.22956 6.86188)
(360.144 -10.5027 0.183325)
(361.969 -2.11488 0.0369154)
(370.308 -0.117153 -0.00204491)
(367.345 -3.67951 0.064226)
(374.912 -1.34042 0.0233971)
(389.691 21.3661 12.3357)
(356.778 -9.05083 0.157983)
(378.354 -1.47821 -0.0258023)
(373.237 35.1383 -0.613341)
(371.083 -6.0484 -0.105575)
(391.818 0.331864 -0.781822)
(360.449 -1.90601 0.0332695)
(408.626 -9.8633 0.172165)
(358.875 -2.58305 0.0450873)
(361.092 -12.8938 0.225062)
(395.368 -6.57753 -0.114811)
(377.516 -9.25727 4.31674)
(375.014 -7.15928 6.44625)
(383.444 -0.974435 -0.0170088)
(360.214 2.26716 9.82017)
(373.948 -5.20094 2.42524)
(351.066 9.61285 0)
(357.606 17.3433 4.96168e-09)
(376.028 8.12628 -0.141845)
(378.974 -1.04827 -2.46957)
(373.136 1.63039 -0.941305)
(374.352 -4.84691 -0.0846032)
(400.33 -1.16455 -0.0203273)
(369.451 -9.24057 0.161295)
(362.879 -2.5403 -11.9512)
(354.347 -11.2831 -10.1593)
(385.675 -1.91506 0)
(378.192 0.0836353 0.115114)
(377.366 -4.08112 0.0712363)
(364.035 -10.1531 2.53146)
(377.328 3.36072 0.0586615)
(377.622 -4.63349 0.0808779)
(373.368 -11.7389 -0.204904)
(332.588 8.9068 0.311032)
(369.618 9.48993 0.165647)
(366.869 -7.48184 0.130596)
(363.083 -1.04283 0.0182027)
(395.918 -1.15506 1.5898)
(382.34 -0.566631 -2.66579)
(372.582 1.5816 7.44083)
(366.917 16.7137 10.4438)
(371.291 7.85687 -4.90952)
(351.183 -9.42392 -0.164495)
(343.982 -12.4853 -0.217932)
(371.072 -0.968915 0.0169125)
(347.594 -2.26583 0.0395503)
(360.531 -0.319569 -0.0055781)
(413.255 0.929245 2.85992)
(371.008 -8.90952 -0.155516)
(388.227 1.99145 1.92313)
(388.349 -4.2246 0.0737407)
(387.567 3.79896 -0.132663)
(401.87 -2.98975 0.0521863)
(367.375 -2.87134 0.0501195)
(393.802 -0.318372 -0.0055572)
(368.613 -0.827127 -0.0144376)
(359.069 -4.38206 -0.0764891)
(364.355 -4.22167 -0.0736895)
(351.129 4.2806 -20.1386)
(369.452 -2.93237 0.0511846)
(395.652 -0.200045 0.247035)
(355.468 6.75428 9.29647)
(371.215 21.9242 -20.4447)
(388.449 -12.4731 -0.217718)
(359.46 -25.4268 -0.443826)
(359.599 -0.45073 2.12052)
(369.893 -9.30636 -0.162443)
(396.622 -8.77115 -11.2266)
(349.616 -14.0842 -0.245841)
(393.231 -10.7281 -0.187259)
(388.364 4.00285 4.00285)
(374.817 -2.23719 -0.0390502)
(361.832 -0.175984 0)
(370.673 -0.228837 1.17727)
(393.856 -2.09854 -0.0366301)
(370.753 -4.69384 0.0819312)
(362.067 -4.35323 -0.0759859)
(401.224 -6.83032 -0.119224)
(361.615 -3.18666 -0.391272)
(383.113 5.0177 0.175222)
(363.915 -4.56637 -0.0797063)
(367.379 -1.73121 0.0302184)
(390.823 -3.9385 -0.0687468)
(404.009 8.44162 -0.294788)
(386.927 2.17237 -3.76265)
(376.782 -10.1568 -0.177287)
(360.095 -0.468166 0.00817187)
(370.704 2.33029 3.20737)
(379.595 -0.671201 0.0117159)
(378.401 -3.47677 -0.0606872)
(367.356 -2.25896 0.0394303)
(375.523 5.36499 7.38428)
(368.697 -7.14241 0.124671)
(370.271 -0.809056 3.01944)
(397.838 -1.36373 0.0238041)
(373.021 -27.1392 -0.473717)
(374.247 -1.53197 0.0267406)
(403.102 -17.591 2.1599)
(373.595 2.8689 -10.7069)
(378.016 -11.584 2.67437)
(373.86 -1.4776 0.0257915)
(376.688 2.37353 0.0414301)
(391.826 0.29206 -0.130033)
(383.165 -0.975253 1.68919)
(391.963 -4.30513 0.0751463)
(377.171 -8.69008 0.151686)
(402.281 5.39055 -0.0940924)
(404.629 -0.308123 0.0053783)
(363.984 1.525 0.187246)
(363.552 -14.6578 0.255852)
(376.003 -10.9394 -0.190949)
(361.459 -0.113824 -0.0857729)
(358.67 1.83313 1.14546)
(386.39 -3.78415 -0.0660526)
(378.962 -8.71848 0.152182)
(416.078 -4.99746 0.0872309)
(399.252 -33.6822 0)
(380.447 -2.14804 -0.0374942)
(352.389 -11.2448 0.196278)
(373.369 22.9647 -16.6848)
(393.249 0.949326 -2.23647)
(404.759 -15.4868 -0.270323)
(413.179 -10.7233 0)
(366.591 -25.8868 0.451856)
(359.199 4.52142 2.71674)
(364.505 -1.13657 -2.8131)
(387.613 -1.6492 0.0287869)
(400.093 -2.4134 -0.042126)
(381.994 -1.9484 0.0340094)
(386.993 -2.01515 0.0351745)
(367.725 -36.4642 -0.636485)
(419.696 -5.44302 9.81947)
(360.714 -9.07721 -0.158443)
(404.328 -7.71963 0.134747)
(367.317 -0.201938 -0.00352484)
(406.041 -0.588218 -0.0102674)
(423.127 -0.3472 1.63345)
(386.652 -1.27685 0.0222876)
(402.434 -0.59742 -2.81064)
(406.083 -7.1076 0.124064)
(365.631 2.58427 -9.0124)
(368.453 -3.02355 -0.0527762)
(316.16 -0.0511249 0)
(386.333 -8.89681 4.14865)
(318.853 -3.80708 0)
(311.208 8.82441 0)
(340.074 1.09444 0)
(391.05 -1.8046 0.0314994)
(339.872 2.93275 0)
(347.85 -0.253463 0)
(342.424 3.12849 0)
(338.548 4.74875 0)
(345.241 -1.00251 0)
(338.847 -1.13721 0)
(348.592 -0.010801 0)
(362.913 15.8853 0)
(354.223 -0.423572 0)
(349.475 4.60661 0)
(369.293 12.2291 0)
(342.488 -5.40768 0)
(344.472 5.7354 -3.44618)
(360.913 -4.22443 0)
(356.964 -2.50709 0)
(341.539 9.02834 0)
(290.683 -9.8364 0)
(342.674 -0.0118914 0)
(382.544 -17.0958 0)
(314.795 2.79628 0)
(359.09 2.26013 0)
(286.134 21.8612 0)
(356.143 0.986966 0)
(343.074 11.2503 0)
(350.123 8.84602 0)
(378.448 23.83 0)
(353.014 0.152769 0)
(338.653 -14.3818 0)
(368.82 -1.14169 0.0199282)
(361.238 2.83391 0)
(320.551 6.11232 0)
(347.138 -0.76954 0)
(366.264 0.0918633 0)
(372.8 0.103958 0)
(363.857 1.54856 0)
(405.199 -8.13629 -0.14202)
(343.617 11.5776 0)
(352.141 -0.419905 0)
(368.508 -1.71392 0)
(368.547 -7.01371 0)
(366.496 1.13032 0)
(351.348 -0.0656473 0)
(366.332 -7.03386 0)
(284.453 16.9344 0)
(347.414 4.51441 0)
(360.096 6.19666 0)
(375.491 -2.28364 0)
(356.41 -0.71508 0)
(352.201 -17.8973 0)
(340.918 -5.0759 0)
(343.977 2.90162 0)
(306.486 6.1823 0)
(352.245 5.48763 0)
(387.381 -0.0481981 -0.0008413)
(347.531 6.65776 0)
(364.178 -1.88056 0)
(360.269 3.92117 0)
(361.952 6.23513 0)
(340.759 11.4635 0)
(297.592 7.44655 0)
(367.735 0.484272 0)
(276.056 11.0903 0)
(371.991 -0.294136 0)
(375.45 1.05861 0)
(369.707 -2.26861 0)
(372.674 -1.4902 0)
(324.57 -18.4569 0)
(370.723 4.09411 0)
(285.614 22.4464 0)
(361.522 -5.27819 0)
(329.531 -0.60556 0)
(344.403 16.6784 0)
(373.594 0.20441 0)
(361.226 3.02634 0)
(355.219 -5.34422 0)
(351.14 -25.0371 0)
(332.335 2.14049 0)
(294.729 -3.15296 0)
(351.315 -2.539 0)
(291.213 1.26588 0)
(335.801 14.4073 0)
(342.961 -1.4475 0)
(374.474 1.19001 0)
(351.975 5.17393 0)
(361.579 -2.80614 0)
(374.497 -0.172398 0)
(383.059 0.0433555 0)
(381.817 2.05646 0)
(385.87 -1.35589 -0.313031)
(303.595 -4.66295 0)
(377.799 1.67595 0)
(380.66 -10.5799 0)
(366.623 0.773694 0)
(333.282 0.752699 0)
(367.23 -0.378301 0)
(336.375 12.9561 0)
(395.352 -2.23964 0.039093)
(326.508 -14.608 0)
(356.167 3.37399 0)
(374.84 -3.18241 0)
(335.001 1.8413 0)
(368.848 9.61538 0)
(359.143 0.853258 0)
(376.459 -9.67673 0)
(399.27 -4.00268 0)
(312.742 21.6803 0)
(356.487 0.463797 0)
(394.264 -1.28305 0)
(312.561 15.2762 0)
(341.138 9.99312 0)
(358.781 -9.20836 0)
(336.234 10.077 0)
(389.569 -4.6248 0)
(365.379 -0.155293 0)
(380.185 -7.0166 0)
(385.053 -0.783274 0)
(394.889 -12.9601 0)
(316.097 3.29947 0)
(388.773 2.10984 0)
(386.625 2.27423 0)
(282.1 7.27327 0)
(368.864 -0.0649368 0)
(397.815 0.282222 0)
(381.987 -0.984443 0)
(380.009 15.0088 0)
(396.711 -1.29851 0)
(386.965 6.07392 0)
(415.651 11.6429 0)
(319.966 7.80812 0)
(390.229 -15.2892 0)
(411.377 -26.3192 0)
(389.256 -9.88975 0)
(342.828 8.78844 0)
(389.107 1.54364 0)
(343.399 7.58057 0)
(402.458 -6.02474 0)
(349.616 3.34188 0)
(340.088 6.31478 0)
(371.904 1.56255 0)
(375.774 0.666303 0)
(408.193 -3.49675 0)
(337.357 1.47998 0)
(371.033 -1.40574 0)
(326.74 -5.03716 -0.087924)
(337.725 -7.03752 -0.12284)
(349.389 -1.7138 -0.0299144)
(333.334 -9.70723 -0.16944)
(349.899 -5.82 0.101589)
(337.793 -7.83876 -0.136826)
(357.982 -8.15474 0.142342)
(332.172 -12.0524 -0.210376)
(350.914 -10.8351 0.189128)
(341.823 1.59919 0)
(321.716 2.0148 6.20091)
(351.36 18.0338 0)
(345.621 -2.20728 0.0385282)
(356.56 11.2884 -0.197039)
(361.318 -11.1476 0.194582)
(341.924 -8.57839 -0.149736)
(344.193 -7.37133 0.128667)
(328.626 -9.40006 -0.164079)
(347.523 1.32868 -0.79835)
(328.744 -18.4502 -17.205)
(345.937 -9.79894 -0.171041)
(344.297 -3.50516 -0.0611829)
(330.159 -5.83585 -0.101865)
(343.768 -0.333049 -0.200116)
(339.916 -2.17361 -0.0379405)
(340.814 -2.65008 0.0462573)
(306.282 -7.08984 0.123754)
(323.806 -3.78019 0.0659835)
(342.432 -1.12683 0.0196689)
(347.191 -3.30994 -0.0577753)
(341.841 -5.47958 6.53031)
(366.655 -7.61818 3.55242)
(340.235 -4.39039 0.0766346)
(344.653 1.1257 -0.0196492)
(344.364 -1.57888 0)
(349.957 -3.05094 0.0532544)
(352.632 -0.0126406 0.00338704)
(338.648 -12.7486 -11.8883)
(350.591 -3.60494 0.0629245)
(349.911 -19.8761 -0.346938)
(365.696 -0.131663 -0.00229819)
(344.121 -2.08888 -0.0364616)
(357.745 -4.41105 -0.0769952)
(329.51 4.00196 5.50822)
(347.36 -4.28221 -0.0747462)
(341.11 -0.434286 0.0075805)
(351.267 -1.7057 0.0297731)
(366.29 -7.96736 -0.139071)
(333.53 0.469549 -0.646278)
(356.545 -10.948 0.191099)
(350.433 -0.498542 1.17449)
(330.239 -0.65836 -0.0114917)
(328.728 -6.19068 14.5843)
(343.999 -2.80146 0.0488997)
(337.586 -8.21286 0.143356)
(347.715 -8.25777 0.14414)
(333.006 2.60487 -1.50392)
(333.606 -0.0408604 0.00071322)
(345.508 -0.854013 -0.0149068)
(342.169 -1.55367 -1.12881)
(367.104 -1.39422 0.0243362)
(351.965 -7.1606 -0.124989)
(353.329 -4.25856 0.0743334)
(336.218 -5.91235 0)
(336.496 -11.3951 0.198902)
(351.262 -11.1826 0.195193)
(352.619 -1.23937 -0.0216332)
(351.857 -2.00069 -0.0349221)
(339.885 -1.28136 0.0223663)
(320.078 3.32065 1.91718)
(331.335 -3.27673 0.0571956)
(343.942 -5.0307 0.0878112)
(333.7 -2.85356 -6.72256)
(353.005 -9.7539 0.170255)
(323.696 0.703876 1.00524)
(333.385 -2.77082 -0.0483648)
(345.33 -3.05323 0.0532944)
(342.127 -3.24668 0.0566709)
(340.072 -6.80928 0.118856)
(345.89 -18.8187 0.328482)
(344.019 -4.33925e-11 1.16455)
(346.771 -6.87784 6.41369)
(348.454 -4.65089 2.16875)
(340.965 0.679389 -0.935099)
(345.628 -5.38003 -0.0939088)
(330.5 -0.355162 -0.00619937)
(318.881 -1.18573 0.020697)
(365.116 -17.292 1.51286)
(337.779 -2.08225 -0.0363458)
(344.09 -5.97794 -0.104345)
(352.203 -3.89083 -0.0679146)
(336.871 1.43908 0)
(351.079 -1.59944 3.76804)
(342.621 4.19005 8.98558)
(331.744 -9.23199 -0.161145)
(344.748 -1.76679 -0.0308394)
(345.776 -0.113729 0.00198515)
(344.622 -7.32707 -0.127894)
(362.839 -3.35311 0.0585287)
(325.327 -2.4932 0.043519)
(341.48 -0.264099 -0.00460986)
(335.535 -0.0119281 -0.000208206)
(348.679 -4.40452 -0.0768812)
(329.116 -15.4919 -0.270413)
(341.236 3.29528 -4.53556)
(341.461 -3.42233 -3.19138)
(355.939 6.81515 -4.25858)
(342.402 -3.20625 0.0559653)
(324.624 -20.2725 -0.353857)
(340.525 1.46555 -2.01715)
(361.517 -5.38173 -0.0939385)
(336.265 -0.641692 -0.0112008)
(367.616 5.81594 -8.00496)
(335.614 -0.00858781 0.0441805)
(357.021 -4.90496 -0.0856164)
(337.927 -0.297845 0.701679)
(350.192 -2.60045 -0.045391)
(334.868 -5.28659 -0.0922778)
(353.212 -6.94427 -0.121213)
(354.178 -0.458308 -0.00799979)
(358.552 2.70417 3.72196)
(333.92 -6.88622 -0.120199)
(366.385 -5.24261 0.0915102)
(331.34 -2.1749 0.037963)
(342.001 -3.21571 -0.0561304)
(337.777 -7.94879 0.138747)
(365.624 -18.1131 -0.316166)
(337.979 -0.980936 0.0171223)
(321.646 -8.70844 -0.152006)
(350.569 0.234109 -0.322223)
(304.95 -7.413 -0.129394)
(340.108 -18.8067 0.328272)
(353.076 -0.154 0.00268808)
(325.85 -2.12912 0)
(343.921 -5.51238e-11 -3.84945)
(333.228 -1.27398 0.0222375)
(355.644 -5.2092 -0.0909269)
(349.417 -1.44375 0.0252008)
(356.049 -15.1982 -0.265285)
(336.567 -0.40984 0.00715378)
(339.153 -0.164868 0.00287779)
(336.822 -13.6679 0.238573)
(362.858 -3.53957 -0.0617834)
(340.107 5.54983 7.63868)
(351.15 -8.64176 -0.150843)