/*--------------------------------*- C++ -*----------------------------------*\
  =========                 |
  \\      /  F ield         | OpenFOAM: The Open Source CFD Toolbox
   \\    /   O peration     | Website:  https://openfoam.org
    \\  /    A nd           | Version:  7
     \\/     M anipulation  |
\*---------------------------------------------------------------------------*/
FoamFile
{
    version     2.0;
    format      ascii;
    class       vectorField;
    location    "0.7/lagrangian/reactingCloud1";
    object      UTurb;
}
// * * * * * * * * * * * * * * * * * * * * * * * * * * * * * * * * * * * * * //


2449
(
(-1.24216 -10.0969 -1.16292)
(0 0 0)
(0 0 0)
(0 0 0)
(0 0 0)
(0 0 0)
(0 0 0)
(0 0 0)
(0 0 0)
(0 0 0)
(0 0 0)
(0 0 0)
(0 0 0)
(0 0 0)
(0 0 0)
(0 0 0)
(0 0 0)
(0 0 0)
(0 0 0)
(0 0 0)
(0 0 0)
(0 0 0)
(0 0 0)
(0 0 0)
(0 0 0)
(0 0 0)
(0 0 0)
(0 0 0)
(0 0 0)
(0 0 0)
(0 0 0)
(0 0 0)
(0 0 0)
(0 0 0)
(0 0 0)
(0 0 0)
(0 0 0)
(0 0 0)
(0 0 0)
(0 0 0)
(0 0 0)
(0 0 0)
(-1.72768 -4.89837 -1.72089)
(-8.78717 -10.4262 -0.237575)
(-0.785019 0.0063392 -1.37043)
(3.16627 0.420202 0.453689)
(12.3403 0.758571 0.357783)
(4.99033 2.19107 1.53699)
(-2.63142 2.56738 4.25391)
(0.585895 0.512084 0.552018)
(0 0 0)
(0 0 0)
(0 0 0)
(0 0 0)
(0 0 0)
(-0.0539903 -0.944999 0.526542)
(-1.2363 0.818402 2.21957)
(0 0 0)
(0 0 0)
(0 0 0)
(0 0 0)
(0 0 0)
(0 0 0)
(-0.055119 -1.63064 -0.120616)
(0 0 0)
(0 0 0)
(0 0 0)
(0 0 0)
(0 0 0)
(0 0 0)
(-0.526724 -2.70763 1.13085)
(0.667413 -0.336868 -0.382561)
(0 0 0)
(2.98523 4.83861 3.97649)
(1.65513 -0.122605 1.70747)
(0 0 0)
(0 0 0)
(0 0 0)
(2.13838 0.7283 2.40107)
(4.72898 4.70725 -0.752412)
(0 0 0)
(0 0 0)
(0 0 0)
(0 0 0)
(2.09292 -6.70816 9.96265)
(0 0 0)
(0 0 0)
(0 0 0)
(0 0 0)
(0 0 0)
(0 0 0)
(1.26041 2.15111 -0.243316)
(0 0 0)
(0 0 0)
(0 0 0)
(0 0 0)
(0 0 0)
(0 0 0)
(0 0 0)
(0 0 0)
(0 0 0)
(0 0 0)
(-1.45066 -1.45452 -0.041897)
(0 0 0)
(0 0 0)
(0 0 0)
(0 0 0)
(0 0 0)
(0.0541476 1.23804 -0.225634)
(0 0 0)
(13.1349 -9.34106 1.14912)
(2.04434 -1.97012 -6.11172)
(-17.1139 9.95092 4.36048)
(0 0 0)
(0 0 0)
(1.80117 0.0808621 0.0455319)
(6.74315 2.30746 -1.31925)
(-5.59893 3.87014 -5.01364)
(0 0 0)
(-1.64997 -5.00315 -1.62298)
(-2.58918 -2.31965 -5.11205)
(0 0 0)
(0 0 0)
(0 0 0)
(0 0 0)
(0 0 0)
(0 0 0)
(0 0 0)
(0 0 0)
(-1.6206 1.86573 1.50252)
(2.8033 0.0133562 -1.39994)
(0 0 0)
(0 0 0)
(-1.03499 -2.23352 1.58546)
(-4.38731 -5.16204 -2.86315)
(-0.0816915 -3.23025 1.22287)
(0 0 0)
(0 0 0)
(-0.423146 -1.69545 -2.59061)
(0 0 0)
(0 0 0)
(-8.63835 1.97516 4.66891)
(-1.01277 -4.42593 0.542777)
(-3.71423 1.14104 0.670729)
(2.79288 1.13015 -0.154555)
(0 0 0)
(-0.0498914 0.519519 3.59948)
(-0.0114891 -0.113967 -0.0285135)
(0.25535 0.584424 -2.98785)
(0.8144 0.12733 -0.293733)
(0 0 0)
(-1.67808 0.852157 -2.80669)
(0 0 0)
(2.60085 1.57464 -2.97711)
(-0.613732 7.05924 6.81102)
(-4.3873 0.484735 -0.56588)
(-0.218742 -5.39029 3.01068)
(5.34906 1.08843 4.20315)
(0 0 0)
(-0.701564 2.40064 -2.23432)
(0 0 0)
(3.7029 -0.318615 -1.39851)
(25.0968 27.1593 -0.579327)
(0 0 0)
(0 0 0)
(0.83067 1.83817 -2.40076)
(14.4658 -4.6523 8.94689)
(0 0 0)
(0.900384 -0.47544 1.57041)
(-8.65695 -6.63913 -0.0588437)
(-0.0186795 -4.20938 -2.72314)
(0 0 0)
(-0.977237 -1.71497 -0.316064)
(0 0 0)
(2.47081 3.81964 3.24884)
(1.91779 -0.565371 1.74985)
(0 0 0)
(-2.04604 1.47389 -1.73885)
(0 0 0)
(-0.196913 0.71389 0.154204)
(-1.62773 9.08686 -4.38101)
(0.0950244 0.0466622 0.07393)
(0 0 0)
(-0.0891415 0.153404 -2.98753)
(6.60569 4.5095 2.04474)
(0.487887 0.990807 1.17773)
(0 0 0)
(-0.154316 -0.654223 -0.328982)
(0 0 0)
(-1.23848 -0.347658 -0.74551)
(-16.2831 7.7825 -0.498586)
(-2.69374 0.0970428 -4.23853)
(0.33944 -0.387341 0.210812)
(-6.11614 -3.21604 2.46496)
(0 0 0)
(-0.0494888 2.06143 -1.51473)
(0 0 0)
(-0.28617 -0.350992 0.862638)
(0 0 0)
(-1.72492 -0.555359 0.127353)
(0 0 0)
(0.622339 0.0384062 0.387045)
(0.000761459 0.217649 0.00449349)
(0 0 0)
(-5.14862 -9.80731 1.46956)
(-0.894577 -1.30864 -1.24623)
(2.90359 1.29248 -0.131467)
(-3.21044 -7.85766 4.40834)
(0 0 0)
(-5.03417 -2.64065 -4.28282)
(6.8722 9.32393 -8.20256)
(1.52928 -9.32929 0.120007)
(-0.135676 -0.0496146 -1.21742)
(0.186308 -4.43174 5.19983)
(-0.615035 -4.06246 3.3402)
(0 0 0)
(-2.03771 0.521575 6.40917)
(-1.84928 3.67236 -3.38077)
(0.910937 -1.35501 -0.62961)
(-6.47251 0.40934 1.09499)
(-0.293167 -1.60614 -1.28308)
(0.442895 -0.612294 -0.164306)
(0 0 0)
(0 0 0)
(0.0361867 7.10566 -0.643165)
(1.9773 -1.55751 -1.04893)
(-0.0933675 0.150877 -0.0942065)
(-5.8302 -1.2853 2.36397)
(-5.06266 -1.63057 0.905069)
(-1.09717 -0.526035 0.0102059)
(0 0 0)
(2.1055 -18.0402 -8.95092)
(1.16766 -1.98481 0.981645)
(-28.6118 7.50557 1.29417)
(0.950615 4.73788 -3.3009)
(-0.366094 -0.348266 1.18095)
(7.42976 -11.738 -3.10149)
(0.284649 0.0932116 -0.37834)
(0.197137 -1.73658 -1.63202)
(0 0 0)
(8.28183 35.7867 3.08818)
(-3.59458 6.49239 3.16017)
(0 0 0)
(-10.2801 -12.677 2.99725)
(0 0 0)
(-3.77456 8.55019 0.951227)
(0.17294 -0.0914336 0.187702)
(-5.58478 -11.0631 -1.85945)
(0.148362 -0.424571 -1.02646)
(0 0 0)
(2.03589 -2.20083 -0.608202)
(-3.36211 -3.42108 -5.89866)
(-0.271205 -0.351381 1.52082)
(-1.75276 -0.275658 -2.93804)
(0.193977 -0.34723 0.373606)
(-2.5645 -0.743301 -0.397269)
(0.388508 1.27416 -2.57764)
(-3.11159 7.43963 5.68463)
(-3.54058 -3.46748 2.00245)
(-4.68602 -1.36066 -2.17087)
(-1.58033 -1.32692 0.42039)
(-1.14868 0.756477 0.548894)
(2.2366 -3.11915 1.21037)
(0 0 0)
(2.95841 -7.05017 -0.785165)
(-2.76283 -3.35058 -4.30619)
(-0.73177 -0.651757 -0.154334)
(1.84637 0.74829 -0.281086)
(0.966552 -0.830317 1.93587)
(0 0 0)
(-0.385739 -5.14075 -3.56628)
(6.69763 -4.16084 -2.4377)
(4.66868 -15.4193 -1.19173)
(2.03601 -3.51937 -1.48686)
(21.8005 -7.50994 -4.29898)
(1.59747 1.02838 -2.16296)
(-3.11534 3.36765 -1.0253)
(-2.04879 1.84432 2.33141)
(1.20396 0.806994 0.568999)
(3.11533 -0.587542 -0.932877)
(0 0 0)
(0 0 0)
(0.492823 0.458924 0.615221)
(6.8929 -8.38451 0.818367)
(-4.44188 1.50613 -1.22211)
(-2.93052 1.02318 3.38655)
(6.52473 6.26621 -2.17239)
(-2.42686 -2.22708 -0.358862)
(10.8168 -15.961 8.05869)
(-0.854551 2.20009 -4.56636)
(-1.65702 2.08605 -1.04687)
(1.7996 -0.922209 2.61846)
(-0.349149 -0.0434557 -0.317691)
(-1.24887 -6.30908 -0.4497)
(-1.88654 -0.201023 -0.562935)
(6.08356 1.03343 -1.45659)
(-0.789639 -2.94364 0.708017)
(0.0335787 0.00837889 0.028131)
(3.28734 -4.7669 -1.10298)
(0 0 0)
(2.0698 1.73601 3.19426)
(12.5062 11.3294 -0.456719)
(0 0 0)
(0 0 0)
(2.41687 -2.34587 0.558804)
(8.21452 5.90814 5.62004)
(1.19352 -1.90446 0.945763)
(-0.300677 0.49283 -0.234653)
(-9.45721 14.3597 2.63658)
(0 0 0)
(-0.151021 -0.832279 -0.145192)
(0.745884 1.0487 2.58522)
(-2.20891 -1.00817 0.279709)
(-0.156982 13.1088 2.58141)
(8.40442 -0.76642 0.204894)
(0.186367 -2.44997 -1.30822)
(0 0 0)
(0.40177 -0.202361 0.0117879)
(-0.0935152 -1.08339 -0.369473)
(-1.26987 0.750938 -0.356824)
(0 0 0)
(10.3733 -2.16645 -7.53308)
(1.32226 -0.0147599 0.447894)
(0 0 0)
(0.836814 -0.599521 1.20097)
(0.180761 -0.0179896 -0.362481)
(-2.4046 -0.979414 0.296398)
(3.81236 -0.662821 2.30235)
(2.54628 -1.93726 1.22201)
(1.10178 -2.66833 -2.97097)
(-0.0886107 -0.201091 -0.736493)
(0.156618 -0.280355 0.301651)
(-6.91724 -0.447452 -4.39932)
(0.791388 -0.240929 -0.913757)
(0.881901 -3.16587 -0.405381)
(-0.72525 -3.23603 0.39074)
(0.381253 -0.0922241 0.0375621)
(-0.485049 -1.06879 -1.98009)
(2.42935 -4.17598 -1.34556)
(-0.032034 -0.11524 -0.0789394)
(1.56442 -1.71171 -0.72992)
(1.56691 -1.71443 -0.731078)
(0.654597 0.789179 -1.39008)
(0.210006 1.19252 -1.89191)
(-0.250925 -0.820224 0.072722)
(-6.92621 7.47733 -0.708694)
(0.0152283 -1.79006 2.01538)
(0.25892 1.09195 1.1554)
(-0.52116 0.87493 1.75622)
(2.67855 0.221448 -0.0544441)
(-0.359448 -10.6977 0.946997)
(1.58846 -2.99358 1.87441)
(0.359478 -5.70745 0.00918416)
(1.78236 -0.522561 0.831789)
(9.18562 -2.15723 -5.90709)
(-1.35809 -0.907128 0.099032)
(0.0510153 -1.2901 0.847468)
(0.24959 1.11988 -0.1749)
(3.45065 20.8743 -0.933314)
(1.65056 0.0490753 1.78455)
(3.01341 18.2293 -0.815052)
(3.31079 -4.40647 4.55721)
(1.47464 -2.77908 1.7401)
(-3.38486 2.88628 -5.0486)
(0.269636 2.44439 -0.40525)
(-0.298897 -0.450443 0.27127)
(0.547557 4.96389 -0.822954)
(-0.335119 -0.505031 0.304145)
(-0.977296 1.16281 2.20829)
(9.6732 8.87906 0.815667)
(7.82243 -0.238571 2.15855)
(-0.804605 0.526044 -0.872402)
(-1.15342 7.80895 -4.74438)
(2.45681 -7.75536 0.690588)
(0.611986 2.74591 -0.428848)
(-0.974293 -1.04551 -2.17823)
(0.026943 -0.488384 0.506282)
(2.51852 -1.32295 -1.87368)
(-0.581963 1.74746 0.559033)
(-2.07592 -4.73662 0.239452)
(10.5949 -1.62009 0.943591)
(9.8708 12.2297 12.3344)
(2.93824 -0.449295 0.261683)
(-8.41694 8.18834 -3.63013)
(-2.11968 0.937318 -1.44049)
(-3.76239 -0.316974 -1.5152)
(0.147947 0.840114 -1.33283)
(-11.5115 -8.00138 0.711744)
(-2.19457 -6.11746 -3.32168)
(0 0 0)
(-6.22305 -0.323914 -0.852907)
(-0.39335 -0.137033 -0.0165319)
(-1.15405 -0.402039 -0.048503)
(-9.97556 9.08591 -7.13085)
(0.15933 1.87142 -1.1197)
(-0.00882419 0.302683 0.127051)
(-1.8646 5.59884 1.79113)
(-1.11641 4.20204 -1.43154)
(0.0138934 -1.64928 0.0863887)
(3.76495 1.1426 0.192774)
(6.38126 0.542568 1.63997)
(1.01617 -0.832799 1.25481)
(0.649299 -3.21259 4.04895)
(1.6261 -0.102568 0.316844)
(1.11166 3.12595 9.21982)
(0.829335 6.83318 -1.80367)
(-2.20621 -4.44397 -4.28488)
(7.40484 -5.33339 -0.961368)
(-0.990052 0.841544 -0.886554)
(0.0793389 -0.600596 3.12862)
(-0.349313 -0.566809 1.55769)
(-0.0790905 -0.547806 0.0754523)
(-1.64401 -0.392792 -1.37912)
(-0.504225 -2.17464 1.97748)
(-0.278187 -0.140615 0.213847)
(-0.187048 -1.02476 -0.818638)
(-2.20902 -1.85401 -1.93701)
(-0.971061 -0.572036 -0.186675)
(-3.44675 -2.18207 1.98916)
(-1.11366 -0.358557 0.0822228)
(-2.60785 -0.960043 3.85675)
(-0.441447 -1.69001 1.35537)
(-0.0817162 -0.554474 0.138246)
(0.932237 -1.37565 0.272795)
(-2.048 -1.95217 -0.860605)
(-0.493611 -0.0696333 2.7851)
(2.39651 -1.36284 -6.02434)
(-0.149329 -0.183153 0.45014)
(-3.79972 -1.87067 3.83991)
(0.518419 -0.581287 -0.777426)
(-0.737417 -1.29245 1.72683)
(-1.80102 -2.53792 -1.53224)
(-3.38992 -1.67774 -1.41826)
(1.15284 -0.604448 -1.52421)
(1.86428 -1.62765 0.208847)
(2.9052 -1.58647 -0.448407)
(-0.63333 -0.231021 1.19121)
(-1.09344 -1.81104 -2.52845)
(0.751272 -2.69693 -0.345335)
(-0.470263 -1.52351 -1.37446)
(-1.19515 -0.384792 0.0882389)
(-0.487526 -0.550771 2.22196)
(-1.5379 -0.53317 5.07029)
(0.321706 -0.428924 1.81753)
(-0.374131 -0.515986 -0.871806)
(-1.14563 -1.27096 -0.622149)
(-8.73179 -1.40844 -6.03863)
(-2.94147 -1.62965 0.699708)
(-2.11717 -0.85795 -0.245825)
(-4.71753 -4.30946 -4.95679)
(-1.3571 1.04879 -3.69319)
(5.09376 15.266 1.40713)
(0.58671 -0.234222 -0.555002)
(5.60561 -6.47134 -0.662555)
(0.338503 -0.080238 0.34722)
(-2.23319 0.635111 -2.7084)
(-0.0665297 1.48129 -0.618314)
(0.525916 0.281526 -1.65371)
(-7.62928 -19.3074 -1.20658)
(3.02241 9.05819 0.834931)
(-6.5803 -4.76007 -1.57305)
(-2.97654 -4.63239 -1.27265)
(1.59657 0.583127 -0.0022583)
(-1.82451 1.45724 -1.0431)
(6.8825 9.62575 -1.79557)
(-7.21157 -1.95994 -5.95402)
(3.159 -0.526855 3.45357)
(16.5549 7.53056 3.01617)
(-14.1937 -3.33147 -0.0731663)
(-2.6638 -1.40929 1.61711)
(11.3346 5.66014 -0.230794)
(-6.62663 -18.0207 0.442405)
(0.0226084 0.582205 2.4386)
(0.551489 6.21695 -2.70023)
(3.4661 -5.82649 1.98701)
(5.38832 -6.99337 4.80983)
(-1.23748 -13.5287 3.02903)
(0.38669 -1.28582 -0.186515)
(0.114576 -2.72326 -3.10732)
(0.207486 0.190625 -0.00878939)
(-1.76568 -3.8906 -7.20792)
(6.71107 8.67789 2.58326)
(1.556 0.895413 -0.276509)
(3.28249 1.2014 3.28568)
(-0.648327 -1.77064 1.45912)
(-1.38488 -2.93798 0.613354)
(3.85408 3.87344 -0.391392)
(-0.0183333 -0.119403 0.140968)
(-1.86136 0.413461 -0.0747909)
(0.121437 -1.49747 0.948922)
(-1.36154 -1.87777 -3.17267)
(-1.3471 0.558771 -3.2241)
(1.67432 10.6293 -2.99089)
(-0.755287 0.496006 -1.52157)
(-1.33828 -1.47897 -0.7879)
(1.28378 0.866574 2.32396)
(-1.80603 3.0718 -0.944623)
(2.29089 0.838471 2.29312)
(0.00956562 -0.173392 0.179746)
(0.532571 0.489291 -0.0225604)
(0.518536 13.3238 -1.58991)
(1.41055 4.04408 -1.34909)
(-0.0653777 -0.0168259 -0.0162625)
(0.276715 5.78585 -2.07165)
(0.130633 -1.23283 -0.259471)
(17.6123 10.5053 2.35771)
(-2.60838 6.56649 -4.54963)
(-1.11233 0.948482 -1.65906)
(0.570003 5.85285 -2.36821)
(0.732613 9.0741 4.28938)
(0.510875 13.1269 -1.56642)
(0.973045 0.0289311 1.05204)
(-0.189009 -1.82346 -0.688222)
(-1.90104 1.99498 -1.01202)
(-0.0132481 -0.0476593 -0.0326465)
(11.5049 -31.9537 -5.56147)
(-1.93878 3.79785 2.7721)
(0.033107 0.0110365 -0.124118)
(-3.90243 2.84045 2.18247)
(-5.91125 6.38161 -0.604843)
(1.42259 9.03116 -2.54121)
(-0.694805 -2.85579 -0.0897073)
(0.378224 -3.56945 -0.75125)
(-1.93769 2.03345 -1.03153)
(0.157379 3.29065 -1.17824)
(-1.69051 2.83805 5.69675)
(0.428776 0.267113 0.350624)
(1.59299 0.483447 0.0815651)
(0.224434 2.30452 -0.932466)
(-0.2335 -2.25268 -0.850223)
(-0.53555 -0.986528 1.40681)
(-0.0187028 -0.00665826 -0.0772731)
(-2.86765 -2.72858 0.68553)
(0.156594 -0.520561 0.0990287)
(0.809056 -3.70053 -0.167893)
(10.7794 -3.48946 9.28086)
(-3.70253 -1.69374 2.37085)
(-1.17279 -5.53443 5.09762)
(-0.511121 -1.1391 1.18341)
(-6.56393 -1.2794 5.0921)
(2.37159 -2.267 0.136061)
(2.02808 -2.01484 -1.12614)
(7.28556 -2.58831 17.1333)
(1.05968 -0.437175 -2.66474)
(0.00700386 -0.00401662 -0.00487098)
(-13.2083 -8.36188 7.62264)
(0.560235 -1.21225 -0.801544)
(-0.695783 -1.73528 -0.120985)
(0.53959 -0.577534 1.99273)
(0.192644 -1.14964 1.65933)
(0.240929 -4.79461 -1.04152)
(-0.980714 -2.81916 -3.09456)
(-0.629308 -0.123256 -0.386383)
(0.786895 -2.33873 10.0996)
(-2.90461 -7.85477 7.34486)
(2.80976 -2.39156 1.37688)
(-3.25488 -0.567222 -2.17818)
(-11.7317 -8.13137 -4.30804)
(-0.829859 -2.04517 -1.77173)
(-0.186905 -0.0629222 -0.667653)
(0.361117 -4.26428 -7.69207)
(3.72677 -8.8057 1.07982)
(1.67563 -2.23532 -2.1444)
(3.83331 -4.14387 -1.14517)
(1.6399 -1.93802 0.572085)
(5.90318 -5.97679 5.77852)
(-1.42227 -0.410569 -0.698815)
(3.27341 4.96889 1.38487)
(0.531419 -3.8392 -0.325109)
(8.0391 -1.67896 -5.838)
(-0.0119639 -1.3494 -2.21461)
(1.26425 -2.18534 -0.923262)
(-5.82116 -1.58206 -4.80606)
(0.747306 -1.11161 -0.516513)
(-8.01027 -1.88014 -0.0412918)
(7.68278 -5.72635 0.268063)
(13.3147 -11.5249 -1.18838)
(-1.16332 -0.589986 1.34037)
(-0.369329 -8.22472 7.88729)
(-0.423452 -1.77904 -0.565435)
(0.976281 -2.20713 -6.08569)
(1.71073 -4.9894 0.936744)
(-1.0513 -2.11619 -0.183848)
(-21.9013 -0.427621 0.746034)
(-0.616628 -2.21143 -1.58316)
(-4.59939 -6.56926 8.40727)
(1.33642 -3.2576 1.22251)
(-3.36332 -6.28145 4.68312)
(-13.1285 -0.600954 13.1996)
(7.14194 -2.11488 9.28144)
(0.020147 -0.365196 0.37858)
(3.27012 -5.49207 4.32952)
(-0.391105 -0.200235 -0.310407)
(0.198125 -0.21439 8.19631)
(-0.525812 -2.86669 -6.36803)
(-9.69018 -5.37555 12.2273)
(-2.62856 -4.84144 1.6085)
(-4.29299 -19.2595 21.501)
(0.148864 -0.108003 0.321607)
(0.0144617 -0.142159 -0.0814912)
(-4.64515 -1.4961 0.830429)
(-7.32364 -6.56127 -14.4597)
(-1.30598 -0.756409 2.85273)
(-0.102251 -0.471255 0.027903)
(-2.31097 8.21284 2.44427)
(-3.55642 33.5965 0.311917)
(-0.916955 -1.3437 1.85765)
(0.873653 -0.163719 -0.0640723)
(-1.50266 0.989589 0.718038)
(-10.9481 2.25497 11.1396)
(2.5237 -0.0301335 2.25791)
(0.673791 -4.83848 13.3093)
(-8.82941 0.975526 -1.13883)
(4.33334 11.3715 -4.7689)
(-17.1985 -23.8308 -8.79692)
(0.917907 3.82898 0.96043)
(-8.38645 1.80991 2.66486)
(1.56041 2.59853 -2.30976)
(5.98242 7.37549 -2.95269)
(-1.99498 4.12679 -4.19604)
(-3.11583 12.7063 -4.11936)
(7.10366 19.0786 -5.00375)
(0.768247 -0.102364 2.46547)
(0.146267 0.136206 0.182594)
(10.6341 -0.915005 -4.01626)
(10.1309 -0.923865 0.246985)
(-2.00597 0.649682 6.28126)
(-2.03786 2.27542 -9.91905)
(-1.84005 -0.175575 1.1152)
(1.08411 -0.639262 -1.87717)
(-4.47803 20.7666 -2.84963)
(-8.66452 -19.0558 -2.03946)
(17.8336 6.10252 -3.48901)
(2.10689 5.4083 6.39277)
(15.3805 14.7711 -5.12089)
(10.9986 15.7818 -2.98652)
(-2.89468 5.21938 6.14492)
(3.52537 0.446916 1.68683)
(-10.461 2.39191 5.65402)
(0.127856 2.94766 3.40144)
(-2.74584 0.958699 3.17313)
(1.03685 1.26756 -4.06054)
(22.0054 14.425 -2.95991)
(0.418263 0.588071 1.44969)
(0.447071 -5.36331 -0.436347)
(3.18184 -4.82945 -9.24323)
(-2.89326 1.42768 0.253687)
(6.73614 1.23373 -4.32053)
(0.0777788 -0.55375 -0.117497)
(-1.04162 0.615963 -0.292688)
(-6.93501 2.35148 -1.90805)
(-0.0186539 0.0291387 0.104181)
(15.1181 -9.2061 2.38432)
(14.7832 -4.15353 11.989)
(-5.40045 -2.46483 0.683846)
(1.14286 3.77168 1.41906)
(0.965953 0.947643 1.6268)
(-1.35196 -4.54921 13.9)
(2.93082 -7.09553 -6.09902)
(2.19208 -2.8589 0.0793491)
(-0.676737 0.507522 0.454721)
(9.56406 -3.84813 6.01076)
(7.96589 5.72932 5.44994)
(-0.789863 3.48923 -1.61025)
(-20.2 -15.0684 9.37534)
(9.68231 3.85848 0.163136)
(-2.62458 8.90213 -9.72047)
(13.4049 -18.9428 -1.02997)
(-0.285901 2.94853 1.97661)
(18.1299 -5.24257 -3.73575)
(-34.3654 9.01488 1.55441)
(-31.3356 23.5686 3.11163)
(1.38321 0.890449 -1.87286)
(-3.78613 -1.58761 -2.59496)
(0.516249 5.10253 1.2624)
(-20.394 1.28978 3.45017)
(-7.29939 0.0230653 3.62133)
(7.81246 -1.47341 -2.33942)
(3.52505 6.23875 6.78953)
(-0.1038 8.66785 1.70689)
(19.3862 3.2932 -4.64166)
(-5.6271 -10.6844 7.80214)
(5.07549 -5.97842 -3.91621)
(-0.425884 -5.67576 -3.93743)
(3.59279 18.2037 -19.3985)
(-2.14622 -10.8423 -0.772821)
(1.10959 13.4424 -1.65977)
(0.639343 -1.07257 0.584628)
(-3.1965 -2.95214 4.1437)
(6.10003 6.46419 -0.32939)
(19.5496 13.0864 -17.8636)
(-4.75858 -0.821567 -9.46535)
(9.96565 -4.66889 0.996876)
(9.40207 8.51741 -0.343359)
(3.3918 2.04244 2.02102)
(-0.406695 -2.2413 -0.390996)
(-2.43563 -0.259531 -0.72678)
(4.00528 4.25209 3.64832)
(-2.05273 -0.557885 -3.39457)
(3.65841 -2.60753 -1.52574)
(8.92715 -7.15629 2.39171)
(2.76137 -4.10751 -1.90857)
(-2.45974 -6.21229 0.83533)
(8.89129 -1.67608 12.7416)
(-4.61767 -2.17369 4.72992)
(-1.13007 1.7124 -4.14831)
(-2.7651 -0.495776 -0.236735)
(-0.0379125 -0.13719 -0.202717)
(1.08275 4.13714 -3.47548)
(-2.73155 1.71587 1.09999)
(0.0865586 0.199622 0.210009)
(-1.30199 -0.475307 0.115047)
(9.02278 4.41896 -0.169742)
(-3.66332 12.6223 3.71481)
(-1.36278 0.9628 -1.03408)
(-2.7978 -6.93552 -0.365329)
(3.75481 2.36774 -1.21721)
(-2.33365 -0.303703 -0.629883)
(-6.16725 6.04619 -3.37378)
(0.798995 0.79103 0.625051)
(7.80318 6.68507 19.6099)
(-4.25225 -0.998368 -1.33977)
(3.81656 12.9471 -2.38886)
(20.4205 24.5708 -5.57184)
(-0.810338 0.601148 0.10575)
(5.31931 4.96473 -3.05814)
(-2.3875 0.815631 -1.86751)
(-1.03737 0.295025 -1.25812)
(9.78354 10.0223 -3.12763)
(-1.59757 0.482113 0.240417)
(4.96293 -0.792965 -6.34534)
(5.72064 3.64498 2.62282)
(-1.47499 2.50874 -0.771475)
(1.33394 -1.82832 0.838515)
(-16.4575 2.16975 -0.735935)
(-11.8886 -4.84235 1.46543)
(16.1637 -8.35198 -2.35104)
(-4.84788 -0.903757 5.65529)
(-21.2229 -11.0767 6.58573)
(-15.457 -1.05375 -2.40928)
(2.6931 -3.0196 -3.96871)
(0.578322 -0.305759 0.627686)
(17.1309 -3.25136 -6.23465)
(-4.78414 -0.632124 0.86134)
(7.34186 -6.87699 1.75506)
(6.00529 -3.04286 0.482136)
(-5.71422 -1.82815 6.15298)
(-9.31154 -6.31282 13.4044)
(-7.28021 -9.04161 -4.87523)
(-5.06316 -10.1466 7.294)
(-0.571723 -0.870247 -0.314569)
(-0.178846 -0.42749 -0.566669)
(4.89645 -4.74772 -4.12834)
(5.31458 -8.73848 -0.560098)
(-0.0096274 -0.0106836 -0.0182296)
(0.884623 -11.7611 -2.81932)
(-1.72588 -1.03372 -1.70144)
(-13.2657 -4.2279 6.81697)
(1.7089 -0.274636 0.609469)
(-9.71944 -13.1607 11.7046)
(7.95015 -1.23298 -4.99479)
(9.01912 -12.5989 19.6087)
(-23.1613 -10.88 -4.27025)
(-3.19698 -0.626158 -1.96289)
(9.35167 -8.60192 -1.61514)
(6.51288 -2.41031 -2.18534)
(-7.97585 -11.8889 -4.53603)
(0.747944 -0.850349 3.26565)
(1.96453 -1.98518 -2.58641)
(-1.91472 -3.10689 8.53828)
(11.9482 -17.9876 4.02162)
(-4.92369 -2.81621 2.12264)
(-1.07253 -3.83753 -16.6079)
(6.77593 -10.6382 -4.96101)
(0.0950298 -0.74359 -0.521564)
(-1.89027 -1.53556 -1.81119)
(0.938917 -14.1098 3.50302)
(-7.02567 -3.46239 5.51596)
(8.89625 -8.80152 -10.2988)
(-4.50645 -1.45103 10.413)
(1.24984 -12.1494 9.64115)
(-19.7261 -1.27651 -6.90146)
(-5.06062 -6.55423 6.84475)
(6.68861 -15.804 1.93801)
(-11.3437 -9.00156 4.97478)
(-17.5412 -7.31183 -7.1989)
(10.65 -7.39485 -6.98555)
(-19.5067 -1.26765 -15.7124)
(10.9931 -5.60674 -4.54138)
(1.34369 -0.0854428 -0.578637)
(-9.46675 -7.21501 -5.48604)
(-0.246017 -10.5043 -3.62764)
(-3.34409 -2.1152 -7.98056)
(0.229766 -0.117171 -0.22042)
(8.48631 -3.68007 3.09146)
(-8.76635 -1.34063 -1.10377)
(12.6437 -24.6714 -13.0121)
(-3.3145 -9.05221 7.45959)
(-0.262334 -1.47844 3.89278)
(5.14851 -35.1437 -14.2224)
(-3.06731 -6.04932 -5.28078)
(-0.442324 -0.849341 0.0456891)
(0.0824041 -1.9063 0.15339)
(24.1889 -9.86481 -8.23338)
(-5.49118 -2.58344 13.5095)
(-4.76871 -12.8957 12.0586)
(-0.509656 -6.57853 0.716665)
(12.0004 -10.2143 5.88059)
(7.62741 -9.63376 -4.04064)
(1.39665 -0.974584 -4.18755)
(-22.4272 -10.0785 13.5565)
(-3.27001 -5.7386 -1.05761)
(1.06944 9.99526 2.01277)
(-22.6144 -17.3433 -0.153716)
(7.17623 -8.12752 -2.38152)
(5.79715 -2.68285 4.25884)
(-0.112486 -1.88261 0.413574)
(7.61264 -4.84765 2.8421)
(4.02881 -1.16473 4.97869)
(4.14054 -9.24198 -4.34708)
(-5.22405 -12.2182 -5.92803)
(-13.066 -15.1828 -7.95819)
(-3.3445 -1.91505 -3.43433)
(-0.0143442 -0.142289 -0.0355993)
(3.42042 -4.08174 -0.269891)
(-1.11319 -10.4639 6.98515)
(3.48505 -3.36123 -6.75953)
(13.9714 -4.6342 -0.655532)
(-5.66261 -11.7407 4.35381)
(-29.6433 -8.91222 -5.10019)
(1.1994 -9.49138 -31.6287)
(-0.880511 -7.48298 2.3351)
(-1.2836 -1.04299 7.74188)
(-0.81992 -1.96511 -0.0136697)
(-15.6388 -2.72534 -10.4656)
(6.92518 -7.60707 6.15378)
(-2.58565 -19.7084 4.04275)
(-6.66605 -9.26465 -30.1114)
(-12.951 -9.42535 -5.76606)
(-19.7246 -12.4872 11.3833)
(-1.89281 -0.969062 -1.50226)
(-13.5949 -2.26618 11.9484)
(0.143018 -0.319618 -0.0529621)
(14.7773 -3.0071 -28.2629)
(-2.96571 -8.91088 5.75301)
(25.7749 -2.76845 -12.4178)
(-3.23026 -4.22524 -9.68031)
(27.9732 -3.80128 -22.4961)
(3.79616 -2.99021 -2.0138)
(2.64086 -2.87178 4.48878)
(-0.387168 -0.31842 2.2399)
(-2.67245 -0.827253 -1.59808)
(-4.48627 -4.38272 12.739)
(-5.81636 -4.22231 4.17533)
(-8.95116 -20.5885 33.9995)
(-9.34863 -2.93281 -11.8691)
(0.731938 -0.317875 0.517674)
(-6.02706 -11.4911 -3.67574)
(-8.00541 -29.9776 2.37014)
(10.2557 -12.475 1.21762)
(-16.2692 -25.4306 12.9561)
(-0.129531 -2.16789 0.476244)
(6.03454 -9.30778 6.98418)
(-0.0632209 -14.2467 -9.21651)
(-9.55445 -14.0864 -4.92802)
(-6.95851 -10.7297 11.1778)
(-7.16885 -5.66088 -4.3282)
(5.74406 -2.23753 5.87281)
(-0.0910895 -0.175984 0.144191)
(-0.872431 -1.1993 1.34925)
(17.6675 -2.09886 3.24866)
(-6.50583 -4.69455 4.38808)
(2.96197 -4.35389 9.92783)
(0.593692 -6.83136 -2.7291)
(2.99965 -3.21059 11.0778)
(-2.08173 -5.02076 -12.4602)
(3.82711 -4.56707 -0.301981)
(-2.25947 -1.73148 6.41123)
(-8.03638 -3.9391 19.5689)
(2.80556 -8.44676 7.90053)
(2.95422 -4.34474 -3.15222)
(-2.4179 -10.1583 -3.22863)
(-0.536479 -0.468237 0.333117)
(-1.60869 -3.96453 3.32028)
(0.918109 -0.671303 -6.46682)
(-18.8054 -3.4773 -2.63953)
(5.44551 -2.2593 4.96789)
(0.458656 -9.12747 -1.98274)
(-14.5823 -7.1435 7.8154)
(-11.9278 -3.12595 1.9301)
(0.228553 -1.36394 1.96863)
(-14.737 -27.1433 9.01799)
(-1.18259 -1.5322 6.63155)
(29.3308 -17.7231 1.52311)
(-14.2866 -11.0846 -16.9415)
(-3.84942 -11.8887 1.90757)
(0.825574 -1.47782 1.59008)
(-1.42001 -2.37389 -1.21983)
(0.0464343 -0.319699 0.220122)
(1.37885 -1.95051 4.46473)
(6.27992 -4.30578 -0.344405)
(-17.5613 -8.69141 -7.3472)
(-1.24495 -5.39137 -3.4556)
(1.12124 -0.308169 0.234966)
(-3.01181 -1.53645 2.09617)
(-10.4034 -14.66 -8.85082)
(-15.6585 -10.9411 -0.756548)
(-6.39374 -0.142524 -4.51262)
(-0.989365 -2.16158 -0.914054)
(5.03945 -3.78473 2.03905)
(15.968 -8.71981 -2.46461)
(11.9562 -4.99822 -11.3899)
(10.2605 -33.6819 10.7075)
(-7.8061 -2.14837 -2.64607)
(-16.226 -11.2465 -5.95844)
(-14.0543 -28.3859 -9.35892)
(-3.16893 -2.42962 -2.30533)
(9.56134 -15.4891 -1.97571)
(13.8475 -10.7232 -11.7799)
(-3.8175 -25.8908 -22.0514)
(-15.7848 -5.27484 15.5133)
(-4.1805 -3.03403 -6.47958)
(1.85453 -1.64945 -0.604193)
(-5.49757 -2.41377 -4.02627)
(2.67238 -1.9487 -1.30242)
(2.61522 -2.01545 -7.6334)
(-9.50674 -36.4697 -37.884)
(27.136 -11.2271 0.594913)
(-21.447 -9.07859 1.87147)
(21.4071 -7.72081 11.8576)
(-0.00650922 -0.201969 -0.126236)
(-0.42657 -0.588308 -0.994001)
(16.6226 -1.66994 28.951)
(3.00449 -1.27705 2.93152)
(-4.16245 -2.87343 -2.24671)
(-0.533404 -7.10868 -4.93149)
(-1.59344 -9.3756 -4.45326)
(-9.27187 -3.02401 1.57811)
(-0.068353 0.0300689 -0.581212)
(-20.5502 -9.81655 -4.80011)
(-6.37585 -3.6372 -3.42578)
(-8.03128 8.93465 -3.05752)
(-3.46839 1.36003 -0.693776)
(-12.7481 -1.80488 4.28972)
(1.48298 3.19181 0.827649)
(-0.00678948 0.0027205 -0.0159422)
(-7.51616 3.37519 -2.30302)
(-15.1616 4.96747 -3.84408)
(-0.38413 -0.721658 0.849849)
(-12.8505 -0.889522 -0.834464)
(0.157927 0.26243 3.41723)
(2.90518 15.9045 12.3381)
(0.136398 -0.209153 -0.130224)
(2.5778 4.88496 -4.894)
(10.517 12.3348 -5.771)
(-12.7591 -5.17043 -1.48146)
(-22.6609 -6.69111 -31.7875)
(2.68323 -4.04489 5.18055)
(-2.94601 -2.37792 -0.130829)
(-0.985889 9.32824 -3.99481)
(-20.209 -9.84257 8.925)
(-8.24489 0.304346 2.45158)
(27.7229 -16.8158 -8.17896)
(1.88819 2.81639 2.85422)
(10.5267 2.57457 5.03966)
(-17.1924 21.7676 -2.20326)
(-1.73128 1.24976 -1.85237)
(21.2718 11.3776 16.0338)
(5.16329 9.16458 7.96044)
(24.3846 24.149 -8.20047)
(-0.299212 0.483513 -0.301901)
(10.8184 -14.1893 7.37456)
(-1.30006 -1.14186 0.679762)
(-3.731 2.98491 -0.0672003)
(4.36144 6.16533 -7.33757)
(21.0436 -0.599172 15.0897)
(-1.92591 0.0942735 0.457302)
(7.85538 0.272772 4.80484)
(0.0528707 1.75776 -1.28599)
(-1.93691 -8.13753 -2.58636)
(-1.9722 11.9183 6.68635)
(9.21227 -0.0891086 3.91228)
(2.81612 -1.48702 4.91175)
(19.4189 -6.6478 4.4575)
(2.5056 1.40352 0.110927)
(0.949023 0.310769 -1.26139)
(-1.2876 -6.83651 -4.97527)
(-12.223 16.749 -0.5691)
(-6.80862 4.90469 -5.78639)
(-11.2858 6.28346 13.2045)
(5.8676 -2.18865 -0.844574)
(0.313909 -0.324864 0.528698)
(-5.76927 -17.4939 -5.67487)
(0.466315 -4.74965 -5.23644)
(-0.599704 3.26005 0.474592)
(-6.18146 6.16825 -0.880827)
(0.711787 5.88034 -7.02333)
(2.17478 -0.0482054 -2.20201)
(-3.18694 7.05451 3.11119)
(-7.57677 -1.72489 -5.00736)
(0.461926 4.3173 0.869383)
(4.59291 6.63817 -0.292087)
(-3.60967 11.8284 4.17862)
(-11.2876 7.37322 -7.60694)
(-1.44953 0.785929 -0.914444)
(-55.0215 11.3073 -11.5624)
(0.334424 -0.0529328 0.482224)
(-0.106157 1.10541 7.65881)
(6.34498 -1.87052 5.78936)
(-0.424373 -1.29265 -0.0174651)
(-19.1851 -18.0901 0.791295)
(2.00553 4.43798 -5.79628)
(-0.186161 22.1708 4.0112)
(-8.8612 -4.92041 6.85737)
(1.17726 -0.424352 0.0115983)
(-15.6875 17.1188 11.2075)
(-3.54676 0.349951 -1.53225)
(1.9476 3.4739 -5.97689)
(13.399 -4.99791 -1.92863)
(-27.3106 -24.9482 -28.6957)
(-0.656871 2.38142 0.514401)
(-1.95199 -3.36981 -6.58465)
(-6.78553 -2.07681 -1.64006)
(-0.478724 1.01289 2.8227)
(8.26477 14.5727 1.12177)
(-0.556889 -1.08122 -1.30687)
(0.326384 1.53393 7.04919)
(-4.63259 5.63895 -2.10164)
(-3.21467 -2.33406 -6.80632)
(5.95502 0.267346 0.150538)
(1.35179 0.0469397 0.826836)
(0.752024 2.1193 1.66284)
(3.15784 -1.39155 5.02075)
(-3.75441 -4.78249 1.68089)
(4.60996 2.0812 -0.0926569)
(-0.2626 -10.3837 3.93094)
(4.97316 1.2654 4.64286)
(-1.23111 1.00646 -1.18043)
(1.87912 0.115966 1.16866)
(0.586148 13.2256 3.39148)
(-1.89456 -2.23998 -0.977915)
(-46.8729 -14.1087 14.4447)
(1.2613 3.85294 -8.76816)
(-7.02693 -2.87823 -0.0831352)
(-14.9781 2.28042 11.1729)
(-4.43996 10.1006 6.60206)
(-8.13285 1.37764 20.2883)
(-5.4599 -9.34402 6.85203)
(21.9463 -3.56124 1.07075)
(21.4082 21.4 0.199119)
(-7.0144 1.00487 0.929304)
(12.122 -0.882816 2.1626)
(-17.7933 15.4503 -3.85934)
(6.3988 10.2335 -0.152912)
(-8.10228 -8.64765 -11.2946)
(-3.93783 10.3942 3.87979)
(0.542554 -4.41227 -1.55304)
(2.55769 0.399891 -0.922493)
(-3.82047 -6.52784 -0.292938)
(3.09536 -0.265645 0.277398)
(8.41678 -12.5272 -17.9496)
(-0.780523 3.25778 -2.63745)
(1.87539 2.55898 -1.93755)
(-0.733489 2.76078 -0.940534)
(0.660661 6.9336 -0.513833)
(8.56478 0.485303 0.155091)
(-0.365841 0.310965 -0.327597)
(-0.346745 -0.406043 0.329234)
(-7.87646 15.5302 -3.49108)
(-0.447606 -0.997362 1.21738)
(1.11177 6.6602 -0.105739)
(12.7315 11.6863 1.07355)
(-2.38698 7.82179 2.7632)
(-5.93617 -14.8862 6.08507)
(21.533 -25.7664 12.1032)
(-8.55117 -9.53686 2.35725)
(9.76935 8.96732 0.823775)
(-0.722077 2.11295 -0.395954)
(-4.46211 7.98583 -2.36503)
(7.68658 -5.53631 -0.997947)
(8.98651 3.63645 -0.497304)
(13.1359 6.38999 -3.50259)
(-1.76008 2.2158 -1.11199)
(-4.32405 1.32838 0.780853)
(1.94962 -3.37004 -1.42377)
(0.0933238 1.71498 1.77908)
(-1.99762 -0.747967 -7.47291)
(-17.7994 -5.03793 3.69105)
(-2.67513 -7.03859 -2.04814)
(0.916774 -1.71406 1.10558)
(-0.197506 -9.70871 -16.5104)
(1.042 -5.82089 4.91847)
(-2.26728 -7.83996 -5.55556)
(15.7844 -8.15598 -2.29586)
(-8.89444 -12.0543 25.2369)
(16.696 -10.8368 0.483522)
(0.137567 1.60606 1.79556)
(-11.9527 -6.52002 -1.73326)
(22.5368 18.1218 11.1183)
(-2.60253 -2.20761 5.99646)
(13.3257 -11.2901 -11.7332)
(24.0908 -11.1493 2.55702)
(-2.85549 -8.57969 5.53919)
(-5.45629 -7.37245 2.98808)
(-6.77383 -9.40149 6.68171)
(8.37116 -1.55008 -2.73663)
(-9.14454 -25.2274 9.84224)
(6.76857 -9.80044 -1.48312)
(-5.29712 -3.5057 -7.80697)
(-13.1338 -5.83674 -3.70432)
(4.79478 -0.388546 -6.11556)
(-1.16947 -2.17394 -5.54776)
(7.28356 -2.65048 -23.8186)
(-28.5902 -7.09092 -9.45414)
(-13.0255 -3.78077 -1.54415)
(7.32974 -1.127 2.20404)
(6.91025 -3.31045 -7.96246)
(5.18457 -8.52471 -0.546396)
(19.6716 -8.40573 -15.4711)
(6.20883 -4.39106 1.24602)
(1.22427 -1.12587 0.329055)
(-2.6296 -1.57888 -1.29223)
(-1.61249 -3.05141 0.108824)
(1.10201 -0.0130865 -1.17077)
(-7.84891 -17.4315 -7.85199)
(13.4539 -3.60549 -3.18166)
(9.27893 -19.8791 4.40416)
(14.6072 -0.131683 33.8545)
(-0.292901 -2.0892 -1.2626)
(14.6814 -4.41172 -0.836595)
(-10.6249 -6.80854 5.61963)
(6.77134 -4.28286 8.59314)
(-0.744229 -0.434352 1.62851)
(2.10186 -1.70596 -2.48437)
(24.1966 -7.96857 37.8593)
(0.172546 -0.798844 -1.19954)
(7.59359 -10.9497 -5.49274)
(-0.375499 -1.27592 18.5616)