/*--------------------------------*- C++ -*----------------------------------*\
  =========                 |
  \\      /  F ield         | OpenFOAM: The Open Source CFD Toolbox
   \\    /   O peration     | Website:  https://openfoam.org
    \\  /    A nd           | Version:  7
     \\/     M anipulation  |
\*---------------------------------------------------------------------------*/
FoamFile
{
    version     2.0;
    format      ascii;
    class       scalarField;
    location    "0.7/lagrangian/reactingCloud1";
    object      yH2O;
}
// * * * * * * * * * * * * * * * * * * * * * * * * * * * * * * * * * * * * * //


2449
(
0.022
0.022
0.022
0.022
0.022
0.022
0.022
0.022
0.022
0.022
0.022
0.022
0.022
0.022
0.022
0.022
0.022
0.022
0.022
0.022
0.022
0.022
0.022
0.022
0.022
0.022
0.022
0.022
0.022
0.022
0.022
0.022
0.022
0.022
0.022
0.022
0.022
0.022
0.022
0.022
0.022
0.022
0.022
0.022
0.022
0.022
0.022
0.022
0.022
0.022
0.022
0.022
0.022
0.022
0.022
0.022
0.022
0.022
0.022
0.022
0.022
0.022
0.022
0.022
0.022
0.022
0.022
0.022
0.022
0.022
0.022
0.022
0.022
0.022
0.022
0.022
0.022
0.022
0.022
0.022
0.022
0.022
0.022
0.022
0.022
0.022
0.022
0.022
0.022
0.022
0.022
0.022
0.022
0.022
0.022
0.022
0.022
0.022
0.022
0.022
0.022
0.022
0.022
0.022
0.022
0.022
0.022
0.022
0.022
0.022
0.022
0.0219984
0.0219999
0.022
0.022
0.022
0.022
0.022
0.022
0.022
0.022
0.022
0.022
0.022
0.022
0.022
0.022
0.022
0.022
0.022
0.022
0.022
0.022
0.022
0.022
0.0219947
0.022
0.022
0.0219593
0.022
0.022
0.0217428
0.0219593
0.00516824
0.0219961
0.022
0.0219939
0.013792
0.0215884
0.0219997
0.022
0.0219993
0.022
0.021899
0.0157997
0.022
0.0219633
0.0212829
0.022
0.0196963
0.022
0.0219975
3.37515e-05
0.022
0.0219999
0.0219902
0.0115581
0.022
0.021992
0.021634
0.0219257
0.022
0.021838
0.022
0.0196779
0.0218666
0.022
0.0219983
0.022
0.0219933
0.00353984
0.0219745
0.022
0.0219983
0.0155387
0.0204713
0.0219999
0.0160756
0.0219999
0.0143116
0.0180392
0.0197678
0.0219956
0.0219774
0.022
0.0216189
0.022
0.0202778
0.0219996
0.0208091
0.022
0.021907
0.0196873
0.022
0.0219944
0.0219995
0.0212665
0.022
0.0219997
0.0219956
0.0177073
0.0219869
0.0171702
0.021123
0.0207833
0.022
0.021373
0.0219916
0.0219948
0.0211609
0.0217297
0.0179588
0.022
0.0219999
0.00703279
0.0189981
0.0218893
0.0149552
0.0216411
0.0114837
0.022
0.0160256
0.0202978
0.00855352
0.013192
0.018594
0.018594
0.0219525
0.0219811
0.0219998
3.47647e-05
0.0165403
0.022
0.0215944
0.022
0.00693341
0.0210767
0.0219252
0.0219985
0.0219998
0.022
0.022
0.022
0.022
0.022
0.022
0.00324516
0.0101684
0.00798621
0.00983847
0.0193781
0.0143524
0.0219646
0.0219998
0.00986725
0.0159177
0.022
0.0140918
0.0219862
0.0219981
0.0175455
0.0141599
0.022
0.0200244
0.0176433
0.0208395
0.00330928
0.021951
0.021956
0.0188275
0.022
0.0219995
0.0140709
0.0213774
0.0160983
0.0106367
0.0160983
0.0219927
4.0577e-05
0.0219099
0.00657898
0.0219877
0.0219766
0.0208138
0.0144728
0.0219404
0.0219723
0.0219927
0.0216943
0.0219994
0.0201711
0.0104012
0.0219998
0.0219999
0.0219672
0.0104629
0.0219026
0.017224
0.00881053
0.022
0.0218329
0.012284
0.0207359
0.00158822
0.0159066
0.0219833
0.0219989
0.0219632
0.0200499
0.0124253
0.0219991
0.0119189
0.0185492
0.0219994
0.021999
0.0219984
0.0219988
0.0219979
0.0219998
0.0219998
0.0219977
0.0219977
0.0219991
0.0219998
0.0219999
0.0219999
0.0219999
0.0219996
0.022
0.000145279
0.0139105
0.0134927
0.0139105
0.0163311
0.00455191
0.00732752
0.0143333
0.0133309
0.0207644
0.0185214
0.021983
0.0218435
0.0219343
0.0180544
0.0191862
0.0181486
0.0183394
0.0209462
0.00023728
0.011327
0.0131454
0.0219853
0.0219904
0.0144124
0.0205011
0.021997
0.0196119
0.0219752
0.0219821
0.00211929
0.0107429
0.0216589
0.00885849
0.0218817
0.00502634
0.0219463
0.0112126
0.0219802
0.0209533
0.0219656
0.012438
0.0144323
0.0219969
0.0028681
0.00777529
0.0113437
0.0219909
0.021775
0.02199
0.0219997
0.0205282
0.0219959
0.00783565
0.00905993
0.015717
0.0212766
0.0117097
0.0129986
0.0219827
0.0148126
0.017938
0.0211663
0.0219782
0.0105031
0.00039803
0.0136252
0.021994
0.0168735
0.0159568
0.0219778
0.0219697
0.02198
0.0219492
0.0219868
0.0219043
0.0219778
0.0219697
0.02198
0.0219437
0.0219664
0.0219914
0.0219922
0.0219145
0.0219893
0.0219838
0.0219492
0.0219492
0.0219437
0.0219944
0.0219043
0.0219904
0.0219043
0.021993
0.0219893
0.0219754
0.0219944
0.0219854
0.0219754
0.021923
0.0219868
0.0219964
0.0219944
0.0219964
0.021923
0.0219964
0.0219697
0.0219937
0.0219964
0.021982
0.0219307
0.000818836
0.000336494
0.0219587
0.00636871
0.0120728
0.015145
0.0146191
0.0103901
0.0186117
0.00970081
0.019457
0.0144932
0.0150398
0.0191536
0.00321622
0.0126508
0.00588858
0.013846
0.0120983
0.0149172
0.0123286
0.0131612
0.0218956
0.0219245
0.0127443
0.0157659
0.017834
0.0121278
0.021982
0.0195684
0.00872455
0.00369084
0.0176659
0.013123
0.0219974
0.00389475
0.0103049
0.0100451
0.0159413
0.021995
0.0130358
0.0160291
0.00513699
0.0167898
0.00543735
0.00255125
0.0167898
0.003894
0.0172188
0.0162899
0.011667
0.00285553
0.0143497
0.00671781
0.0201056
0.00522016
0.0161209
0.0198785
0.013829
0.00746369
0.0024563
0.0187161
0.0170672
0.0136366
0.0184634
0.0184634
0.0154195
0.0185581
0.0219944
0.0156556
0.0146107
0.0185838
0.016087
0.0112838
0.0172398
0.0126686
0.0219191
0.0169672
0.0155369
0.0123832
0.0175539
0.0207066
0.0152637
0.0152637
0.0157113
0.01398
0.0189054
0.0157113
0.0175539
0.0152637
0.0193264
0.014397
0.01398
0.0200887
0.0128025
0.0128025
0.018466
0.021322
0.021322
0.0120812
0.013575
0.013575
0.0216418
0.0157113
0.014397
0.0189054
0.0217073
0.0131824
0.020418
0.014397
0.018466
0.0148252
0.0131824
0.0180139
0.0131824
0.0197229
0.021559
0.0161422
0.0218013
0.0161664
0.0216418
0.0217073
0.0161664
0.0197229
0.018466
0.0124355
0.0148252
0.0216418
0.0120812
0.0218329
0.0170904
0.0120812
0.0120812
0.0161664
0.0218329
0.0124355
0.018466
0.0166269
0.0124355
0.0189054
0.0175539
0.013575
0.0218573
0.013575
0.013575
0.0148252
0.0218765
0.0128025
0.0175539
0.0218765
0.0207066
0.0120812
0.013575
0.0207066
0.000717255
0.000943618
0.0218918
0.00531778
0.00693742
0.00685067
0.013575
0.00395384
0.010017
0.00491872
0.00155642
0.00768315
0.00806257
0.00916826
0.0015521
0.00855283
0.00536634
0.00454879
0.0122638
0.0119397
0.00472517
0.00885436
0.00428774
0.00332279
0.0107273
0.00510643
0.000598207
0.0137384
0.00610637
0.000423914
0.00323947
0.00802923
0.0108006
0.00570184
0.0119315
0.00156465
0.00885553
0.0121196
0.00753087
0.0119932
0.0143021
0.00593566
0.0142176
0.0109962
0.0150508
0.0109776
0.00694536
0.00791422
0.0134338
0.00792395
0.00701789
0.0137181
0.0153031
0.00811437
0.0106847
0.004907
0.00709162
0.0162121
0.00667699
0.0115966
0.00687539
0.0115614
0.013274
0.0101169
0.00894298
0.0150913
0.00458676
0.00285261
0.0145757
0.015117
0.00694393
0.0043142
0.00931754
0.00800718
0.000886671
0.00810359
0.00265272
0.0183046
0.0103153
0.0126994
0.00663768
0.0194384
0.00786269
0.00710118
0.0155457
0.0161539
0.00525427
0.011421
0.0182994
0.00840511
0.0108839
0.0139797
0.000455553
0.00622494
0.0133059
0.00090442
0.016339
0.0108161
0.00897444
0.0152422
0.00536945
0.0164049
0.014218
0.021477
0.00364548
0.0100131
0.014112
0.0166254
0.012173
0.0067156
0.00627797
0.0164117
0.0104365
0.00678007
0.000299155
0.021175
0.00824406
0.0123758
0.001954
0.00251233
0.0174479
0.00870009
0.0213462
0.0218496
0.00771589
0.0202868
0.0102245
0.00935375
0.0215015
0.0182448
0.00408607
0.00708339
0.00650877
0.00557605
0.00637757
0.00724069
0.00589632
0.00612862
0.00528591
0.00625092
0.00528591
0.00557605
0.0085256
0.00589632
0.00625092
0.00757349
0.00567926
0.00625092
0.00537951
0.00664472
0.00740396
0.00625092
0.0091926
0.00612862
0.00612862
0.00708339
0.00793248
0.00537951
0.00832016
0.00943308
0.00601048
0.0085256
0.00724069
0.00537951
0.0069318
0.0069318
0.00774956
0.00832016
0.00601048
0.00625092
0.00740396
0.00601048
0.00724069
0.00589632
0.00589632
0.00567926
0.00678566
0.00637757
0.00589632
0.00537951
0.00896144
0.00724069
0.00943308
0.00589632
0.00601048
0.00637757
0.00625092
0.00547618
0.00589632
0.00650877
0.00528591
0.00812257
0.00724069
0.00537951
0.00757349
0.00625092
0.0069318
0.00943308
0.00547618
0.00832016
0.00589632
0.00601048
0.00994363
0.00601048
0.00612862
0.00793248
0.00793248
0.00724069
0.00465307
0.00774956
0.00637757
0.00678566
0.00678566
0.00612862
0.00994363
0.00589632
0.00625092
0.00612862
0.00896144
0.00740396
0.0069318
0.00589632
0.0069318
0.00578597
0.00757349
0.00567926
0.00625092
0.00625092
0.00589632
0.00994363
0.0102145
0.00601048
0.00637757
0.00740396
0.00578597
0.00578597
0.00678566
0.00547618
0.00547618
0.0102145
0.0069318
0.00567926
0.0091926
0.00537951
0.0102145
0.00589632
0.00968329
0.00664472
0.00578597
0.00650877
0.00537951
0.00757349
0.00968329
0.00557605
0.00757349
0.00740396
0.00708339
0.00537951
0.00578597
0.00994363
0.00528591
0.0104962
0.00994363
0.00637757
0.00557605
0.00664472
0.00724069
0.00724069
0.00528591
0.0107893
0.00528591
0.00832016
0.00537951
0.00637757
0.0104962
0.0107893
0.00812257
0.00757349
0.00547618
0.00678566
0.00757349
0.0102145
0.00557605
0.00708339
0.00812257
0.00793248
0.0102145
0.00873924
0.00708339
0.0069318
0.00873924
0.00793248
0.00678566
0.00740396
0.0091926
0.00793248
0.00832016
0.00968329
0.011094
0.011094
0.00612862
0.0069318
0.0091926
0.00625092
0.00537951
0.00774956
0.00567926
0.0114107
0.00896144
0.00873924
0.00625092
0.00873924
0.00994363
0.00994363
0.0104962
0.00650877
0.00708339
0.00625092
0.0085256
0.0114107
0.00757349
0.00832016
0.00724069
0.00943308
0.00793248
0.00812257
0.00612862
0.0117397
0.0117397
0.00812257
0.0117397
0.0117397
0.00612862
0.00740396
0.00219715
0.0117397
0.00274445
0.00237608
0.00408021
0.011094
0.00368635
0.00441946
0.0045614
0.00492545
0.00420808
0.00473115
0.00444119
0.00537834
0.00492545
0.0043259
0.00529452
0.00504928
0.00612862
0.00531663
0.0054488
0.00400941
0.00178075
0.00470593
0.00502151
0.00192112
0.0044651
0.00140462
0.00529703
0.00248035
0.00419342
0.00495579
0.00493271
0.00284253
0.00650877
0.0059907
0.00209308
0.00271381
0.00625092
0.00594436
0.00583419
0.0117397
0.004233
0.00401361
0.00605353
0.00454533
0.00587099
0.00465597
0.00626599
0.00103423
0.00500707
0.00661196
0.00646516
0.00518306
0.00531689
0.003763
0.0041673
0.00180513
0.00471205
0.00832016
0.00464706
0.00665975
0.00555592
0.00531689
0.00412085
0.00157642
0.00640812
0.00295443
0.0067472
0.00707594
0.00588399
0.00688631
0.00402855
0.00638493
0.000619969
0.00662982
0.00279605
0.00555193
0.00730086
0.00541667
0.00387256
0.00754319
0.00311883
0.000967589
0.00535146
0.000792171
0.00269513
0.00399171
0.00706774
0.00519704
0.00610068
0.00642927
0.00793248
0.00773044
0.00793248
0.00141438
0.00695879
0.00774641
0.00572761
0.0032035
0.00611969
0.00326378
0.0102145
0.00698104
0.00498323
0.00787738
0.00455426
0.00698104
0.0063128
0.00799733
0.00745313
0.000723406
0.0058752
0.00797825
0.00280284
0.00310596
0.00623466
0.00358015
0.00901343
0.00584017
0.00843895
0.00798862
0.00860109
0.00181845
0.00871091
0.00881408
0.000406016
0.00554588
0.0102145
0.0081583
0.00880667
0.0101149
0.0085472
0.0110864
0.00210471
0.0100422
0.00919272
0.0103025
0.0028455
0.00907622
0.00414231
0.00997668
0.00348492
0.00235938
0.00709713
0.00787389
0.0116816
0.00311601
0.00697102
0.00406213
0.0037521
0.00436164
0.00324574
0.00442674
0.00370487
0.00385012
0.00380049
0.00332248
0.00384961
0.00328381
0.00298962
0.00436164
0.00395331
0.00352637
0.00406213
0.00449373
0.00340181
0.00365875
0.00356956
0.00365875
0.00449373
0.00395331
0.00361367
0.00380049
0.00324574
0.0033618
0.00348404
0.0033618
0.0037521
0.00348404
0.00423684
0.00328381
0.00395331
0.00423684
0.00463368
0.00463368
0.004177
0.00348404
0.0037521
0.00456268
0.00406213
0.00395331
0.00370487
0.0037521
0.00385012
0.00442674
0.00385012
0.00324574
0.00442674
0.00456268
0.00328381
0.00456268
0.00370487
0.00352637
0.00344254
0.00324574
0.00328381
0.00406213
0.00370487
0.0047068
0.00463368
0.00449373
0.0033618
0.00390104
0.00463368
0.00463368
0.0047068
0.0037521
0.00324574
0.00352637
0.00478212
0.0033618
0.00478212
0.00390104
0.00328381
0.00411878
0.00436164
0.00370487
0.00365875
0.00456268
0.00352637
0.00436164
0.00370487
0.004177
0.00328381
0.00348404
0.00478212
0.00370487
0.00423684
0.00485976
0.00348404
0.00436164
0.00380049
0.00332248
0.00400699
0.00411878
0.00348404
0.00456268
0.00385012
0.00395331
0.00344254
0.00436164
0.00485976
0.00356956
0.00352637
0.00385012
0.00436164
0.0033618
0.004177
0.00485976
0.00352637
0.0033618
0.00332248
0.00395331
0.00365875
0.00406213
0.00340181
0.00493979
0.00493979
0.00411878
0.00332248
0.00493979
0.00406213
0.00390104
0.00356956
0.00449373
0.00365875
0.00456268
0.00356956
0.00436164
0.00390104
0.00463368
0.00328381
0.00436164
0.00324574
0.00502231
0.00436164
0.00502231
0.00344254
0.00365875
0.00395331
0.00348404
0.00348404
0.00485976
0.004177
0.00502231
0.00423684
0.00478212
0.00352637
0.00502231
0.00390104
0.00502231
0.00370487
0.00332248
0.0047068
0.00400699
0.00442674
0.00361367
0.00429836
0.00478212
0.00436164
0.0033618
0.00390104
0.00361367
0.00485976
0.004177
0.00400699
0.00478212
0.00344254
0.00478212
0.00510743
0.00463368
0.00436164
0.00510743
0.00456268
0.00370487
0.00449373
0.00423684
0.00365875
0.00519526
0.00485976
0.00400699
0.0033618
0.00485976
0.00519526
0.00352637
0.00385012
0.00344254
0.00365875
0.00519526
0.00365875
0.00478212
0.00478212
0.00519526
0.000365445
0.0037521
0.000216871
0.0008089
0.00183519
0.00502231
0.00205346
0.00117146
0.00201687
0.00180527
0.00154011
0.000783464
0.00324574
0.00270833
0.00254045
0.00179267
0.00230189
0.00280281
0.00291967
0.00323226
0.00138419
0.00278745
0.00519526
0.00324466
2.92184e-05
0.00263793
0.0033618
0.00348404
0.000804101
0.003248
0.00327513
0.00305112
0.00340181
0.00284839
0.0032604
0.00463368
0.00324791
0.000879111
0.00164463
0.00313111
0.0030977
0.00326006
0.0034774
0.00305044
0.00136093
0.00245287
0.00304601
0.00191093
0.00198065
0.00268396
0.00330913
0.00310607
0.00355965
0.00255113
0.0030791
0.00360346
0.00226131
0.00358689
0.00194407
0.00365875
0.00352237
0.00317422
0.00337763
0.00368157
0.00359632
0.00347651
0.00239494
0.00335062
0.00319073
0.00379999
9.59848e-05
0.00377569
0.00336216
0.00304028
0.00365751
0.00456268
0.00281078
0.0036728
0.00300513
0.00341937
0.00395156
0.00359824
0.00326522
0.00361648
0.00368562
0.00252273
0.00354151
0.00325106
0.00308362
0.003562
0.00351682
0.00379411
0.00374089
0.00392863
0.00109767
0.00388829
0.0037483
0.00411685
0.00284665
0.00270434
0.00368773
0.00302967
0.00285501
0.00275041
0.00259543
0.00411483
0.00375276
0.00417637
0.00335719
0.00423476
0.00210589
0.00138545
0.00308514
0.00177747
0.00336368
0.00404822
0.00265543
0.00382261
0.00409939
0.00428723
0.00307678
0.00417209
0.00415856
0.00411924
0.00346635
0.00363026
0.00331598
0.00449133
0.000176275
0.00385549
0.00382731
0.00300219
0.00444692
0.00436922
0.00302508
0.00199291
0.00426873
0.00429138
0.0032792
0.00347706
0.00469288
0.00344337
0.00313889
0.00364856
0.00357989
0.00454882
0.00256656
0.00244384
0.00299726
0.00519526
0.00475785
0.00487613
0.00361179
0.0045963
0.00233129
0.00227093
0.00276173
0.00263555
0.00266674
0.00269815
0.00276173
0.00242188
0.00279391
0.00279391
0.00295952
0.00233129
0.00230109
0.00289225
0.0024521
0.00236148
0.00276173
0.00299372
0.00236148
0.00227093
0.0025738
0.00221077
0.00266674
0.0022408
0.00227093
0.0025738
0.00233129
0.0025738
0.00236148
0.00227093
0.00299372
0.00221077
0.0022408
0.0022408
0.00254319
0.0029257
0.00299372
0.00266674
0.00227093
0.00251272
0.0029257
0.00285915
0.00279391
0.00306338
0.0022408
0.00251272
0.00276173
0.00239168
0.00233129
0.00266674
0.00239168
0.00242188
0.0025738
0.00272981
0.00239168
0.00254319
0.00227093
0.00306338
0.00302834
0.00233129
0.00299372
0.00306338
0.00218086
0.00285915
0.00302834
0.00263555
0.00248237
0.0024521
0.00266674
0.00248237
0.00227093
0.00242188
0.0029257
0.00239168
0.00254319
0.00285915
0.00285915
0.00260458
0.00295952
0.00285915
0.00285915
0.00266674
0.00254319
0.00279391
0.00272981
0.00227093
0.00272981
0.00263555
0.00254319
0.00236148
0.00289225
0.00236148
0.00309888
0.00269815
0.00251272
0.00266674
0.00218086
0.0021216
0.00230109
0.00269815
0.00282638
0.00242188
0.00276173
0.00215112
0.00263555
0.0021216
0.00254319
0.00282638
0.00251272
0.0022408
0.00279391
0.00242188
0.0029257
0.00263555
0.00239168
0.00309888
0.00242188
0.00272981
0.0025738
0.00276173
0.00236148
0.00302834
0.00295952
0.00279391
0.00279391
0.00272981
0.00313484
0.00295952
0.00260458
0.00313484
0.00242188
0.00313484
0.00218086
0.00289225
0.00239168
0.00230109
0.00233129
0.0021216
0.0029257
0.00239168
0.00276173
0.0021216
0.0029257
0.00272981
0.00276173
0.00282638
0.00272981
0.00289225
0.0021216
0.00272981
0.00313484
0.00227093
0.00218086
0.00236148
0.00236148
0.00215112
0.00215112
0.00221077
0.0021216
0.00299372
0.00263555
0.0022408
0.00215112
0.00317128
0.00242188
0.00236148
0.00282638
0.00215112
0.0022408
0.00317128
0.00233129
0.00317128
0.00269815
0.00317128
0.00317128
0.00276173
0.00317128
0.00266674
0.00218086
0.0029257
0.00317128
0.00269815
0.00320824
0.00320824
0.00309888
0.00279391
0.00242188
0.00299372
0.00272981
0.00218086
0.000624389
0.00119212
0.000891696
0.000917021
0.00101002
0.00147939
0.000459249
0.00269815
0.000953993
0.00279391
0.00126976
0.000903916
0.00150705
0.00221077
0.0016008
0.00135666
0.000775287
0.000967269
0.00210758
0.00202057
0.00214907
0.00184318
0.000676596
0.00148193
0.00191577
0.00197826
0.000550112
0.00210758
0.00121197
0.0017785
0.002125
0.00214036
0.00175362
0.00130241
0.00194002
0.00170654
0.00122694
0.00213848
0.00178846
0.00214812
0.00203355
0.00161117
0.00198263
0.00208445
0.00217445
0.000600036
0.00219738
0.00213914
0.00174132
0.00170817
0.000343401
0.0017508
0.000782207
0.00127896
0.000828598
0.00211489
0.000441512
0.00219929
0.00161953
0.00220593
0.00225215
0.00198857
0.00171271
0.00203853
0.00226052
0.00222735
0.000968978
0.00182271
0.00229978
0.00102104
0.00153138
0.00223474
0.00147786
0.00217832
0.0010592
0.00228319
0.0012413
0.00222363
0.0014708
0.00224565
0.00214066
0.00236133
0.00125265
0.00236153
0.00193158
0.00218809
0.00223889
0.00213989
0.00236153
0.00225229
0.000833731
0.00225247
0.00117726
0.00199114
0.00181567
0.00219012
0.00196996
0.00240499
0.000179941
0.00234351
0.00239431
0.00105904
0.00110846
0.00253889
0.00209141
0.00246275
0.00241018
0.00248568
0.00202108
0.00155372
0.00239701
0.00251156
0.000696466
0.00248235
0.00247738
0.00223428
0.00188124
0.00251189
0.0023048
0.00249934
0.00189447
0.00194579
0.00244986
0.0021135
0.00246483
0.0010928
0.00252727
0.00157302
0.00166689
0.00263334
0.00260381
0.000935979
0.00258712
0.00155194
0.0026633
0.00320824
0.00272617
0.00237465
0.000149602
0.00180763
0.00154364
0.00260377
0.00252144
0.00272981
0.0025905
0.00164739
0.0024929
0.0017324
0.00271368
0.00271368
0.00279391
0.00261196
0.00227967
0.00267388
0.00209618
0.000849175
0.00273161
0.00238851
0.00141248
0.00218302
0.00202754
0.00246854
0.00273471
0.00236219
0.00234481
0.0011394
0.00264749
0.00279846
0.00282614
0.00104284
0.00270593
0.00275979
0.00175616
0.00194671
0.00130462
0.00252756
0.00287956
0.00285405
0.002892
0.00282782
2.82498e-05
0.00261219
0.00281083
0.0026003
0.00290655
0.00289744
0.00113247
0.00291909
0.00173779
0.00103176
0.00241676
0.00196297
0.00277812
0.00268753
0.000609826
0.00301697
0.00256797
0.00190772
0.00246655
0.00309888
0.00291185
0.00320824
6.29558e-05
0.00306148
0.00305892
0.00309692
0.00309858
0.00148145
0.00316388
0.00284916
0.00295463
0.00317989
0.00252041
0.0013948
0.00158451
0.00160559
0.00178829
0.00152024
0.00187757
0.00174728
0.00156321
0.00166726
0.0018541
0.00135352
0.00152024
0.0013948
0.00154175
0.00141513
0.00137445
0.0016264
0.0018541
0.00166726
0.00147754
0.00197965
0.00192701
0.00170731
0.00200702
0.00154175
0.0013948
0.00158451
0.00156321
0.00178829
0.0016264
0.00160559
0.0013948
0.00164696
0.00141513
0.00170731
0.0018541
0.00200702
0.00141513
0.00197965
0.00137445
0.0016264
0.00154175
0.00178829
0.0018541
0.00200702
0.00172724
0.00183144
0.00170731
0.00192701
0.00195295
0.00133118
0.0013948
0.00130693
0.00170731
0.00187757
0.00141513
0.00166726
0.0016264
0.0016264
0.00187757
0.00200702
0.00170731
0.00158451
0.00187757
0.00203498
0.00145649
0.00158451
0.00174728
0.00180954
0.00154175
0.0016264
0.00180954
0.00164696
0.00147754
0.00170731
0.00137445
0.00176758
0.00195295
0.00195295
0.00166726
0.00187757
0.0018541
0.00203498
0.00200702
0.00156321
0.00156321
0.00133118
0.00197965
0.00203498
0.00197965
0.00160559
0.00147754
0.00183144
0.0018541
0.00168735
0.00180954
0.00130693
0.00152024
0.00166726
0.00130693
0.00145649
0.00137445
0.00187757
0.00137445
0.00195295
0.00174728
0.00141513
0.00166726
0.00168735
0.00178829
0.00158451
0.00180954
0.00143568
0.00195295
0.00143568
0.00158451
0.00180954
0.00158451
0.00156321
0.00176758
0.00192701
0.00178829
0.0014988
0.00195295
0.00166726
0.00137445
0.00137445
0.00203498
0.0018541
0.00137445
0.00141513
0.00206345
0.00180954
0.00143568
0.00206345
0.00130693
0.00158451
0.00190187
0.00130693
0.00170731
0.00197965
0.00176758
0.0016264
0.00147754
0.00156321
0.00203498
0.00168735
0.00137445
0.00158451
0.00200702
0.00141513
0.00180954
0.00135352
0.00130693
0.00178829
0.00147754
0.00206345
0.00197965
0.00203498
0.00147754
0.00178829
0.00203498
0.00180954
0.00160559
0.00187757
0.00160559
0.00172724
0.00190187
0.00135352
0.00206345
0.0016264
0.00141513
0.00197965
0.00178829
0.00206345
0.0016264
0.00166726
0.00143568
0.00141513
0.00160559
0.00178829
0.00152024
0.00137445
0.00160559
0.00170731
0.00190187
0.00178829
0.00185401
0.00166726
0.00203498
0.00147754
0.00143568
0.00135352
0.00152024
0.0014988
0.00135352
0.00174728
0.0016264
0.00130693
0.00137445
0.00160559
0.00158451
0.00170731
0.00197965
0.00197965
0.0014988
0.000176011
0.000469032
0.000313353
0.000465187
4.84662e-05
0.00187757
2.82691e-05
0.00141513
0.00130693
0.000793934
0.00084988
0.000852438
0.0013948
0.000557931
0.00112438
0.000709902
0.000581191
0.000801841
0.00174728
0.000361048
0.00126396
0.00122822
0.00130208
0.000722569
0.00121843
0.00200702
0.00127416
0.000245063
0.00129579
0.00100775
0.00156321
0.000226629
0.000830004
0.00133094
0.00127909
0.0012159
0.00128685
0.00112796
0.000543005
0.00131517
0.00125957
0.000359138
0.00121532
0.00122929
0.000401814
0.00126415
0.000523194
0.00133107
0.00130655
0.000743594
0.0011476
0.00209235
0.000673149
0.00134358
0.00122802
0.00105373
0.00147754
0.000990322
0.00172724
0.000976678
0.00178829
0.000857367
0.00105373
0.00123985
0.00129118
0.00131155
0.00132031
0.00164696
0.00136684
0.00136978
0.00133106
0.00101279
0.000791264
0.00136684
0.00137445
0.00104958
0.00104541
0.00137432
0.00117676
0.00125999
0.00136442
2.82595e-05
0.00127714
0.000748411
0.0013721
0.000748411
0.00129306
0.00132582
0.00048859
0.00174728
0.000457562
0.00139467
0.00111335
0.000333845
0.00098031
0.00209235
0.00123502
0.00140865
0.00127364
0.00139167
0.000258976
0.00136879
0.00141199
0.000351846
0.000709086
0.00138541
0.0013997
0.0014988
0.00131297
0.00158451
0.00137846
0.00141141
0.00132556
0.00134035
0.00120661
0.00138541
0.0013432
0.00126689
0.00117742
0.00122273
0.000465779
0.00117241
0.0014343
0.00141847
0.00141716
0.00126845
0.00112665
0.00107408
0.000675686
0.00105446
0.00145649
0.00108863
0.00141535
0.00102215
0.00145038
0.00139796
0.000856734
0.000794311
0.00139796
2.82492e-05
0.000922415
0.00145252
0.000803807
0.00134581
0.000834117
0.00141938
0.00122432
0.00145159
0.00141127
0.00137373
0.0014016
0.00115281
0.00192701
0.00117513
0.00121154
0.00118676
0.00120568
0.00147037
0.00143863
0.00149384
0.00141135
0.0013966
0.00148622
0.00062247
0.00138377
0.000649406
0.00130037
0.00113804
0.000179084
0.00180954
0.00150196
0.00133803
0.00147243
0.0012227
0.0015084
0.00150722
0.0015198
0.00133775
0.00137005
0.0014969
0.00146054
0.00176758
0.00154141
0.00124972
0.00209235
0.00148309
0.00142247
2.8249e-05
0.0014119
2.8249e-05
0.00148999
0.00129228
0.0015417
0.00138191
0.00145784
0.00143595
0.00120508
0.00139425
0.00146066
0.00155772
0.00154013
0.00152137
0.00183144
0.00154661
0.00209235
0.00153179
0.00209235
0.00155851
0.00149185
0.00108784
0.00206345
0.00150974
0.00156107
0.00102897
0.000982526
0.00156587
0.00155758
0.00158474
0.00159458
0.0015796
0.00159573
0.00157498
0.00114179
0.00159573
0.00158474
2.8249e-05
0.00120814
0.00159956
0.00157787
0.00122535
0.00161623
0.0016264
0.00154723
0.00162601
0.000654964
0.00192701
0.00163974
0.00143746
0.000982912
0.00146948
0.0012919
0.00162297
0.00163761
0.00190187
0.00112015
0.00164387
0.0013782
0.00164242
0.00140116
0.00190187
0.00112632
0.000871182
0.00164607
0.000157875
0.00125531
0.0016647
0.00136925
0.00165761
0.00165239
0.0014979
0.00151743
0.00166335
0.0010801
0.00144667
0.00144501
0.00167616
0.00128215
0.00161359
0.00149436
0.00168472
0.000939906
0.00167897
0.000921307
0.00152293
0.00174728
0.00106425
0.00146833
2.84119e-05
0.00151818
0.00170724
0.00141446
0.00145256
0.00169149
0.00164954
0.00136304
0.00167341
0.00152762
0.00107763
0.00172701
0.00171533
0.0010949
0.00172444
0.00148652
2.8249e-05
0.00174101
0.000977898
0.00172129
0.00117419
0.00209235
0.00140743
2.82702e-05
0.00162812
0.00100473
0.00174681
0.00108765
0.00117211
0.00170096
0.00145432
0.00174355
0.00176751
0.0016805
0.0018541
0.00161107
0.00209235
0.000675822
0.00160054
0.00153424
0.00149527
0.00177031
0.00178804
0.000562068
0.00173509
0.00150183
0.00172276
0.00106148
0.00103866
0.00119802
0.00165628
0.000562068
0.00200702
0.00129578
0.00178443
0.00179438
0.00112997
0.000769636
0.00118844
0.001381
0.00105782
0.00171476
0.00130295
0.00146262
0.00124472
2.8249e-05
0.00183223
0.00146922
0.00148065
0.00154644
0.00180635
0.000732529
0.0018642
0.000318121
0.00184569
0.00188631
0.00122308
0.00132505
0.00149027
0.00175331
0.00190047
0.00183469
0.000369591
0.00192701
0.000516714
0.00195133
0.00183946
0.00189279
0.000750929
0.00187407
0.00154632
0.00150249
0.00139774
0.00195286
0.00188532
0.00169066
0.000450879
0.0015438
0.00193431
0.00187637
0.00193095
0.00200528
0.00128261
0.00181991
0.00168377
0.00199114
0.00200528
0.000499693
0.00110761
0.00187717
0.00163543
0.00203498
0.00196451
0.00161229
0.00173442
0.00196876
0.00202319
0.00197334
0.00199062
0.00206334
0.00164415
0.00193395
0.00204746
0.00146567
0.00204746
2.8249e-05
0.0019746
)


// ************************************************************************* //
