/*--------------------------------*- C++ -*----------------------------------*\
  =========                 |
  \\      /  F ield         | OpenFOAM: The Open Source CFD Toolbox
   \\    /   O peration     | Website:  https://openfoam.org
    \\  /    A nd           | Version:  7
     \\/     M anipulation  |
\*---------------------------------------------------------------------------*/
FoamFile
{
    version     2.0;
    format      ascii;
    class       labelField;
    location    "0.14/lagrangian/reactingCloud1";
    object      cellId;
}
// * * * * * * * * * * * * * * * * * * * * * * * * * * * * * * * * * * * * * //


1200
(
4
30
20
87
51
47
19
158
51
84
120
81
155
153
154
153
188
113
184
222
217
215
368
257
258
295
476
364
358
395
394
397
429
469
461
504
573
568
566
569
611
607
602
606
608
681
677
639
672
673
715
705
707
748
780
737
779
841
868
865
864
865
862
890
942
949
977
973
970
1002
1003
997
1024
1021
700
800
1038
1033
1017
986
841
966
620
932
910
905
841
840
864
845
808
808
791
782
751
728
729
702
689
666
260
520
625
602
582
564
544
547
521
300
489
469
452
422
401
408
389
300
342
352
324
316
288
261
263
243
221
202
212
215
194
164
151
150
126
103
107
81
63
41
26
23
13
775
915
735
1035
1016
1016
938
957
978
1050
918
1029
989
877
796
816
925
901
898
883
840
850
830
676
696
759
787
761
697
771
698
702
658
708
682
671
617
648
598
629
580
585
565
543
553
523
504
464
456
444
459
443
395
408
419
384
1035
640
863
888
763
805
280
811
788
817
684
663
541
695
668
602
648
589
613
505
463
510
491
423
447
424
425
416
367
329
305
308
266
222
226
186
144
125
125
136
108
117
105
63
65
41
47
51
35
8
2
547
491
487
514
482
546
545
570
626
621
679
681
764
732
727
786
760
866
868
948
1001
1003
1006
397
999
401
380
360
391
366
349
341
326
324
307
279
227
200
169
165
174
43
116
163
32
204
29
291
153
80
249
29
374
319
196
193
192
193
276
145
141
191
236
142
143
189
361
184
236
318
182
273
271
224
271
313
270
357
527
264
354
264
266
310
566
395
309
482
344
344
393
345
392
392
386
391
433
430
432
429
469
561
679
472
599
470
514
512
467
512
466
468
512
513
509
510
512
730
507
552
553
593
549
592
547
547
587
592
585
591
590
627
674
629
624
761
672
714
665
670
714
710
709
707
752
750
752
748
750
793
746
837
793
792
793
834
834
834
831
873
831
868
870
869
872
875
864
872
913
912
910
907
914
953
954
25
25
11
10
139
9
4
21
23
22
18
6
169
95
39
170
172
41
17
39
38
200
59
36
128
38
59
38
176
34
56
92
57
53
56
163
89
156
196
161
161
159
156
193
192
264
191
229
264
227
228
229
220
262
298
332
289
295
293
323
331
364
328
359
398
434
391
399
435
433
430
430
469
468
464
466
502
536
607
496
535
531
535
571
569
602
604
598
597
696
729
693
659
692
655
661
690
659
724
689
689
717
749
745
748
748
780
777
746
746
772
799
860
862
866
894
895
888
892
924
922
904
923
919
953
954
946
949
983
1015
1028
1032
1033
1054
455
846
487
458
818
1032
1031
61
23
30
51
79
85
83
152
15
47
22
49
17
214
110
47
110
167
77
16
86
168
47
44
113
174
228
75
73
102
44
136
106
73
107
113
197
205
73
300
102
243
260
134
163
133
132
163
131
131
139
205
193
281
221
189
161
194
160
195
198
190
355
279
220
198
219
276
249
277
262
277
308
245
275
282
310
306
246
276
285
245
275
275
245
276
273
379
301
281
273
363
389
333
329
362
333
421
329
311
419
309
379
362
390
369
420
329
448
453
359
357
448
418
417
385
398
477
447
386
446
385
394
491
415
414
395
413
414
445
441
503
445
504
441
441
442
503
441
483
470
518
469
454
500
589
499
449
481
530
497
502
502
480
530
618
617
557
555
540
622
557
537
588
585
554
553
558
614
584
614
616
585
583
569
581
566
613
611
587
613
643
611
609
624
609
565
673
672
702
637
700
669
647
755
694
693
758
724
721
754
723
788
749
749
749
782
777
781
811
705
810
706
841
805
798
763
810
805
765
841
833
766
834
836
866
762
765
765
801
867
861
861
894
861
889
890
895
925
952
920
817
921
949
982
945
980
945
949
950
844
978
975
1006
1003
1001
1009
1001
1004
1007
899
1018
1019
1018
1012
936
1012
1029
903
927
937
1029
1026
1025
1022
1035
1035
1038
928
1040
216
970
957
1050
1049
1042
1048
1044
1056
188
1060
1060
1052
35
31
135
85
3
12
6
61
2
4
80
25
25
185
54
102
49
157
49
50
48
103
96
73
204
151
72
73
99
24
126
123
96
97
120
253
179
144
198
144
172
124
168
173
194
170
168
172
145
307
168
216
197
249
216
216
216
222
216
219
220
217
264
240
274
292
265
346
342
264
264
240
241
266
292
288
379
314
342
288
312
312
312
416
423
340
336
364
448
469
368
364
312
314
336
339
471
441
360
388
385
384
67
442
384
413
363
416
411
436
389
495
551
408
437
435
495
541
408
551
542
434
444
516
462
513
456
510
508
457
537
456
614
504
480
485
480
537
533
586
533
506
504
618
528
530
558
585
533
614
610
528
529
583
552
552
552
602
552
576
580
579
633
577
665
580
656
577
603
626
600
665
655
628
600
604
681
624
624
625
713
650
688
628
648
648
674
701
674
732
672
700
674
726
697
650
726
695
696
753
777
695
723
750
695
719
719
718
721
718
719
744
741
741
742
766
768
766
794
765
792
789
820
788
817
787
818
789
788
817
820
787
810
799
789
815
790
844
816
841
810
835
851
834
877
835
833
837
115
835
863
866
833
862
860
857
857
885
880
884
909
878
904
901
900
929
931
905
929
900
922
925
928
947
949
944
951
944
946
966
979
957
966
968
995
966
993
992
988
998
993
989
991
1008
990
990
989
1010
1010
1010
1024
1015
1015
1043
1032
1038
1036
1041
1036
1042
1032
1036
1032
639
822
420
159
354
424
188
465
497
589
651
625
683
129
703
815
906
876
909
183
703
1002
582
462
222
870
485
1026
)


// ************************************************************************* //
