/*--------------------------------*- C++ -*----------------------------------*\
  =========                 |
  \\      /  F ield         | OpenFOAM: The Open Source CFD Toolbox
   \\    /   O peration     | Website:  https://openfoam.org
    \\  /    A nd           | Version:  7
     \\/     M anipulation  |
\*---------------------------------------------------------------------------*/
FoamFile
{
    version     2.0;
    format      ascii;
    class       vectorField;
    location    "0.14/lagrangian/reactingCloud1";
    object      coordinates;
}
// * * * * * * * * * * * * * * * * * * * * * * * * * * * * * * * * * * * * * //


1200
(
(1.87144 0.142508 4.67171e-07)
(1.79714 0.11698 -3.73445e-07)
(1.80726 0.0642278 -2.29203e-07)
(1.76375 0.0838614 3.64032e-10)
(1.79215 0.0581223 1.50174e-07)
(1.7833 0.029943 -2.03844e-07)
(1.79745 0.0570858 -1.33715e-07)
(1.70583 0.106269 -6.91161e-07)
(1.7759 0.0580839 -1.65949e-07)
(1.76096 0.0640108 -2.29546e-08)
(1.72397 0.0883123 2.1407e-08)
(1.75389 0.0392256 5.05375e-14)
(1.70239 0.0910567 2.94257e-08)
(1.70554 0.0742829 1.44691e-07)
(1.70701 0.084496 2.92099e-09)
(1.71399 0.0779435 9.57804e-08)
(1.68148 0.0774919 5.4258e-07)
(1.71866 0.0422878 -8.2788e-14)
(1.67812 0.0469775 -2.59619e-14)
(1.65787 0.0650121 6.32676e-08)
(1.65643 0.031226 -1.37319e-13)
(1.65294 0.0193386 -7.47415e-14)
(1.56136 0.103784 -3.65422e-08)
(1.63038 0.0653577 8.29073e-10)
(1.62124 0.0755648 -8.06154e-08)
(1.60719 0.0873774 9.08195e-08)
(1.49641 0.112485 -8.39727e-07)
(1.5687 0.0804553 1.70433e-07)
(1.55975 0.0409996 -1.11479e-12)
(1.55032 0.0557145 -1.29371e-07)
(1.54816 0.0435835 -1.37177e-13)
(1.54092 0.0660688 -6.94031e-07)
(1.5197 0.0470889 -2.39173e-12)
(1.49419 0.0804272 -1.10285e-06)
(1.491 0.025065 1.44949e-13)
(1.47679 0.0786091 -5.40807e-07)
(1.43859 0.0744833 -1.15903e-07)
(1.44048 0.0355057 -2.8762e-12)
(1.43747 0.0262233 -1.04943e-12)
(1.43563 0.0469575 -4.1039e-12)
(1.41931 0.0895391 -1.41867e-08)
(1.41466 0.0673656 -2.64326e-07)
(1.42173 0.0338417 -2.99299e-12)
(1.42005 0.0615213 -3.97852e-08)
(1.41066 0.0734959 -4.3083e-07)
(1.38559 0.0952237 -7.49801e-08)
(1.38684 0.0725555 -1.06626e-07)
(1.39112 0.0427232 -2.17324e-13)
(1.38299 0.0385774 -2.84078e-14)
(1.38472 0.0409505 2.50951e-07)
(1.35947 0.0939157 1.73261e-08)
(1.36013 0.0312164 6.8446e-15)
(1.35431 0.0448471 -4.57566e-13)
(1.34956 0.0898551 -1.88425e-07)
(1.33512 0.0812474 2.86585e-07)
(1.33697 0.0192519 -5.45739e-15)
(1.31907 0.0702592 5.13202e-08)
(1.2925 0.0781161 4.96442e-07)
(1.28355 0.0781981 -1.07176e-07)
(1.28385 0.0563044 3.67995e-07)
(1.27365 0.0494648 -4.84876e-13)
(1.27249 0.0568267 4.44993e-08)
(1.26947 0.0365779 -4.92434e-13)
(1.25419 0.0419764 -4.51988e-13)
(1.23363 0.0310347 -1.12143e-13)
(1.22975 0.0779349 -1.31574e-08)
(1.22042 0.0850793 -5.55006e-09)
(1.21628 0.0576246 -1.30181e-12)
(1.20777 0.0360609 -3.75156e-13)
(1.20206 0.0739162 1.69614e-08)
(1.19692 0.078908 1.87445e-07)
(1.1941 0.0383417 -1.1204e-13)
(1.18986 0.0339466 -3.59143e-14)
(1.18792 0.0204887 -3.21393e-14)
(0.357434 0.132 -7.43547e-07)
(0.378953 0.132158 1.24492e-07)
(0.423919 0.0113621 1.10425e-11)
(0.421696 0.0462452 1.01858e-11)
(0.417882 0.0169648 3.95385e-12)
(0.417778 0.103604 -7.28555e-11)
(0.386752 0.132199 -1.18439e-06)
(0.411259 0.102813 3.80422e-11)
(0.338607 0.131268 1.51296e-07)
(0.402419 0.0581495 2.0241e-11)
(0.39953 0.0708212 1.74096e-12)
(0.399165 0.103781 4.87661e-12)
(0.389373 0.130054 2.75333e-08)
(0.386841 0.134309 -2.24526e-08)
(0.389559 0.108333 -1.03533e-10)
(0.384918 0.101126 -1.11312e-10)
(0.379619 0.0788432 -7.77078e-11)
(0.376619 0.0828457 -3.31762e-11)
(0.372433 0.0610402 -3.39223e-11)
(0.373084 0.122868 -3.12197e-11)
(0.364683 0.0544206 -3.09462e-11)
(0.361916 0.0802386 -9.45283e-12)
(0.357962 0.0688548 -1.47217e-11)
(0.35801 0.120507 -1.03158e-10)
(0.350988 0.0711415 -3.49673e-11)
(0.347354 0.0882062 -3.14207e-11)
(0.25183 0.128357 3.15397e-07)
(0.315342 0.124642 -3.15444e-07)
(0.335852 0.0935436 -5.58072e-12)
(0.333485 0.112069 -1.79589e-10)
(0.329974 0.11439 -5.19241e-11)
(0.324365 0.0998376 -4.9705e-11)
(0.320471 0.100719 -1.89289e-11)
(0.316788 0.0799605 2.70983e-11)
(0.31332 0.11724 1.40968e-11)
(0.261587 0.127383 4.49625e-07)
(0.304602 0.0682216 -8.75817e-12)
(0.300325 0.0686842 -7.51427e-12)
(0.296325 0.0501387 1.01609e-12)
(0.293057 0.115933 -1.94757e-11)
(0.288417 0.117311 3.63394e-11)
(0.284916 0.0716062 -3.62666e-11)
(0.280314 0.0704517 -4.05608e-11)
(0.263677 0.125531 -3.43528e-07)
(0.273329 0.115993 -8.23456e-12)
(0.26884 0.0463426 -1.88925e-12)
(0.264777 0.0999899 3.40938e-11)
(0.260048 0.0257645 -1.30827e-11)
(0.257315 0.077311 -1.03121e-11)
(0.25219 0.121261 -1.82167e-12)
(0.249225 0.10842 5.49357e-12)
(0.244432 0.107014 1.88862e-11)
(0.240601 0.120108 -8.44692e-13)
(0.236881 0.112942 2.45408e-11)
(0.236922 0.0502096 1.65082e-12)
(0.233188 0.0317026 -2.25302e-12)
(0.229416 0.0387022 -7.94664e-12)
(0.225258 0.0989067 -1.58158e-12)
(0.220533 0.0579223 -2.79746e-12)
(0.217456 0.0591965 -4.90469e-13)
(0.213093 0.0849958 -2.72893e-12)
(0.209352 0.107601 -8.74089e-14)
(0.205665 0.0838047 1.28955e-12)
(0.201354 0.116313 1.6646e-13)
(0.196695 0.105784 1.37455e-12)
(0.192832 0.122547 -1.2198e-14)
(0.188792 0.0857418 1.19989e-11)
(0.185366 0.104508 -1.11713e-13)
(0.180975 0.0411965 -1.70002e-14)
(0.512167 0.161444 5.52022e-08)
(0.540839 0.156285 6.26845e-09)
(0.504157 0.1618 3.44977e-08)
(0.566355 0.144169 -6.85675e-08)
(0.563515 0.142758 -1.66488e-08)
(0.564353 0.141379 3.65368e-08)
(0.543564 0.12575 1.35013e-07)
(0.550749 0.133381 -1.61409e-08)
(0.553212 0.125032 4.57708e-11)
(0.563133 0.036412 -2.8871e-13)
(0.543207 0.129172 -6.31884e-11)
(0.559367 0.0415552 -7.65989e-13)
(0.553633 0.0395105 -6.00594e-14)
(0.532497 0.134793 2.30688e-07)
(0.514841 0.146184 -1.23247e-07)
(0.520803 0.147926 4.79695e-07)
(0.538857 0.0716847 6.67726e-12)
(0.535734 0.105637 2.64023e-12)
(0.535837 0.132834 4.55108e-07)
(0.530643 0.0910792 5.44084e-12)
(0.52231 0.11666 1.36488e-11)
(0.522099 0.0354016 3.10312e-13)
(0.518843 0.0373271 1.83852e-11)
(0.492537 0.154019 -2.55353e-08)
(0.494767 0.148067 5.58895e-08)
(0.505685 0.122566 1.22837e-11)
(0.509019 0.0622741 3.14082e-12)
(0.506238 0.10848 1.8131e-11)
(0.493813 0.145852 -2.69004e-07)
(0.504507 0.0316415 1.46318e-13)
(0.495819 0.132355 1.34914e-10)
(0.496324 0.106022 4.40866e-11)
(0.486888 0.13633 1.85481e-11)
(0.492236 0.0525182 1.989e-12)
(0.491074 0.106647 1.79226e-10)
(0.487246 0.0299766 3.01977e-13)
(0.477176 0.14559 -1.58913e-08)
(0.481403 0.0496863 8.96733e-11)
(0.475165 0.137233 8.97267e-12)
(0.478043 0.0476333 1.78053e-11)
(0.471318 0.122714 4.51275e-11)
(0.469042 0.081499 1.15082e-10)
(0.466642 0.0813648 1.97321e-11)
(0.463067 0.0946012 -5.56696e-12)
(0.46122 0.0133693 2.41589e-12)
(0.457959 0.0903324 7.36526e-11)
(0.452098 0.0865143 4.72626e-12)
(0.446442 0.0872796 -1.22547e-11)
(0.446238 0.14636 -6.34476e-07)
(0.440748 0.0843737 -4.85101e-12)
(0.442968 0.121801 -1.06799e-11)
(0.438208 0.0892777 -3.23426e-11)
(0.433267 0.156311 -9.63589e-07)
(0.431426 0.0532477 3.92056e-11)
(0.434934 0.122223 -8.16679e-11)
(0.429068 0.0809037 -2.96386e-11)
(0.814976 0.0223389 -2.77004e-11)
(0.712667 0.107125 1.35512e-07)
(0.770503 0.0847855 6.54762e-07)
(0.775915 0.0584932 1.94981e-12)
(0.738881 0.0862579 -4.69487e-08)
(0.748934 0.0715517 -6.75683e-07)
(0.631707 0.130456 7.08941e-08)
(0.752232 0.041494 -6.36345e-11)
(0.744151 0.0575028 2.71122e-11)
(0.749723 0.0145132 -1.66888e-11)
(0.720114 0.0808318 1.83163e-11)
(0.713765 0.0873071 -1.22443e-07)
(0.686995 0.109948 -2.78193e-08)
(0.72258 0.0250791 5.98307e-12)
(0.714791 0.0647963 2.49296e-11)
(0.702355 0.0955337 1.18142e-07)
(0.711155 0.0624883 1.40103e-12)
(0.696535 0.0568936 -4.08376e-07)
(0.701203 0.0366941 3.69758e-13)
(0.679493 0.0844314 3.35508e-11)
(0.671652 0.0984441 -5.33443e-11)
(0.678445 0.0563025 1.29043e-12)
(0.671526 0.049879 4.23746e-12)
(0.658688 0.101674 -3.93945e-11)
(0.663329 0.0759754 -1.77409e-12)
(0.659329 0.0950718 2.86558e-11)
(0.659093 0.092011 -1.13745e-11)
(0.657072 0.0226453 -2.06291e-12)
(0.64875 0.0804752 -1.36564e-11)
(0.639269 0.0711139 2.16583e-11)
(0.633411 0.0947226 5.44784e-11)
(0.634024 0.0750553 4.07867e-11)
(0.62717 0.0900373 6.09032e-12)
(0.617142 0.117894 -1.47339e-07)
(0.616775 0.0964903 2.24315e-10)
(0.609497 0.0940938 -8.49016e-13)
(0.599444 0.10807 1.47112e-10)
(0.597025 0.106996 2.01089e-11)
(0.595003 0.105646 -3.38332e-12)
(0.596006 0.0237813 -2.92434e-12)
(0.592251 0.0836905 -6.47419e-12)
(0.590442 0.015132 1.29903e-11)
(0.589388 0.106299 -4.11558e-11)
(0.581967 0.122234 -9.48849e-11)
(0.581263 0.10867 2.75589e-07)
(0.579614 0.13986 1.87273e-07)
(0.580343 0.0928539 -2.52173e-11)
(0.577748 0.0652825 5.66057e-11)
(0.572925 0.030434 5.36578e-11)
(0.571099 0.0841777 7.5696e-12)
(0.570936 0.129823 -1.28388e-08)
(1.09764 0.0897657 -6.34604e-07)
(1.12512 0.0741527 1.89856e-07)
(1.12579 0.0500258 -1.30501e-13)
(1.12024 0.0474264 -8.0773e-14)
(1.1267 0.0188807 -1.53685e-13)
(1.10088 0.0835328 7.30926e-07)
(1.09666 0.0756269 -2.36262e-07)
(1.08778 0.0595546 1.59673e-07)
(1.07041 0.0749609 1.63959e-07)
(1.06276 0.044876 4.26348e-12)
(1.04236 0.0685013 -4.19652e-08)
(1.03841 0.0791768 3.93877e-08)
(1.0137 0.0926543 1.6794e-07)
(1.01597 0.0611808 -3.1078e-08)
(1.01897 0.0265277 1.3587e-11)
(1.00115 0.060674 -2.49179e-08)
(1.00508 0.066696 1.05523e-07)
(0.973827 0.0559358 7.62347e-12)
(0.966073 0.0697056 -1.59819e-07)
(0.939639 0.0630861 7.72923e-08)
(0.925765 0.0553397 -7.23809e-12)
(0.924198 0.0687589 1.18945e-07)
(0.920211 0.0862985 2.64406e-07)
(0.908066 0.0941209 -1.05775e-07)
(0.920952 0.0378315 2.72212e-12)
(0.907935 0.0735237 -5.00424e-08)
(0.896674 0.0796666 2.38676e-07)
(0.894253 0.0815824 -2.58376e-07)
(0.899389 0.0144633 1.95295e-13)
(0.88911 0.0409395 2.19115e-11)
(0.884759 0.0241384 8.59976e-12)
(0.882883 0.0761693 1.21556e-07)
(0.879407 0.0429527 1.99207e-11)
(0.877939 0.0558431 3.84418e-12)
(0.866586 0.0374687 -1.3737e-12)
(0.864086 0.0855896 -1.23703e-07)
(0.841373 0.0364574 -9.35407e-12)
(0.837173 0.0796307 1.56998e-07)
(0.824317 0.0561389 -1.55462e-12)
(0.822966 0.0777247 1.00875e-07)
(0.82042 0.0276293 -2.0071e-11)
(4.56428 0.178937 -2.28113e-07)
(4.389 0.141115 2.91982e-07)
(4.29282 0.165543 -1.15473e-07)
(4.57614 0.110578 -5.62434e-08)
(4.27033 0.163668 6.57219e-09)
(4.59443 0.088674 -5.30383e-07)
(4.11618 0.191782 1.75478e-08)
(4.29873 0.11215 -2.64536e-07)
(4.43882 0.115743 -2.25215e-07)
(4.18648 0.182048 -4.79438e-07)
(4.57036 0.0820864 4.77096e-07)
(3.99297 0.223223 1.19132e-07)
(4.08284 0.125098 -2.31867e-08)
(4.28468 0.116821 8.43459e-07)
(4.26622 0.0962879 -1.31486e-07)
(4.25591 0.0795352 -2.46475e-07)
(4.26711 0.0956056 -2.07403e-07)
(4.13125 0.0965691 3.72054e-08)
(4.34526 0.0395739 3.79935e-08)
(4.32524 0.0114 -3.97593e-07)
(4.27197 0.0768757 5.87806e-08)
(4.16829 0.100274 8.22743e-07)
(4.30189 0.0156179 -3.47113e-07)
(4.31511 0.0242437 -6.85964e-07)
(4.26751 0.0513702 7.89336e-08)
(4.01065 0.131515 7.22559e-08)
(4.26553 0.0129568 6.12878e-07)
(4.18954 0.103878 -1.65351e-08)
(4.07292 0.117859 1.9923e-07)
(4.26681 0.00234555 -4.82802e-08)
(4.1627 0.0716638 -7.09185e-09)
(4.16316 0.0541554 -1.0046e-06)
(4.21435 0.00585414 1.98298e-07)
(4.14152 0.0591765 -9.46456e-08)
(4.09973 0.0705848 -4.13704e-08)
(4.14237 0.0469425 -1.30114e-07)
(4.00423 0.107953 3.81009e-07)
(3.78383 0.159961 4.08971e-07)
(4.14637 5.34584e-05 7.42709e-08)
(4.04396 0.0842241 -2.04973e-08)
(4.13821 0.00039514 7.99241e-08)
(4.13234 0.0189794 -1.10146e-07)
(4.08549 0.0469693 4.0961e-07)
(3.73431 0.155102 -7.49655e-08)
(3.97654 0.093861 -2.89204e-07)
(4.06228 0.0344254 2.76002e-08)
(3.82611 0.134916 -3.08111e-07)
(4.04088 0.000524671 1.11732e-07)
(4.0228 8.42824e-11 -3.71302e-13)
(3.96037 0.0690566 -2.44943e-07)
(3.99494 0.00914777 -2.9576e-07)
(3.94966 0.0589772 -2.25458e-07)
(3.94204 0.0639767 4.45371e-07)
(3.9556 0.0156498 -1.44457e-07)
(3.93353 0.0498805 4.98855e-09)
(3.87736 0.0704653 5.3517e-07)
(3.90539 0.0474981 -8.25094e-08)
(3.87489 0.0612826 3.16014e-07)
(3.89655 0.0330762 -6.67196e-08)
(3.82712 0.0350973 -1.95472e-07)
(3.71794 0.128598 6.56518e-08)
(3.57542 0.119623 -9.59225e-08)
(3.83108 0.0609719 -8.84139e-09)
(3.69853 0.117043 1.63892e-07)
(3.846 0.0446374 -1.01607e-07)
(3.78379 0.0814935 -2.02797e-08)
(3.81245 0.0609515 -4.74748e-07)
(3.84581 0.0219799 -8.15588e-08)
(3.80651 0.058235 9.36611e-08)
(3.82997 0.0142786 6.10898e-08)
(3.82021 0.0297704 2.97069e-07)
(3.80673 0.059406 -1.58256e-07)
(3.78031 0.0691053 -2.71186e-07)
(3.78038 0.0375489 -3.05325e-07)
(3.79162 0.0436533 -1.44223e-08)
(3.77307 0.0588965 9.62308e-09)
(3.50485 0.177938 -5.64804e-07)
(3.79177 0.0246707 1.6213e-07)
(3.7415 0.0585277 1.17277e-07)
(3.70932 0.0683306 -1.54485e-07)
(3.69355 0.0669551 -1.60742e-07)
(3.73829 0.035092 1.86605e-08)
(3.6918 0.0617593 1.61218e-07)
(3.71195 0.0186636 -1.42813e-08)
(3.7039 0.0235508 2.77473e-07)
(3.6874 0.0221729 1.62978e-07)
(3.65873 0.0574473 -8.98444e-08)
(3.67351 0.00737687 -6.35496e-08)
(3.65078 0.0539136 -2.3437e-08)
(3.66156 0.0426396 -3.37915e-07)
(3.6209 0.0208864 -3.45359e-09)
(3.57895 0.0777997 -5.25747e-07)
(3.61537 0.0378663 -2.46423e-08)
(3.61515 0.000834704 8.53081e-08)
(3.46981 0.127222 -1.06216e-07)
(3.5702 0.0578794 -4.70582e-07)
(3.51525 0.0810177 8.22638e-08)
(3.53886 0.00968483 3.37563e-07)
(3.53924 0.0400097 -8.46335e-08)
(3.50827 0.0791024 -6.03287e-07)
(3.51135 0.044568 -2.20979e-09)
(3.5094 0.0325017 -1.01829e-07)
(3.51049 0.0240846 5.2004e-07)
(3.45994 0.0549413 1.48451e-07)
(3.46066 0.0417948 -9.24845e-08)
(3.44483 0.0590739 5.53822e-07)
(3.45117 0.0249438 1.89174e-07)
(3.43619 0.0439692 -4.85742e-07)
(3.42248 0.0689558 1.15025e-07)
(3.43704 0.0177056 -1.39231e-08)
(3.34843 0.100937 2.7278e-07)
(3.41542 0.0666362 -6.95381e-08)
(3.38841 0.0603522 -3.51946e-07)
(3.38199 0.0667398 -4.48218e-07)
(3.37202 0.0767599 4.27805e-07)
(3.36475 0.0721723 -1.88757e-07)
(3.35819 0.0744129 -1.04662e-08)
(3.34772 0.0482431 -9.98407e-08)
(3.32221 0.0682578 4.16679e-07)
(3.32842 0.0485384 -1.11311e-07)
(3.32461 0.0271317 -1.51812e-07)
(3.31936 0.0452123 2.28314e-07)
(3.31248 0.0370463 -6.90518e-07)
(3.30778 0.054723 9.28307e-08)
(3.30028 0.0857495 -3.05681e-07)
(3.30351 2.75415e-11 3.17897e-14)
(3.27875 0.0545063 -3.69044e-08)
(3.2546 0.0686768 6.59676e-08)
(3.24546 0.0553443 1.94761e-07)
(3.24641 0.0432938 4.35508e-08)
(3.24449 0.0207886 9.61442e-08)
(3.23387 0.07159 1.71661e-07)
(3.17854 0.0638954 -1.14864e-08)
(3.17718 0.0753541 -1.56811e-07)
(3.10025 0.0897813 -7.62348e-08)
(3.10527 0.0898551 -3.25595e-08)
(3.15901 0.079538 8.87841e-08)
(3.16961 0.0773345 2.11616e-07)
(2.89772 0.141416 2.4555e-07)
(3.15812 0.0618165 2.06518e-07)
(3.17519 0.0272931 1.81446e-07)
(3.12194 0.0587824 -2.69121e-08)
(3.0841 0.0719695 1.63891e-08)
(3.10899 0.0658307 9.37638e-07)
(3.12557 0.0302211 3.49675e-07)
(3.12947 0.0443491 5.16072e-09)
(2.87644 0.125608 8.72095e-08)
(2.96722 0.0906036 1.26544e-08)
(3.03914 0.055126 1.54866e-07)
(2.86384 0.128684 5.51389e-08)
(2.88522 0.137856 1.21933e-07)
(3.04737 0.0710855 8.72737e-08)
(3.09046 0.0279885 4.25872e-07)
(3.07051 0.0566719 -4.56888e-08)
(3.06616 0.0517969 -3.86028e-08)
(2.83822 0.110878 5.26263e-07)
(2.98808 0.0754872 3.1321e-07)
(3.06389 0.0351258 1.82111e-07)
(2.91551 0.0783832 6.60766e-08)
(3.03809 0.045458 -3.0602e-07)
(3.01056 0.0719405 -7.76205e-08)
(3.03414 0.0518397 1.25657e-07)
(2.86663 0.161794 -5.96411e-07)
(3.03324 0.0169006 -2.21679e-14)
(3.01541 0.0454539 -4.4348e-08)
(2.96222 0.0640015 -1.95404e-07)
(2.98947 0.0570408 -8.11746e-08)
(2.99885 0.0231639 -7.14932e-13)
(2.98832 0.0478603 2.14348e-08)
(2.85012 0.0907568 2.29935e-07)
(2.95924 0.0388561 2.00551e-08)
(2.86019 0.0342957 -3.87381e-08)
(2.81266 0.0764127 3.1646e-07)
(2.88226 0.0695724 -2.08845e-07)
(2.87899 0.0748843 -2.86651e-07)
(2.88643 0.0545227 -2.88187e-07)
(2.85469 0.0340371 -4.75765e-07)
(2.84517 0.0578167 -2.07518e-07)
(2.83616 0.0469066 -2.93669e-07)
(2.76133 0.082595 6.27188e-08)
(2.8269 0.0366849 1.904e-08)
(2.79719 0.0705144 2.56041e-07)
(2.74988 0.0751032 -1.92724e-08)
(2.78939 0.0515306 1.65401e-10)
(2.79643 0.0589814 3.57356e-07)
(2.76566 0.0705648 -2.28385e-07)
(2.78071 0.00868409 -4.91465e-14)
(2.74828 0.0623025 -1.3023e-07)
(2.69422 0.0773383 -5.10965e-07)
(2.66083 0.0795851 -7.84316e-08)
(2.71641 0.0125952 -2.82884e-12)
(2.69445 0.0533268 4.79449e-08)
(2.67826 0.0356577 1.77623e-07)
(2.65463 0.0120103 -1.10427e-06)
(2.6461 0.0709895 -6.22855e-08)
(2.62715 0.0620394 2.86277e-08)
(2.64023 0.0432291 1.11107e-07)
(2.59948 0.023421 2.64806e-07)
(2.5903 0.0607267 -2.10146e-08)
(2.55321 0.0785572 -1.94324e-07)
(2.58926 0.014599 -5.64522e-13)
(2.56401 0.0661286 -3.3694e-09)
(2.52647 0.0826649 1.75135e-07)
(2.51846 0.0703891 -9.18804e-07)
(2.54647 0.0444582 1.88826e-07)
(2.54393 0.0480337 -8.33643e-08)
(2.49772 0.082737 3.49992e-07)
(2.4864 0.0732743 -5.4018e-08)
(2.49261 0.0434334 1.86636e-07)
(2.47606 0.0596571 8.48047e-08)
(2.44773 0.0735067 -4.68564e-10)
(2.43265 0.0771999 1.85178e-07)
(2.36126 0.0932641 9.27611e-08)
(2.4402 0.0283914 -4.38046e-13)
(2.41954 0.0694445 -3.84273e-09)
(2.43407 0.0369384 -2.26958e-12)
(2.42068 0.0663644 -3.1703e-07)
(2.3784 0.0818063 4.68952e-08)
(2.39388 0.0678986 9.61211e-11)
(2.34624 0.058325 1.48074e-07)
(2.32833 0.0721994 2.02443e-07)
(2.33645 0.0281554 -8.29766e-15)
(2.33358 0.0238037 5.94522e-07)
(2.2492 0.107656 7.60451e-08)
(2.19369 0.124657 -1.70342e-07)
(2.24281 0.0884557 -1.68008e-07)
(2.28901 0.0493899 -8.63802e-08)
(2.24718 0.0785402 6.85453e-08)
(2.28022 0.0209108 -5.9977e-07)
(2.2764 0.0635157 -2.33085e-07)
(2.25237 0.0669083 -5.44702e-08)
(2.26019 0.0517665 -1.47021e-07)
(2.18902 0.101672 -2.35904e-07)
(2.24605 0.0615001 -3.4521e-08)
(2.23201 0.0602251 -1.19646e-07)
(2.2186 0.0478263 3.06805e-07)
(2.18422 0.0709973 1.8802e-08)
(2.18368 0.0430906 -4.39023e-08)
(2.17506 0.0621701 -5.265e-08)
(2.17186 0.0668371 -8.48749e-10)
(2.13027 0.0877256 -6.5148e-09)
(2.15149 0.0672189 -4.23288e-08)
(2.15734 0.0469633 -3.62877e-08)
(2.15826 0.0477744 1.97453e-07)
(2.13179 0.0300423 -5.27128e-14)
(2.10942 0.0167674 1.39168e-13)
(2.05445 0.0346242 -1.11419e-12)
(2.04736 0.0472357 2.35588e-07)
(2.02732 0.076127 5.20883e-07)
(2.02366 0.0729286 -8.98789e-07)
(2.0082 0.0811401 -2.67144e-08)
(2.01947 0.0275081 1.86935e-13)
(1.99901 0.0558147 -1.71101e-07)
(1.98422 0.0786865 -1.07392e-07)
(1.98435 0.063522 -5.26149e-09)
(2.00922 0.125437 -4.72861e-07)
(1.97464 0.0728377 -1.287e-07)
(1.97266 0.041777 -3.3546e-13)
(1.9504 0.0784049 1.19066e-07)
(1.94418 0.0886437 -4.83945e-07)
(1.95163 0.0295556 4.96908e-13)
(1.94989 0.04983 -3.11689e-08)
(1.93 0.0850012 3.71955e-07)
(1.88959 0.109998 3.81624e-07)
(1.87356 0.0255603 3.35602e-07)
(1.86096 0.0547196 -5.70507e-08)
(1.85993 0.0593556 2.09455e-09)
(1.82516 0.0612538 9.77939e-08)
(7.07975 0.290284 -2.23925e-07)
(5.34016 0.36297 9.49474e-08)
(6.96584 0.312625 9.96157e-07)
(7.05841 0.324152 -1.92152e-07)
(5.44491 0.242843 -5.10284e-08)
(4.59575 0.19091 4.03401e-07)
(4.5636 0.187558 -1.69147e-07)
(7.05483 0.17033 -5.77957e-08)
(7.16588 0.0857805 -2.3472e-07)
(7.14715 0.159985 5.36315e-07)
(7.08737 0.0764271 -3.19025e-08)
(7.04419 0.0619687 1.07346e-07)
(7.03747 0.129327 -6.21419e-07)
(7.05051 0.108056 -2.71477e-07)
(6.88374 0.18829 5.25839e-08)
(7.16813 6.72359e-10 5.36611e-12)
(7.10005 0.0266512 3.51544e-07)
(7.16404 0.070501 -4.9589e-07)
(7.07867 0.0536372 1.15027e-07)
(7.15999 0.021319 -3.33111e-08)
(6.7626 0.220159 -1.88178e-07)
(6.93709 0.0888924 3.03813e-07)
(7.08394 0.0306078 -2.88177e-08)
(6.91971 0.0839615 -2.15571e-07)
(6.83024 0.0726275 -3.23275e-07)
(7.04091 0.0428078 -1.06727e-07)
(7.17736 0.0142058 -4.9719e-07)
(7.02947 0.141389 -6.06188e-07)
(6.77748 0.0864974 -6.9621e-07)
(7.0566 0.0325481 -1.79439e-07)
(7.111 2.14822e-07 -7.15233e-10)
(6.97555 0.115862 1.14056e-07)
(6.7936 0.14828 5.55633e-08)
(6.66289 0.119626 -4.82423e-07)
(6.99685 0.0179969 1.77429e-07)
(7.04464 6.5775e-11 5.05579e-14)
(6.97811 8.808e-11 -4.78083e-13)
(7.06456 2.66557e-09 -4.37935e-12)
(6.89949 0.0471322 -1.075e-09)
(6.91946 0.040047 -6.42505e-09)
(7.01562 0.00103086 6.85642e-08)
(6.91856 0.0544509 -7.16395e-07)
(6.95906 0.120931 -3.56654e-08)
(6.72185 0.0853927 2.96913e-07)
(6.69842 0.157229 -8.53401e-07)
(7.00136 1.3814e-09 1.48999e-12)
(6.52883 0.237423 -3.33188e-07)
(6.90981 2.24913e-11 -4.72603e-14)
(6.62459 0.226091 3.04787e-08)
(6.60662 0.151618 1.00223e-06)
(6.84322 0.0262065 5.05056e-07)
(6.80005 0.0303775 5.17449e-07)
(6.86511 0.0164774 2.36782e-07)
(6.89678 0.0128611 -1.89283e-07)
(6.83292 0.0297813 -6.47175e-10)
(6.85214 5.59611e-11 -2.48348e-13)
(6.84644 0.00246388 -8.18601e-09)
(6.86836 0.0794757 3.97089e-07)
(6.70851 0.157195 -6.61735e-07)
(6.73386 0.0392915 -3.72954e-07)
(6.53361 0.0845161 5.76405e-07)
(6.68585 0.0424133 -2.05034e-08)
(6.71955 0.000543746 7.43442e-08)
(6.78224 0.00870721 -1.04797e-08)
(6.73456 0.0505656 7.0865e-07)
(6.76878 0.00404873 -3.23602e-07)
(6.71169 0.0634061 3.7769e-07)
(6.71345 0.0956954 -1.13905e-08)
(6.73294 0.00828931 2.92849e-08)
(6.38398 0.22867 3.15883e-07)
(6.51363 0.0593112 -4.40263e-08)
(6.66673 0.0321656 3.26129e-08)
(6.69961 0.0986609 1.84227e-07)
(6.64606 0.0203459 3.69268e-07)
(6.53647 0.0304403 2.08471e-07)
(6.60917 0.042309 -5.18458e-07)
(6.47774 0.0397761 1.76281e-07)
(6.57018 0.162232 5.03559e-07)
(6.52004 0.043205 -1.36358e-09)
(6.42471 0.0669858 3.55793e-07)
(6.6072 0.00595023 -1.03922e-08)
(6.50952 0.0213084 4.05268e-09)
(6.54546 0.0968694 1.05482e-07)
(6.44734 0.0900796 -7.3905e-08)
(6.4034 0.0508979 -9.88386e-08)
(6.5484 0.00837403 -1.02467e-07)
(6.5062 0.0278071 1.79131e-07)
(6.49778 0.125136 9.50886e-08)
(6.54838 2.15031e-12 7.54655e-15)
(6.50519 0.0202176 -2.88687e-07)
(6.49565 0.0222193 6.77361e-08)
(6.54787 3.53231e-09 -7.37762e-12)
(6.50748 0.0282472 -6.78672e-07)
(6.47729 2.94951e-11 4.6744e-14)
(6.27305 0.185768 -7.98942e-08)
(6.46184 3.59767e-10 1.45348e-13)
(6.52076 0.0804412 -6.53797e-08)
(6.4791 0.00417373 1.23166e-08)
(6.30922 0.0593347 -1.9433e-07)
(6.226 0.0422869 1.92335e-07)
(6.37748 0.0425562 1.57354e-07)
(6.39299 0.00447057 -1.38326e-07)
(6.26805 0.0434628 1.62464e-07)
(6.36031 0.0377941 1.56564e-07)
(6.12928 0.083722 -5.59531e-08)
(6.38449 0.00258553 7.36936e-08)
(6.43228 0.100131 -5.26616e-09)
(6.1816 0.0608359 6.18692e-07)
(6.40683 0.0843221 -6.81878e-09)
(6.29886 0.188012 3.0614e-07)
(6.30612 0.0433427 -8.09736e-08)
(6.22976 0.0497565 1.81457e-07)
(6.31992 0.118574 1.18223e-07)
(6.17546 0.0648894 -3.04675e-07)
(6.34101 9.86754e-11 5.22064e-13)
(6.08223 0.0636272 -9.28318e-07)
(6.08221 0.117601 -1.08294e-06)
(6.28544 0.0221372 -7.20293e-08)
(6.27465 7.4044e-11 -4.64834e-13)
(6.09645 0.062715 5.40766e-07)
(6.12491 0.0459783 7.9027e-08)
(6.15814 0.0403915 -5.67704e-08)
(6.21967 2.79648e-08 -1.71819e-10)
(6.23031 0.128878 2.09965e-07)
(6.03149 0.0743297 -9.59578e-08)
(6.077 0.0609755 -7.61769e-08)
(6.19112 0.0105005 -1.29236e-07)
(6.07354 0.0433851 -5.18536e-09)
(6.19217 0.00662134 -4.84968e-09)
(6.24195 0.0884007 -3.49279e-07)
(5.9914 0.182703 -1.1311e-07)
(6.16093 0.0235071 -1.29495e-07)
(6.15487 0.00948199 1.95713e-10)
(6.23375 0.105285 -5.04519e-07)
(6.15052 0.00118857 1.69379e-08)
(6.12959 0.01443 -1.38114e-07)
(6.05987 0.041388 1.08636e-08)
(6.10904 9.27157e-10 4.6099e-12)
(5.95926 0.0607086 4.41407e-07)
(6.05685 0.0413997 -2.37339e-07)
(5.92529 0.0706038 1.0169e-07)
(6.09765 9.68625e-11 -4.56739e-13)
(6.07423 4.8116e-11 2.91811e-13)
(6.0813 0.010276 1.90525e-07)
(5.96994 0.0534066 1.20653e-07)
(6.05611 0.00631229 5.24239e-08)
(6.04029 0.136848 -5.79341e-07)
(6.03846 0.00860412 1.4959e-07)
(5.94109 0.178866 -1.16522e-07)
(5.98171 0.00266447 -2.84005e-07)
(6.06773 0.126903 3.11114e-07)
(5.94904 0.0235161 1.70036e-07)
(5.75644 0.0707088 5.68922e-07)
(5.95755 0.0226973 -2.40787e-07)
(6.05828 0.0748973 1.96022e-07)
(5.99017 0.11517 -2.30431e-07)
(5.89878 0.0482967 -2.0143e-07)
(5.95635 2.44232e-11 -1.8471e-14)
(5.90447 0.0418872 2.81254e-07)
(5.90407 0.0490227 -4.79758e-07)
(6.03441 0.112771 1.16252e-07)
(5.88371 0.0461996 2.45896e-07)
(5.6731 0.0862652 7.37336e-07)
(5.65843 0.0781465 -1.87138e-07)
(5.78196 0.0346902 1.89855e-07)
(5.79894 0.017668 5.63157e-08)
(5.889 0.141446 2.67459e-08)
(5.65572 0.125279 -3.2156e-07)
(5.79819 0.0326848 4.10319e-07)
(5.89846 0.122195 2.54023e-08)
(5.7267 0.0696692 3.72108e-07)
(5.69631 0.0337411 -4.36358e-07)
(5.79026 0.0114659 -1.90478e-07)
(5.80358 6.24202e-11 4.43284e-13)
(5.76712 0.0437298 5.97053e-07)
(5.67281 0.0493327 -1.70259e-07)
(5.75044 0.0295096 4.33285e-08)
(5.68234 0.0461836 -2.32092e-07)
(5.62572 0.0667202 -9.63553e-08)
(5.71724 0.0328658 -1.61258e-07)
(5.73994 0.0187767 1.81509e-07)
(5.7908 0.150721 -7.61303e-08)
(5.7479 1.00569e-09 7.13617e-12)
(5.82658 0.122159 -3.31533e-07)
(5.66713 0.0400339 8.08626e-07)
(5.67301 0.0160447 -7.80789e-08)
(5.73136 0.0595044 -1.83918e-07)
(5.64795 0.0341881 -8.10421e-08)
(5.59242 0.0567934 2.7941e-07)
(5.65075 0.0154915 -9.44271e-07)
(5.64664 2.89082e-09 1.21155e-13)
(5.68655 0.141061 1.46094e-07)
(5.64109 0.000908122 4.35207e-07)
(5.76054 0.120562 1.44681e-06)
(5.50618 0.0732258 1.01615e-07)
(5.49146 0.0586231 -2.4591e-08)
(5.47331 0.0808667 3.25836e-07)
(5.57555 0.0065183 1.16679e-08)
(5.46891 0.0607892 -5.98689e-07)
(5.48983 0.0329482 -1.62867e-07)
(5.61567 0.0958392 -1.65066e-07)
(5.33471 0.0487059 -5.26162e-08)
(5.4332 0.010341 5.15351e-07)
(5.41165 0.002079 1.83888e-08)
(5.28492 0.0865422 2.40428e-08)
(5.37231 0.0298684 -3.18845e-08)
(5.36338 3.04596e-11 -1.83438e-13)
(5.29739 0.0396503 -2.37028e-07)
(5.36036 0.0148289 -1.16684e-07)
(5.23135 0.0974114 2.29316e-07)
(5.31549 0.000406425 -3.70231e-08)
(5.28806 0.00474876 -3.73088e-08)
(5.28043 0.00408772 7.92251e-08)
(5.22217 0.045726 3.6791e-07)
(5.26747 3.07329e-10 -2.36786e-12)
(5.25603 0.0334633 4.77169e-07)
(5.19547 0.0515596 -5.1033e-08)
(5.43089 0.111399 3.28895e-07)
(5.14925 0.0432103 1.87327e-07)
(5.41804 0.125908 1.26026e-07)
(5.12727 0.0731669 -1.11102e-07)
(5.15476 2.05765e-09 8.48232e-12)
(5.26713 0.166757 -1.10641e-06)
(5.32646 0.127935 4.29762e-07)
(5.13338 0.0418234 -3.28747e-07)
(5.14271 0.00577257 1.03022e-09)
(5.32554 0.141326 -4.94678e-10)
(5.06588 0.0671823 3.18352e-07)
(5.11045 1.38713e-10 7.96054e-14)
(5.30269 0.15004 -1.9438e-07)
(5.10332 0.00881811 6.24901e-10)
(5.08732 0.0234056 2.27338e-08)
(5.06371 0.0393322 1.13931e-07)
(5.31634 0.120282 1.64008e-07)
(5.28409 0.140341 2.30176e-07)
(5.30755 0.145609 4.74852e-07)
(5.23871 0.185196 2.02341e-07)
(5.01074 0.0503812 8.24323e-08)
(5.05567 0.00326464 -4.08639e-08)
(5.03527 0.000484248 -5.14664e-08)
(4.98485 0.0408378 -1.41364e-07)
(5.00449 0.00494928 8.4074e-08)
(4.98623 0.00473017 -1.34921e-08)
(4.9767 0.00888003 -8.58682e-08)
(4.93829 0.0464305 -2.12321e-08)
(4.90872 0.0688052 -9.97932e-08)
(4.83211 0.0586968 -1.33801e-07)
(4.87243 0.0245441 -2.91066e-07)
(5.15308 0.11375 -1.3217e-07)
(4.86773 0.0324731 -1.44927e-06)
(4.83154 0.0303174 -9.04277e-08)
(4.7917 0.0759515 -2.75454e-07)
(4.8393 4.83936e-12 3.69735e-14)
(4.78336 0.0560298 -1.66519e-07)
(4.83316 0.000221922 -9.28612e-08)
(4.81787 0.0354947 -3.31218e-07)
(4.81525 0.0398379 2.19046e-07)
(5.11629 0.100131 6.55772e-07)
(4.77131 0.041515 3.58299e-07)
(4.7623 0.0194717 -1.05476e-07)
(4.72591 0.0419942 3.22646e-07)
(4.72145 0.0193224 -4.56853e-07)
(4.72674 0.00248081 5.98574e-08)
(4.67921 0.0651911 2.33348e-07)
(4.69602 0.0032297 -1.63936e-07)
(4.68798 0.0260339 5.69087e-07)
(4.66706 0.0456321 -3.10256e-07)
(4.93998 0.0885765 9.63334e-09)
(4.63211 0.0489756 -5.99386e-10)
(4.6228 0.0574607 -4.98537e-07)
(4.62712 0.0464274 1.30535e-08)
(4.63022 0.000220817 -3.18595e-08)
(4.90984 0.153386 9.57949e-08)
(4.60949 0.000175296 -4.91193e-08)
(4.59355 0.0537316 -6.05566e-08)
(4.92995 0.122468 -1.77761e-07)
(4.87522 0.0936337 5.78656e-08)
(4.90117 0.159489 1.20361e-07)
(4.56791 0.0568487 1.60305e-07)
(4.58195 0.0309047 1.81906e-07)
(4.57879 0.0263652 -1.12846e-07)
(4.55433 0.000703583 2.6273e-07)
(4.53242 0.0239243 -2.66299e-07)
(4.52405 0.0243197 1.81962e-07)
(4.52065 0.0522477 -2.54097e-07)
(4.88738 0.0976152 6.96065e-07)
(4.49844 0.0677419 8.91393e-08)
(6.72055 0.241092 -2.38037e-07)
(4.81747 0.189976 2.53974e-07)
(4.82658 0.105982 -3.88906e-08)
(4.45186 0.0660426 -7.42919e-07)
(4.44147 0.0532093 1.06534e-07)
(4.44521 3.64458e-11 -5.53269e-14)
(4.4162 0.046105 4.60633e-07)
(4.41977 0.0175117 4.60711e-08)
(4.40383 0.0316909 -5.25098e-09)
(6.79566 0.249764 -5.78178e-08)
(4.3852 0.0631879 -5.77368e-08)
(4.36175 0.0630989 -2.44833e-07)
(4.35647 5.72067e-11 2.24586e-15)
(9.93163 0.150225 2.55303e-08)
(9.91174 0.0949985 2.92357e-07)
(9.71084 0.187625 -5.81058e-08)
(9.8396 0.169868 3.19638e-07)
(9.96697 0.0415336 2.11113e-07)
(9.97328 0.155391 -6.93649e-07)
(9.96321 0.0766103 -4.12618e-07)
(9.86783 0.170841 -9.20344e-07)
(10.0047 0.0240043 1.04313e-08)
(9.99493 0.0472172 4.6154e-07)
(9.85156 0.101506 5.24671e-07)
(9.94492 0.0118899 -2.28064e-07)
(9.91342 0.0139109 -1.42234e-07)
(9.62528 0.206359 1.15616e-06)
(9.88233 0.0728669 -4.45725e-07)
(9.79648 0.0734821 8.93437e-07)
(9.88539 0.0191667 -4.93313e-07)
(9.65847 0.164035 6.41023e-07)
(9.8756 0.0205685 -1.23553e-07)
(9.88341 0.02107 4.89857e-07)
(9.86708 6.49979e-08 2.88374e-10)
(9.76095 0.0937833 -3.25179e-08)
(9.77838 0.00744259 -4.96655e-07)
(9.842 0.015403 3.21579e-07)
(9.58348 0.149729 -1.40577e-08)
(9.68669 0.0968559 1.25588e-08)
(9.83749 6.9025e-09 4.73581e-11)
(9.81097 0.0180889 6.87008e-08)
(9.76109 0.0410932 -4.07255e-07)
(9.91193 2.67882e-08 1.57825e-10)
(9.73321 0.0781982 -9.6007e-08)
(9.70443 0.0420573 1.94594e-08)
(9.75849 0.00323417 -2.34435e-08)
(9.80333 0.0123749 6.3097e-07)
(9.73901 3.21644e-09 -4.40676e-13)
(9.43265 0.16024 -7.08378e-08)
(9.61422 0.140195 7.56771e-07)
(9.6855 0.00408752 -6.01205e-08)
(9.54657 0.0699349 5.86999e-07)
(9.67556 0.00804493 2.83086e-08)
(9.60069 0.0510663 -1.26381e-08)
(9.70794 0.0540939 3.64008e-07)
(9.64094 8.52643e-08 4.71995e-10)
(9.62201 0.0574964 1.74858e-08)
(9.57642 0.0302461 4.47593e-08)
(9.61853 0.0259274 8.10781e-08)
(9.61606 0.00781671 -4.28482e-08)