/*--------------------------------*- C++ -*----------------------------------*\
  =========                 |
  \\      /  F ield         | OpenFOAM: The Open Source CFD Toolbox
   \\    /   O peration     | Website:  https://openfoam.org
    \\  /    A nd           | Version:  7
     \\/     M anipulation  |
\*---------------------------------------------------------------------------*/
FoamFile
{
    version     2.0;
    format      ascii;
    class       scalarField;
    location    "0.14/lagrangian/reactingCloud1";
    object      d;
}
// * * * * * * * * * * * * * * * * * * * * * * * * * * * * * * * * * * * * * //


1200
(
5.26371e-07
8.58714e-07
2e-07
2e-07
2e-07
2e-07
2e-07
8.84042e-07
2e-07
2e-07
2e-07
2e-07
2e-07
2e-07
2e-07
2e-07
2e-07
2e-07
2e-07
2e-07
2e-07
2e-07
1.36595e-06
2e-07
2e-07
2e-07
8.57393e-07
2e-07
2e-07
2e-07
2e-07
2e-07
2e-07
2e-07
2e-07
2e-07
2e-07
2e-07
2e-07
2e-07
2e-07
2e-07
2e-07
2e-07
2e-07
2e-07
2e-07
2e-07
2e-07
2e-07
2e-07
2e-07
2e-07
2e-07
2e-07
2e-07
2e-07
2e-07
2e-07
2e-07
2e-07
2e-07
2e-07
2e-07
2e-07
2e-07
2e-07
2e-07
2e-07
2e-07
2e-07
2e-07
2e-07
2e-07
2e-07
2e-07
2e-07
2e-07
2e-07
2e-07
2e-07
2e-07
2e-07
2e-07
2e-07
2e-07
2e-07
2e-07
2e-07
2e-07
2e-07
2e-07
2e-07
2e-07
2e-07
2e-07
2e-07
2e-07
2e-07
2e-07
2e-07
2e-07
2e-07
2e-07
2e-07
2e-07
2e-07
2e-07
2e-07
2e-07
2e-07
2e-07
2e-07
2e-07
2e-07
2e-07
2e-07
2e-07
2e-07
2e-07
2e-07
2e-07
2e-07
2e-07
2e-07
2e-07
2e-07
2e-07
2e-07
2e-07
2e-07
2e-07
2e-07
2e-07
2e-07
2e-07
2e-07
2e-07
2e-07
2e-07
2e-07
2e-07
2e-07
2e-07
2e-07
2e-07
2e-07
2e-07
2e-07
2e-07
2e-07
2e-07
2e-07
2e-07
2e-07
2e-07
2e-07
2e-07
2e-07
2e-07
2e-07
2e-07
2e-07
2e-07
2e-07
2e-07
2e-07
2e-07
2e-07
2e-07
2e-07
2e-07
2e-07
2e-07
2e-07
2e-07
2e-07
2e-07
2e-07
2e-07
2e-07
2e-07
2e-07
2e-07
2e-07
2e-07
2e-07
2e-07
2e-07
2e-07
2e-07
2e-07
2e-07
2e-07
2e-07
2e-07
2e-07
2e-07
2e-07
2e-07
2e-07
2e-07
2e-07
2e-07
2e-07
2e-07
2e-07
2e-07
2e-07
2e-07
2e-07
2e-07
2e-07
2e-07
2e-07
2e-07
2e-07
2e-07
2e-07
2e-07
2e-07
2e-07
2e-07
2e-07
2e-07
2e-07
2e-07
2e-07
2e-07
2e-07
2e-07
2e-07
2e-07
2e-07
2e-07
2e-07
2e-07
2e-07
2e-07
2e-07
2e-07
2e-07
2e-07
2e-07
2e-07
2e-07
2e-07
2e-07
2e-07
2e-07
2e-07
2e-07
2e-07
2e-07
2e-07
2e-07
2e-07
2e-07
2e-07
2e-07
2e-07
2e-07
2e-07
2e-07
2e-07
2e-07
2e-07
2e-07
2e-07
2e-07
2e-07
2e-07
2e-07
2e-07
2e-07
2e-07
2e-07
2e-07
2e-07
2e-07
2e-07
2e-07
2e-07
2e-07
2e-07
2e-07
2e-07
2e-07
2e-07
2e-07
2e-07
8.99005e-07
1.08978e-06
8.81078e-07
1.89037e-06
8.99593e-07
1.59066e-06
5.00184e-07
1.47998e-06
2.84154e-06
9.78169e-07
7.6344e-07
7.2967e-07
9.27695e-07
1.58696e-06
2.5456e-06
2e-07
1.22892e-06
2.59344e-06
2e-07
2e-07
2e-07
1.51985e-06
2e-07
2e-07
2e-07
1.49317e-06
2e-07
1.0487e-06
2.12951e-06
2e-07
2e-07
2e-07
2e-07
2e-07
2e-07
2e-07
1.465e-06
8.94677e-07
2e-07
9.84539e-07
2e-07
2e-07
2e-07
5.59291e-07
7.8607e-07
2e-07
1.42798e-06
2e-07
2e-07
2e-07
2e-07
2e-07
2e-07
2e-07
2e-07
2e-07
2e-07
2e-07
2e-07
2e-07
1.58151e-06
8.82588e-07
2e-07
1.79889e-06
2e-07
2e-07
2e-07
2e-07
2e-07
2e-07
2e-07
2e-07
2e-07
2e-07
2e-07
2e-07
9.03588e-07
2e-07
2e-07
2e-07
2e-07
2e-07
2e-07
2e-07
2e-07
2e-07
2e-07
2e-07
2e-07
2e-07
2e-07
2e-07
2e-07
2e-07
1.23337e-06
2e-07
2e-07
2e-07
2e-07
2e-07
2e-07
2e-07
2e-07
2e-07
2e-07
2e-07
2e-07
2e-07
2e-07
2e-07
1.42037e-06
2e-07
2e-07
2e-07
2e-07
2e-07
2e-07
2e-07
2e-07
2e-07
2e-07
2e-07
2e-07
2e-07
2e-07
2e-07
2e-07
2e-07
2e-07
2e-07
2e-07
2e-07
2e-07
2e-07
1.27169e-06
2.951e-06
2e-07
2e-07
9.46949e-07
2e-07
2e-07
2e-07
2e-07
2e-07
2e-07
2e-07
1.43041e-06
1.02482e-06
2e-07
1.0683e-06
9.48885e-07
2e-07
2e-07
2e-07
2e-07
1.94431e-06
2e-07
2e-07
2e-07
2e-07
2e-07
2e-07
6.17007e-07
2e-07
2e-07
2e-07
2e-07
2e-07
2e-07
7.3602e-07
2e-07
2e-07
2e-07
2e-07
2e-07
2e-07
2e-07
2e-07
2e-07
2e-07
2e-07
2e-07
2e-07
2e-07
2e-07
2e-07
2e-07
2e-07
2e-07
2e-07
2e-07
2e-07
2e-07
2e-07
2e-07
2e-07
2e-07
2e-07
2e-07
2e-07
2e-07
2e-07
2e-07
2e-07
2e-07
2e-07
2e-07
2e-07
2e-07
2e-07
2e-07
2e-07
7.23417e-07
2e-07
2e-07
2e-07
2e-07
2e-07
2e-07
2e-07
2e-07
2e-07
2e-07
1.11273e-06
1.08385e-06
2e-07
2e-07
2e-07
2e-07
2e-07
2e-07
2e-07
1.71537e-06
2e-07
2e-07
2e-07
2e-07
2e-07
2e-07
2e-07
2e-07
2e-07
2e-07
2e-07
2e-07
2e-07
2e-07
2e-07
2e-07
2e-07
2e-07
2e-07
2e-07
2e-07
2e-07
6.26873e-07
2e-07
2e-07
2e-07
2e-07
2e-07
2e-07
2e-07
9.37672e-07
2e-07
2e-07
2e-07
2e-07
1.15615e-06
7.69085e-07
3.20975e-06
1.37544e-06
1.04343e-06
1.12656e-06
9.37207e-07
1.8219e-06
1.62045e-06
1.50518e-06
4.29478e-06
2.2947e-06
1.96992e-06
1.67091e-06
1.31359e-06
2e-07
2e-07
1.38763e-06
7.97038e-07
2e-07
1.19492e-06
1.92958e-06
2e-07
2.02215e-06
2.43287e-06
2e-07
2e-07
3.20773e-06
1.99219e-06
2e-07
2e-07
3.76562e-06
2.31887e-06
2.13359e-06
2e-07
2e-07
2e-07
2e-07
2e-07
2e-07
2e-07
2.76597e-07
2.74899e-06
2.24232e-06
1.44537e-06
2e-07
1.29101e-06
2e-07
1.69247e-06
1.21696e-06
2e-07
2e-07
2e-07
2e-07
2e-07
2e-07
2e-07
2.99626e-06
2.19763e-06
2e-07
1.78918e-06
2e-07
2e-07
2e-07
2e-07
2e-07
2.89059e-06
2.50687e-06
2e-07
1.87106e-06
1.35747e-06
2e-07
2.62309e-06
2e-07
2e-07
2e-07
2e-07
2.07964e-06
2e-07
1.35866e-06
2e-07
2e-07
3.01865e-06
1.65e-06
2e-07
2e-07
2e-07
2.19945e-06
2e-07
2e-07
2e-07
2e-07
2e-07
2e-07
2.02722e-06
2e-07
2.60517e-06
2e-07
2e-07
2e-07
2e-07
2e-07
2e-07
2e-07
1.42376e-06
2e-07
2.39954e-06
7.63797e-07
3.47454e-06
3.34398e-06
2e-07
2e-07
1.80984e-06
7.05282e-07
2e-07
1.43151e-06
1.74663e-06
2e-07
2e-07
1.43263e-06
2e-07
2e-07
2e-07
1.73565e-06
1.28659e-06
2e-07
3.10334e-06
2e-07
2e-07
2.75391e-06
1.42235e-06
2e-07
2e-07
3.76042e-06
2e-07
2e-07
2e-07
2e-07
2e-07
2e-07
2e-07
2e-07
2e-07
2e-07
2e-07
2e-07
1.985e-06
2e-07
1.02553e-06
2e-07
2.48949e-06
2e-07
8.68108e-07
2e-07
3.86428e-06
1.86548e-06
2e-07
2e-07
2e-07
2e-07
2.02181e-06
2e-07
1.50014e-06
1.52467e-06
2e-07
2e-07
2.34127e-06
1.39384e-06
2e-07
1.83771e-06
2e-07
2e-07
2e-07
2e-07
2e-07
2e-07
2e-07
2e-07
2e-07
2e-07
2e-07
2.31092e-06
2e-07
1.68848e-06
2e-07
2e-07
3.40105e-06
2e-07
2e-07
2e-07
2e-07
1.29994e-06
2e-07
1.85961e-06
2e-07
2e-07
6.59146e-07
2e-07
2e-07
2e-07
2.41868e-06
2e-07
2e-07
2e-07
1.01258e-06
2e-07
2e-07
2e-07
2e-07
1.17327e-06
2e-07
2e-07
2e-07
2e-07
2e-07
2e-07
2e-07
2.38976e-06
2e-07
1.91947e-06
2e-07
2e-07
1.01273e-06
8.77887e-07
2e-07
2e-07
1.18791e-06
2e-07
2e-07
1.31315e-06
2e-07
2e-07
2e-07
1.78233e-06
1.46715e-06
1.52627e-06
1.13498e-06
2e-07
2e-07
2e-07
2e-07
2e-07
2e-07
2e-07
2e-07
2e-07
2e-07
2e-07
2.24083e-06
2e-07
2e-07
3.36604e-06
2e-07
2e-07
2e-07
2e-07
2e-07
2.2983e-06
2e-07
2e-07
2e-07
2e-07
2e-07
2e-07
2e-07
2e-07
4.25718e-06
3.1085e-06
2e-07
2e-07
2e-07
2e-07
1.23668e-06
2e-07
2e-07
1.56833e-06
1.25983e-06
1.59651e-06
2e-07
2e-07
2e-07
2e-07
2e-07
2e-07
2e-07
2.18533e-06
2e-07
1.33898e-06
9.4516e-07
1.93785e-06
2e-07
2e-07
2e-07
2e-07
2e-07
2e-07
7.54278e-07
2e-07
2e-07
2e-07
2.51094e-06
3.01619e-06
2.78938e-06
1.65638e-06
2.73997e-06
2.2244e-06
2.44412e-06
2.60511e-06
2.5644e-06
2.49687e-06
2.9423e-06
2.57007e-06
2.65245e-06
2.26376e-06
2.51281e-06
2.89733e-06
3.14122e-06
2.60768e-06
2.45378e-06
2.44449e-06
2.44864e-06
2.57817e-06
3.59908e-06
2.51477e-06
2.40941e-06
3.12542e-06
2.44103e-06
2.43458e-06
2.98442e-06
3.72857e-06
2.44386e-06
3.44556e-06
4.09126e-06
2.38767e-06
2.38883e-06
2.70002e-06
2.69408e-06
2.37785e-06
3.62778e-06
5.12672e-06
2.72075e-06
2.36443e-06
2.34598e-06
2.55393e-06
2.32857e-06
2.32572e-06
2.33136e-06
2.39413e-06
2.41334e-06
1.80584e-06
2.30555e-06
2.30939e-06
2.34839e-06
2.57697e-06
2.29668e-06
2.28322e-06
2.28899e-06
2.46115e-06
2.27932e-06
2.5382e-06
2.22608e-06
5.71895e-06
2.24206e-06
4.03286e-06
2.14061e-06
4.01682e-06
2.22494e-06
2.40425e-06
4.6134e-06
2.22218e-06
2.22365e-06
2.21481e-06
2.21392e-06
2.67974e-06
3.11088e-06
3.27463e-06
2.45919e-06
2.35944e-06
3.96551e-06
2.19182e-06
2.17646e-06
2.52098e-06
2.16819e-06
2.84262e-06
2.32022e-06
2.15032e-06
2.36482e-06
2.20445e-06
1.32039e-06
2.37744e-06
2.20814e-06
3.39344e-06
2.14378e-06
2.11582e-06
2.11343e-06
2.16698e-06
1.9738e-06
2.59156e-06
2.09182e-06
2.13467e-06
2.26545e-06
2.07677e-06
1.92444e-06
2.65391e-06
2.0614e-06
2.47632e-06
2.12025e-06
1.91811e-06
2.11791e-06
2.46223e-06
1.96786e-06
9.76223e-07
1.62239e-06
2.01862e-06
2.12136e-06
2.31951e-06
1.60104e-06
2.0306e-06
1.99226e-06
1.54262e-06
1.70352e-06
2.17381e-06
2.30067e-06
1.86008e-06
2.03682e-06
2.031e-06
1.92649e-06
2.54802e-06
2.66196e-06
1.92852e-06
2.89242e-06
2.03937e-06
3.63043e-06
3.4412e-06
1.89422e-06
1.84921e-06
1.90483e-06
3.73153e-06
2.59483e-06
2.04306e-06
1.77345e-06
6.72103e-06
1.84835e-06
1.12438e-06
1.82189e-06
1.80772e-06
3.86953e-06
3.89437e-06
1.94502e-06
2.36649e-06
2.07554e-06
1.80553e-06
1.78748e-06
3.1571e-06
1.77705e-06
1.76647e-06
1.76511e-06
4.78703e-06
1.73775e-06
1.72845e-06
2.50973e-06
6.0609e-06
2.81079e-06
1.71152e-06
1.38938e-06
1.8742e-06
3.65044e-06
1.93033e-06
2.04843e-06
1.77506e-06
1.65888e-06
2.17257e-06
2.62207e-06
2.00759e-06
1.63779e-06
1.57221e-06
3.41939e-06
1.57885e-06
1.57106e-06
1.56527e-06
1.90213e-06
1.81593e-06
1.48898e-06
2.1282e-06
1.52292e-06
1.50209e-06
2.2043e-06
2.03132e-06
1.61522e-06
2.02335e-06
1.46533e-06
2.35135e-06
1.73283e-06
3.79447e-06
3.88205e-06
3.03002e-06
3.30335e-06
1.40849e-06
1.39825e-06
3.08728e-06
2.38662e-06
1.35627e-06
1.58302e-06
2.59683e-06
1.33606e-06
1.4808e-06
1.31698e-06
1.32342e-06
1.60241e-06
1.31629e-06
6.12778e-06
1.56684e-06
1.24919e-06
1.23197e-06
1.22674e-06
1.34866e-06
1.97906e-06
1.47989e-06
2.54188e-06
2.69604e-06
3.44385e-06
1.28013e-06
2.98239e-06
3.6547e-06
2.43489e-06
1.0629e-06
4.13918e-06
1.24353e-06
1.04953e-06
2.07701e-06
2.43025e-06
1.02506e-06
3.02192e-06
1.89848e-06
1.21969e-06
2.07554e-06
1.17553e-06
2.32351e-06
1.50211e-06
1.94236e-06
8.93742e-07
1.10303e-06
1.71e-06
8.43415e-07
1.94306e-06
1.07249e-06
8.10488e-07
1.77954e-06
1.33939e-06
1.23946e-06
1.97542e-06
1.86175e-06
7.54835e-07
1.93541e-06
1.42002e-06
6.2336e-07
6.43824e-07
4.55723e-06
3.77115e-06
3.83817e-06
3.83739e-06
2.50472e-07
1.59029e-06
2e-07
2e-07
2.1801e-06
1.82944e-06
1.53027e-06
3.74484e-06
2e-07
2e-07
2.99492e-06
1.54468e-06
7.33877e-07
1.84902e-06
2e-07
1.70965e-06
2e-07
2e-07
2e-07
3.59398e-06
1.3477e-06
2e-07
2e-07
3.20106e-06
2e-07
1.31265e-06
1.31051e-06
2e-07
2.6329e-06
8.76001e-07
2e-07
2e-07
3.69572e-06
2e-07
2e-07
2e-07
2e-07
2e-07
2e-07
2.072e-06
2.46984e-06
2.53131e-06
2.00485e-06
2e-07
1.49906e-06
3.3993e-07
1.82001e-06
2.51382e-06
2.06691e-06
2e-07
1.06498e-06
2e-07
1.0893e-06
1.08082e-06
7.24397e-07
9.65493e-07
1.30403e-06
9.4902e-07
1.81961e-06
5.09256e-07
1.97421e-06
1.22002e-06
1.35248e-06
9.00893e-07
1.93493e-06
1.10237e-06
2.57369e-06
1.43504e-06
1.71748e-06
8.51973e-07
1.09224e-06
2.65659e-06
1.75651e-06
1.53714e-06
3.67626e-06
2.84132e-06
2.35006e-06
1.53816e-06
6.90437e-07
8.66228e-07
)


// ************************************************************************* //
