/*--------------------------------*- C++ -*----------------------------------*\
  =========                 |
  \\      /  F ield         | OpenFOAM: The Open Source CFD Toolbox
   \\    /   O peration     | Website:  https://openfoam.org
    \\  /    A nd           | Version:  7
     \\/     M anipulation  |
\*---------------------------------------------------------------------------*/
FoamFile
{
    version     2.0;
    format      ascii;
    class       labelField;
    location    "0.14/lagrangian/reactingCloud1";
    object      origId;
}
// * * * * * * * * * * * * * * * * * * * * * * * * * * * * * * * * * * * * * //


1200
(
1378
1375
1425
1413
1428
1380
1424
1421
1419
1429
1426
1436
1423
1405
1411
1434
1309
1439
1443
1441
1447
1448
1123
1444
1432
1438
1404
1445
1455
1454
1456
1442
1458
1427
1463
1451
1460
1467
1468
1466
1433
1435
1469
1465
1452
1374
1457
1471
1472
1459
1437
1475
1474
1450
1397
1478
1470
1462
1473
1479
1481
1464
1483
1484
1487
1476
1341
1485
1489
1482
1477
1490
1491
1492
1617
1623
1633
1634
1635
1636
1637
1638
1639
1640
1641
1642
1643
1644
1645
1646
1647
1648
1649
1650
1651
1652
1653
1654
1655
1656
1657
1658
1659
1660
1661
1662
1663
1664
1665
1666
1667
1668
1669
1670
1671
1672
1673
1674
1675
1676
1677
1678
1679
1680
1681
1682
1683
1684
1685
1686
1687
1688
1689
1690
1691
1692
1693
1694
1695
1696
1697
1698
1699
1488
1508
1527
1555
1565
1566
1575
1579
1582
1586
1585
1587
1589
1588
1584
1590
1593
1592
1594
1595
1596
1600
1601
1598
1599
1602
1604
1603
1597
1606
1605
1607
1608
1610
1609
1612
1611
1614
1613
1615
1616
1618
1619
1620
1621
1622
1624
1626
1625
1628
1627
1629
1591
1631
1630
1632
1533
1449
1516
1534
1531
1535
1431
1540
1539
1542
1538
1537
1517
1546
1543
1536
1544
1530
1549
1547
1545
1552
1554
1548
1553
1550
1551
1559
1556
1560
1558
1562
1561
1563
1564
1567
1568
1569
1570
1576
1574
1578
1572
1571
1541
1557
1577
1580
1583
1581
1573
1446
1486
1496
1497
1499
1480
1495
1498
1493
1503
1501
1494
1453
1502
1509
1506
1505
1510
1507
1512
1515
1511
1430
1440
1519
1513
1500
1504
1523
1522
1525
1514
1524
1521
1526
1461
1529
1518
1528
1520
1532
1054
1098
1094
1102
1134
1139
1086
1058
1107
1125
1120
1081
1104
1110
1147
1171
1161
1079
1178
1175
1186
1177
1187
1192
1190
1151
1164
1191
1162
1184
1179
1163
1201
1185
1194
1189
1182
1173
1202
1180
1077
1208
1209
1129
1195
1212
1174
1176
1213
1200
1223
1217
1214
1225
1220
1197
1207
1216
1228
1188
1205
1193
1206
1183
1229
1224
1199
1230
1235
1238
1232
1222
1219
1231
1237
1233
1140
1198
1218
1210
1144
1247
1236
1249
1211
1251
1227
1250
1240
1252
1241
1242
1221
1109
1215
1248
1244
1259
1254
1245
1265
1262
1268
1267
1253
1260
1148
1270
1263
1275
1243
1257
1273
1272
1239
1266
1256
1277
1234
1284
1285
1282
1281
1271
1276
1261
1279
1095
1286
1291
1290
1264
1288
1278
1255
1203
1280
1287
1269
1297
1296
1289
1293
1299
1302
1301
1246
1006
1295
1283
1160
1303
1308
1300
1305
1196
1294
1310
1204
1292
1306
1274
1258
1314
1312
1298
1311
1317
1315
1307
1319
1313
1145
1316
1321
1318
1323
1327
1329
1320
1332
1331
1326
1333
1328
1334
1338
1335
1325
1324
1344
1342
1347
1304
1330
1337
1350
1349
1352
1348
1357
1351
1336
1340
1358
1359
1354
1356
1364
1343
1362
1363
1346
1371
1365
1370
1366
1355
1361
1376
1377
1381
1322
1367
1226
1339
1383
1372
1368
1382
1379
1387
1345
1384
1386
1385
1388
1391
1392
1389
1369
1393
1395
1396
1400
1403
1407
1406
1402
1399
1398
1412
1410
1394
1408
1360
1390
1415
1401
1409
1418
1416
1353
1373
1414
1422
1417
1420
717
892
737
706
960
1060
1105
829
866
744
807
875
732
883
812
874
890
888
881
897
887
878
891
826
872
901
898
813
895
844
908
591
798
849
876
879
889
911
910
906
916
896
834
909
899
914
836
903
820
921
912
929
927
932
920
925
930
822
873
935
926
915
923
945
946
924
815
867
941
835
943
952
857
936
944
951
918
832
948
959
961
938
877
950
904
963
964
886
984
967
965
969
955
974
860
956
922
949
973
954
982
966
981
968
828
980
913
962
885
783
989
983
762
958
978
979
940
985
990
972
880
994
993
937
975
992
934
1000
987
917
893
1002
1008
676
976
1003
1007
1012
1010
1015
977
1013
997
1017
1014
1018
902
1016
751
995
933
1019
996
1024
931
928
1027
1028
1023
1025
971
1031
999
1030
1033
1022
942
1026
1041
919
1034
1032
1035
1042
1044
1021
1040
1037
1039
1049
1051
953
1036
630
1043
1055
1011
1038
1052
1059
991
907
1053
900
1029
1045
1064
1065
1046
1069
1004
1056
1068
1061
1050
1085
1062
1067
1071
1073
1091
1080
1066
1084
1097
1087
1090
986
1075
998
1074
1082
1020
905
1099
1100
988
1092
1088
957
1112
1111
1093
1005
970
1047
1001
1078
1072
1114
1115
1116
1122
1126
1121
1106
1108
1133
1009
1131
1135
1096
1127
1103
1137
1136
1130
1057
1143
1146
1149
1119
1138
1118
1154
1142
1113
1070
1152
1117
1150
1156
806
1158
1159
1089
1101
1048
1128
1166
1165
1157
1168
1170
1153
1063
1141
699
939
1083
1169
1172
1132
1155
1181
1124
667
947
1167
1076
493
433
405
320
537
553
561
418
551
555
532
558
556
549
570
545
460
513
575
578
512
577
522
557
552
345
426
579
533
459
583
546
503
590
593
544
573
598
543
504
587
610
595
596
569
560
612
606
615
592
603
607
621
599
608
594
627
597
602
620
622
576
633
559
617
567
629
613
496
631
635
638
614
624
584
589
538
637
542
636
651
600
625
609
574
623
644
645
497
604
647
605
656
652
663
658
650
523
660
672
648
655
300
483
669
659
683
670
673
601
680
396
632
657
671
664
684
246
682
571
478
679
539
691
695
572
689
675
662
640
616
668
582
634
701
697
711
562
654
585
704
685
702
507
705
710
646
628
718
643
548
721
692
661
678
713
693
639
694
696
709
581
674
734
580
735
626
739
727
715
731
641
708
720
736
688
666
733
745
752
618
741
750
742
757
746
726
743
756
547
760
749
747
687
611
714
690
765
724
653
698
759
772
728
764
773
775
780
774
766
719
770
782
788
768
796
754
784
738
755
725
794
665
748
730
804
723
795
786
776
769
802
758
649
787
779
791
761
799
790
805
781
771
810
642
792
816
797
364
793
808
811
823
801
818
817
825
712
763
716
729
824
821
840
833
778
837
842
767
848
845
819
847
830
803
809
846
841
800
863
753
681
870
858
785
854
851
839
852
740
862
831
865
703
827
864
882
677
884
838
722
814
869
861
855
856
871
843
859
850
868
853
894
373
447
568
187
505
381
388
397
534
454
619
472
586
515
563
700
565
588
707
438
686
777
416
531
485
789
234
321
)


// ************************************************************************* //
