/*--------------------------------*- C++ -*----------------------------------*\
  =========                 |
  \\      /  F ield         | OpenFOAM: The Open Source CFD Toolbox
   \\    /   O peration     | Website:  https://openfoam.org
    \\  /    A nd           | Version:  7
     \\/     M anipulation  |
\*---------------------------------------------------------------------------*/
FoamFile
{
    version     2.0;
    format      ascii;
    class       Cloud<passiveParticle>;
    location    "0.14/lagrangian/reactingCloud1";
    object      positions;
}
// * * * * * * * * * * * * * * * * * * * * * * * * * * * * * * * * * * * * * //

1200
(
(0.366928 0.316733 0.0177185 0.29862) 46033 91385 1
(0.212841 0.398232 0.142953 0.245974) 46116 91639 1
(0.481163 0.260063 0.0170666 0.241708) 46106 91534 1
(0.317655 0.275769 0.0760308 0.330546) 46197 91713 2
(0.0646313 0.048117 0.467741 0.419511) 46149 91620 2
(0.0743997 0.378334 0.461582 0.0856839) 46145 91612 2
(0.235885 0.0608416 0.378035 0.325238) 46105 91617 2
(0.441424 0.208109 0.278616 0.0718506) 46289 91900 2
(0.0380412 0.481683 0.194812 0.285465) 46149 91620 1
(0.428819 0.0520551 0.285478 0.233648) 46194 91710 2
(0.585477 0.208186 0.180047 0.0262902) 46242 91891 1
(0.777968 0.111167 0.0715319 0.0393333) 46191 91702 1
(0.390408 0.30514 0.0667281 0.237724) 46286 91894 1
(0.522229 0.179409 0.0596594 0.238702) 46284 91888 2
(0.50142 0.13113 0.249088 0.118363) 46285 91892 2
(0.20303 0.128486 0.275633 0.392851) 46284 91887 2
(0.499546 0.163444 0.250361 0.086649) 46328 91978 2
(0.167571 0.0405121 0.412987 0.37893) 46235 91877 2
(0.872555 0.0637463 0.0507875 0.0129109) 46324 91970 1
(0.0968136 0.337529 0.114572 0.451085) 46371 92062 2
(0.519504 0.186469 0.0541594 0.239868) 46366 92052 2
(0.345441 0.327769 0.235648 0.0911413) 46364 92048 1
(0.761152 0.119513 0.0664777 0.0528565) 46553 92428 1
(0.257147 0.371969 0.329193 0.0416917) 46415 92150 1
(0.139063 0.365585 0.414109 0.0812431) 46416 92239 2
(0.748283 0.125925 0.0872707 0.0385213) 46462 92244 1
(0.462693 0.269309 0.180546 0.0874525) 46688 92696 1
(0.471165 0.269508 0.123741 0.135585) 46549 92417 1
(0.320996 0.339861 0.13857 0.200573) 46543 92408 1
(0.130995 0.0225376 0.413553 0.432914) 46589 92497 2
(0.329394 0.340284 0.0591258 0.271197) 46588 92495 1
(0.671938 0.161996 0.00290879 0.163157) 46591 92502 2
(0.506548 0.23048 0.246345 0.016626) 46632 92586 2
(0.611232 0.202278 0.019345 0.167145) 46681 92769 1
(0.306206 0.372233 0.116809 0.204753) 46673 92753 1
(0.447096 0.277178 0.238185 0.0375404) 46725 92770 1
(0.663614 0.110098 0.167963 0.0583258) 46812 92946 2
(0.263094 0.214001 0.154811 0.368094) 46807 92934 2
(0.807593 0.0952389 0.0960384 0.00113015) 46805 92932 2
(0.362702 0.318999 0.0921609 0.226138) 46808 92938 1
(0.175888 0.342977 0.0695058 0.411629) 46859 93038 2
(0.637869 0.181295 0.172392 0.0084448) 46855 93032 1
(0.220106 0.195519 0.389624 0.19475) 46850 93022 2
(0.278093 0.253717 0.360565 0.107625) 46854 93030 2
(0.239333 0.311412 0.365983 0.0832718) 46856 93119 2
(0.42078 0.290097 0.0171426 0.27198) 46948 93215 1
(0.286022 0.373099 0.323312 0.0175673) 46944 93207 1
(0.173281 0.428001 0.226279 0.172439) 46896 93199 1
(0.702817 0.00448253 0.14447 0.148231) 46939 93197 2
(0.0242394 0.245279 0.242626 0.487856) 46940 93200 2
(0.044811 0.47797 0.341272 0.135947) 46992 93304 1
(0.800059 0.0907891 0.0918513 0.0173005) 46982 93371 2
(0.157457 0.317687 0.398177 0.126679) 46984 93375 2
(0.374669 0.315964 0.103426 0.205942) 47035 93389 1
(0.0015142 0.136899 0.367526 0.494061) 47077 93473 2
(0.206162 0.435243 0.090944 0.267651) 47024 93455 1
(0.151111 0.432072 0.262638 0.154179) 47076 93559 1
(0.881163 0.0538814 0.00522067 0.0597352) 47165 93650 2
(0.0635054 0.487227 0.44175 0.00751733) 47209 93737 1
(0.0275908 0.505009 0.290435 0.176965) 47206 93731 1
(0.690489 0.154777 0.0161215 0.138613) 47205 93730 1
(0.581076 0.215669 0.108703 0.0945521) 47206 93819 1
(0.211026 0.428387 0.00953908 0.351048) 47203 93813 1
(0.302691 0.360338 0.200333 0.136638) 47248 93903 1
(0.325073 0.234889 0.123648 0.316389) 47334 93987 2
(0.830518 0.0694728 0.018022 0.0819876) 47341 94001 2
(0.0491783 0.269089 0.21549 0.466243) 47386 94091 2
(0.602017 0.133858 0.0729719 0.191153) 47382 94083 2
(0.264399 0.397214 0.0346542 0.303733) 47379 94165 1
(0.120267 0.194046 0.439684 0.246004) 47428 94178 2
(0.552528 0.22372 0.104006 0.119746) 47429 94180 1
(0.394807 0.302605 0.295751 0.00683682) 47423 94168 1
(0.172304 0.417672 0.0394632 0.370561) 47467 94253 1
(0.442473 0.0488217 0.235374 0.273331) 47464 94247 2
(0.618753 0.106049 0.0845674 0.190631) 3100 96669 1
(0.132098 0.432229 0.000937385 0.434736) 3200 6218 1
(0.353172 0.231431 0.0474657 0.367931) 3438 6719 1
(0.0889082 0.107059 0.456115 0.347918) 3433 6673 2
(0.442462 0.142132 0.279516 0.135891) 3417 6642 2
(0.109429 0.437083 0.223828 0.229659) 3386 6617 1
(0.410299 0.117543 0.177324 0.294834) 3241 6296 2
(0.339058 0.189806 0.139711 0.331425) 3366 6540 2
(0.00869714 0.496586 0.421526 0.0731905) 3020 96673 2
(0.0662142 0.445371 0.0194016 0.469014) 3332 6474 2
(0.462659 0.268448 0.0485861 0.220307) 3310 6431 1
(0.708294 0.0869867 0.146256 0.0584637) 3305 6423 2
(0.0914244 0.348311 0.463975 0.0962894) 3241 6334 2
(0.18843 0.23641 0.406766 0.168394) 3240 6296 2
(0.268524 0.162543 0.197777 0.371156) 3264 6340 2
(0.178923 0.315966 0.0832879 0.421823) 3245 6303 2
(0.00438688 0.329127 0.512767 0.153719) 3208 6270 2
(0.0552918 0.250504 0.220882 0.473323) 3208 6232 2
(0.253204 0.328808 0.0433752 0.374613) 3191 6199 2
(0.202344 0.100777 0.297679 0.3992) 3182 6181 2
(0.0200115 0.489127 0.228616 0.262245) 3151 6123 1
(0.137994 0.428525 0.374002 0.0594793) 3128 6114 1
(0.222667 0.127317 0.254984 0.395033) 3129 6077 2
(0.0860341 0.456491 0.168575 0.288901) 3102 6025 1
(0.655788 0.171726 0.140363 0.0321234) 3089 6000 1
(0.597953 0.200808 0.114691 0.0865488) 3066 5957 1
(0.225186 0.277238 0.110309 0.387267) 2660 96691 1
(0.516285 0.216912 0.241892 0.0249114) 2920 5672 2
(0.0998591 0.220764 0.221422 0.457955) 3025 5874 2
(0.271288 0.290189 0.364886 0.0736361) 3002 5832 2
(0.695127 0.149177 0.0383594 0.117336) 2982 5829 1
(0.709291 0.145197 0.0281495 0.117362) 2964 5758 1
(0.620904 0.184348 0.0283419 0.166406) 2944 5755 1
(0.029217 0.329927 0.141718 0.499138) 2947 5722 2
(0.172525 0.0412406 0.371351 0.414883) 2921 5671 2
(0.5296 0.218865 0.0165341 0.235) 2700 96689 1
(0.882569 0.0524692 0.00623039 0.0587317) 2889 5610 2
(0.729122 0.135436 0.0410537 0.0943885) 2869 5571 1
(0.315497 0.337435 0.270008 0.0770595) 2852 5576 1
(0.0741164 0.462942 0.0837658 0.379176) 2822 5479 1
(0.152377 0.100042 0.42659 0.320991) 2801 5476 2
(0.187427 0.296916 0.406287 0.109371) 2808 5454 2
(0.170318 0.369301 0.0455396 0.414841) 2789 5415 2
(0.134764 0.382499 0.442523 0.0402134) 2700 5280 2
(0.0552884 0.472356 0.0923012 0.380055) 2742 5323 1
(0.353292 0.0364373 0.323354 0.286917) 2752 5345 2
(0.457016 0.262025 0.000732317 0.280226) 2724 5287 2
(0.0165963 0.491702 0.479352 0.01235) 2716 5273 1
(0.0425779 0.478711 0.159339 0.319372) 2688 5218 1
(0.42615 0.286925 0.0887138 0.198211) 2661 5165 1
(0.310626 0.343305 0.0469769 0.299092) 2663 5168 1
(0.466461 0.261245 0.187819 0.084474) 2643 5129 1
(0.786749 0.0766055 0.03002 0.106626) 2621 5087 2
(0.448432 0.268061 0.00547283 0.278035) 2602 5088 1
(0.178188 0.402585 0.286099 0.133127) 2612 5108 1
(0.182422 0.139002 0.269787 0.408789) 2615 5076 2
(0.00672088 0.491987 0.00465276 0.49664) 2594 5035 2
(0.643355 0.178322 0.107404 0.0709182) 2564 4978 1
(0.0513677 0.474316 0.19036 0.283956) 2551 4951 1
(0.338508 0.0374786 0.330746 0.293268) 2550 4951 2
(0.335293 0.197728 0.332354 0.134626) 2526 4904 2
(0.662088 0.168956 0.0148182 0.154138) 2503 4857 1
(0.00790359 0.495629 0.0109063 0.485561) 2507 4864 1
(0.0439787 0.174479 0.478011 0.303532) 2481 4816 2
(0.735795 0.0191668 0.112337 0.132701) 2463 4778 2
(0.0239137 0.488043 0.317361 0.170682) 2441 4736 1
(0.0625719 0.253668 0.478471 0.20529) 2426 4745 2
(0.382175 0.167967 0.308913 0.140946) 2423 4703 2
(0.747171 0.126414 0.0970062 0.0294081) 2413 4689 1
(2.67349e-05 0.499051 0.412106 0.0888157) 3840 96632 2
(5.24878e-06 0.499331 0.277727 0.222937) 3980 96625 2
(0.261778 0.368342 0.363942 0.00593916) 3800 96634 2
(0.0226516 0.368649 0.487724 0.120976) 4100 7973 2
(0.477767 0.261232 0.0435502 0.217451) 4081 7934 1
(0.15608 0.413474 0.108503 0.321944) 4081 7972 1
(0.137173 0.0847821 0.34392 0.434125) 4003 7781 2
(0.517813 0.0126589 0.241459 0.228069) 4022 7857 2
(0.481187 0.125229 0.259099 0.134485) 4043 7862 2
(0.316648 0.336525 0.0515106 0.295316) 4115 8000 1
(0.065201 0.456156 0.0963764 0.382266) 3983 7781 1
(0.474489 0.20424 0.0380919 0.283179) 4094 7959 2
(0.238272 0.0228522 0.383149 0.355727) 4054 7920 2
(0.186228 0.294849 0.406283 0.11264) 3942 7665 2
(0.232778 0.0516478 0.330577 0.384997) 3861 7504 2
(0.927878 0.0350274 0.00470466 0.0323902) 3881 7582 1
(0.334546 0.0295432 0.332656 0.303255) 3990 7759 2
(0.587519 0.157343 0.0428455 0.212292) 3966 7709 2
(0.180981 0.103433 0.306129 0.409457) 3963 7704 2
(0.283283 0.344872 0.323671 0.0481736) 3948 7674 1
(0.0637851 0.45683 0.338311 0.141073) 3905 7590 1
(0.67568 0.0957935 0.0543923 0.174134) 3915 7610 2
(0.684401 0.158064 0.112502 0.0450328) 3895 7572 1
(0.481206 0.258891 0.240328 0.0195741) 3741 7309 1
(0.0852552 0.268855 0.457007 0.188883) 3761 7312 2
(0.0409404 0.0656168 0.411726 0.481717) 3824 7432 2
(0.144432 0.413597 0.226983 0.214987) 3852 7487 1
(0.423032 0.150153 0.132556 0.294259) 3826 7436 2
(0.185871 0.403108 0.146197 0.264824) 3762 7311 1
(0.218203 0.00310447 0.387801 0.390891) 3836 7457 2
(0.282732 0.358975 0.121923 0.23637) 3763 7316 1
(0.122666 0.438802 0.0937026 0.344829) 3767 7322 1
(0.905841 0.0317004 0.0153996 0.0470593) 3723 7236 2
(0.14529 0.320808 0.0798128 0.454089) 3773 7333 2
(0.0553938 0.472709 0.383202 0.0886946) 3747 7283 1
(0.0847517 0.417875 0.179383 0.31799) 3736 7300 1
(0.305016 0.342273 0.188093 0.164618) 3682 7155 1
(0.0529203 0.455877 0.473432 0.0177706) 3713 7219 2
(0.593931 0.201473 0.151516 0.0530801) 3663 7157 1
(0.459418 0.270278 0.0870509 0.183252) 3694 7180 1
(0.189059 0.405407 0.0692502 0.336283) 3645 7084 1
(0.188197 0.326752 0.0788514 0.406199) 3650 7094 2
(0.19823 0.400817 0.052682 0.348271) 3630 7055 1
(0.088373 0.438493 0.0574367 0.415698) 3608 7050 1
(0.501813 0.212855 0.140379 0.144954) 3618 7070 1
(0.132602 0.433312 0.247927 0.186158) 3588 6975 1
(0.677259 0.0157686 0.145562 0.16141) 3569 6936 2
(0.0107436 0.487764 0.350487 0.151005) 3529 6896 1
(0.417717 0.291347 0.27735 0.0135863) 3521 6844 1
(0.741667 0.126758 0.078594 0.0529807) 3509 6857 1
(0.115566 0.169475 0.267093 0.447866) 3524 6847 2
(0.00249998 0.249313 0.238105 0.510082) 3508 6816 2
(0.116099 0.3674 0.0758953 0.440606) 3460 96651 1
(0.410792 0.268837 0.0245144 0.295856) 3473 6749 2
(0.20023 0.387955 0.38175 0.0300645) 3484 6769 1
(0.388199 0.200457 0.315923 0.0954208) 3449 6740 2
(0.385937 0.158336 0.149275 0.306452) 5155 10043 2
(0.274905 0.357314 0.161304 0.206477) 4760 9297 1
(0.239012 0.31731 0.390531 0.0531463) 4983 9738 2
(0.368936 0.217056 0.326085 0.0879228) 5008 9788 2
(0.0279711 0.263656 0.222048 0.486326) 4883 9499 2
(0.0279609 0.0553057 0.48556 0.431174) 4925 9585 2
(0.326711 0.32877 0.0307459 0.313774) 4400 8595 1
(0.434516 0.282896 0.153242 0.129347) 4931 9597 1
(0.433914 0.0906986 0.188181 0.287207) 4908 9548 2
(0.206713 0.104644 0.292363 0.39628) 4937 9607 2
(0.298577 0.300412 0.348681 0.0523304) 4804 9346 2
(0.146661 0.0404476 0.426321 0.386571) 4783 9305 2
(0.349272 0.163885 0.162465 0.324378) 4661 9065 2
(0.00538678 0.471172 0.262092 0.26135) 4815 9404 1
(0.0673903 0.316148 0.152252 0.46421) 4788 9313 2
(0.0862744 0.458535 0.18019 0.275001) 4722 9186 1
(0.8186 0.00965459 0.091139 0.0806067) 4768 9312 2
(0.00136076 0.494848 0.49587 0.00792102) 4709 9161 2
(0.955084 0.0223568 0.0211431 0.00141603) 4733 9244 1
(0.37692 0.311884 0.251759 0.0594365) 4625 8997 1
(0.0200232 0.207 0.496457 0.27652) 4583 8951 2
(0.825638 0.0248692 0.0885626 0.0609301) 4630 9043 2
(0.170537 0.138938 0.26711 0.423415) 4611 8967 2
(0.177099 0.134618 0.272625 0.415657) 4543 8834 2
(0.403335 0.0663304 0.229238 0.301096) 4567 8881 2
(0.390871 0.056671 0.30426 0.248198) 4544 8839 2
(0.416599 0.288576 0.0937243 0.2011) 4545 8838 1
(0.073204 0.418835 0.15146 0.3565) 4536 8860 1
(0.169794 0.401013 0.0628464 0.366347) 4487 8764 1
(0.299672 0.350442 0.0551203 0.294766) 4449 8652 1
(0.495886 0.119229 0.25147 0.133414) 4425 8607 2
(0.62189 0.189584 0.0821202 0.106406) 4428 8613 1
(0.104456 0.305972 0.45954 0.130032) 4386 8567 2
(0.176924 0.413536 0.000722958 0.408817) 4342 8445 1
(0.0249941 0.489755 0.478135 0.00711659) 4346 8451 1
(0.358234 0.246735 0.330373 0.0646581) 4306 8411 2
(0.173401 0.304054 0.411949 0.110596) 4264 8293 2
(0.277215 0.361557 0.0370296 0.324199) 4245 8254 1
(0.705923 0.145794 0.0373243 0.110958) 4245 8253 1
(0.0226306 0.296351 0.538077 0.142942) 4256 8314 2
(0.378914 0.298409 0.0314464 0.291231) 4228 8259 1
(0.152979 0.424378 0.22438 0.198262) 4237 8241 1
(0.034306 0.467877 0.449093 0.048724) 4225 8214 1
(0.334683 0.283234 0.0405737 0.34151) 4183 8132 2
(0.141755 0.418476 0.315161 0.124608) 4185 8136 1
(0.512878 0.244139 0.224069 0.0189144) 4161 8090 1
(0.127407 0.411229 0.453431 0.00793272) 4167 8140 2
(0.515297 0.211103 0.0318598 0.241739) 4171 8110 2
(0.109448 0.446386 0.00936589 0.4348) 4155 8081 1
(0.354904 0.322599 0.302632 0.0198661) 4128 8028 1
(0.434012 0.283637 0.0308766 0.251474) 4122 8016 1
(0.157397 0.105196 0.417825 0.319583) 47739 94885 2
(0.193892 0.403021 0.12493 0.278157) 47649 94618 1
(0.544587 0.133735 0.218884 0.102793) 47645 94697 2
(0.302218 0.354878 0.07878 0.264124) 47689 94697 1
(0.682884 0.17242 0.0478123 0.0968845) 47640 94687 1
(0.668715 0.165153 0.165409 0.000723601) 47738 94798 1
(0.00233436 0.515279 0.10611 0.376277) 47737 94881 1
(0.0120177 0.494097 0.277122 0.216764) 47779 94878 1
(0.298015 0.357976 0.164362 0.179646) 47869 95057 1
(0.150581 0.424838 0.294316 0.130264) 47864 95050 1
(0.735 0.132594 0.0690286 0.0633775) 47956 95232 1
(0.0802891 0.459864 0.0483705 0.411476) 47958 95236 1
(0.334484 0.215841 0.122175 0.3275) 48092 95503 2
(0.091507 0.471224 0.147731 0.289538) 48043 95493 1
(0.0715439 0.464526 0.287207 0.176724) 48038 95396 1
(0.554576 0.0798664 0.142934 0.222624) 48131 95582 2
(0.0418565 0.485868 0.33627 0.136006) 48088 95583 1
(0.11528 0.310862 0.149941 0.423917) 48262 95843 2
(0.28845 0.189321 0.346922 0.175307) 48264 95935 2
(0.575425 0.212237 0.186261 0.0260774) 48395 96112 1
(0.490969 0.152319 0.111257 0.245456) 48482 96283 2
(0.835408 0.00801643 0.0823861 0.074189) 48484 96290 2
(0.231231 0.337034 0.374622 0.0571124) 48487 96396 2
(0.500602 0.249628 0.170525 0.0792447) 5402 10539 1
(0.0321373 0.484076 0.184895 0.298892) 48480 96280 1
(0.69411 0.0148273 0.153552 0.13751) 5406 96391 2
(0.482545 0.216788 0.0337387 0.266929) 5385 10502 2
(0.128121 0.431893 0.31736 0.122626) 5365 10502 1
(0.84385 0.0717758 0.0339791 0.0503955) 5396 10564 1
(0.509807 0.196399 0.0322885 0.261506) 5371 10474 2
(0.655683 0.158833 0.0487686 0.136715) 5354 10480 1
(0.11652 0.390863 0.050061 0.442557) 5346 10425 2
(0.0682777 0.451087 0.271867 0.208768) 5331 10434 1
(0.453471 0.271322 0.241173 0.0340344) 5329 10430 1
(0.324087 0.0274059 0.310594 0.337913) 5312 10357 2
(0.241681 0.377172 0.311963 0.0691843) 5284 10340 1
(0.848649 0.0749207 0.000862518 0.0755673) 5232 10197 2
(0.188653 0.404772 0.383398 0.0231771) 5205 10182 1
(0.244853 0.377457 0.375486 0.00220403) 5169 10110 1
(0.633733 0.181449 0.137363 0.0474552) 5165 10102 1
(0.23212 0.114243 0.27004 0.383596) 5174 10081 2
(0.822397 0.0131184 0.0884676 0.076017) 43436 86279 2
(0.110105 0.302314 0.143353 0.444227) 43562 86444 2
(0.190495 0.406658 0.308083 0.0947632) 43611 86629 1
(0.415844 0.195546 0.0971488 0.291461) 43425 86170 2
(0.111582 0.214576 0.443646 0.230197) 43654 86630 2
(0.235565 0.144741 0.245308 0.374386) 43422 86163 2
(0.144634 0.427993 0.120624 0.306749) 43747 86814 1
(0.380888 0.049063 0.307692 0.262357) 43601 86609 2
(0.0456461 0.478507 0.413556 0.0622909) 43514 86348 1
(0.505486 0.247678 0.142818 0.104017) 43701 86724 1
(0.124747 0.430929 0.00776878 0.436555) 43422 86164 2
(0.238217 0.240765 0.375595 0.145423) 43838 87083 2
(0.190582 0.269181 0.403952 0.136285) 43779 86880 2
(0.0730652 0.474622 0.355269 0.0970436) 43646 86611 1
(0.191008 0.241877 0.403683 0.163432) 43643 86608 2
(0.141909 0.430602 0.42364 0.00384989) 43642 86604 1
(0.347919 0.149072 0.325465 0.177544) 43643 86608 2
(0.172886 0.414619 0.356654 0.0558406) 43732 86784 1
(0.115792 0.361044 0.11587 0.407294) 43593 86505 2
(0.494075 0.134647 0.250735 0.120543) 43589 86500 2
(0.466833 0.010659 0.266591 0.255916) 43641 86604 2
(0.115554 0.460409 0.00119179 0.422845) 43688 86783 1
(0.48253 0.300794 0.0656265 0.15105) 43590 86587 1
(0.769827 0.11681 0.0439963 0.0693669) 43591 86504 1
(0.00552107 0.313435 0.184823 0.496221) 43639 86598 2
(0.25663 0.37245 0.290406 0.0805139) 43825 86970 1
(0.0556056 0.320726 0.149812 0.473857) 43634 86588 2
(0.242673 0.379523 0.0917964 0.286008) 43688 86698 1
(0.300991 0.35031 0.0302199 0.318479) 43778 86878 1
(0.565153 0.389219 0.0447341 0.000893685) 43632 141038 1
(0.0687861 0.483666 0.26906 0.178488) 43729 86777 1
(0.053562 0.505721 0.355352 0.0853647) 43727 86773 1
(0.159947 0.104528 0.421524 0.314002) 43676 86674 2
(0.0827476 0.34489 0.457357 0.115005) 43727 86776 2
(0.162389 0.429422 0.157431 0.250758) 43773 86865 1
(0.745642 0.0652795 0.0675826 0.121496) 43726 86771 2
(0.619379 0.0660965 0.188155 0.126369) 43821 87049 2
(0.903396 0.0482543 0.0399396 0.00841035) 44007 87334 1
(0.0109974 0.00138373 0.300098 0.687521) 43720 189686 2
(0.0333008 0.198185 0.295601 0.472914) 43818 86955 2
(0.0944383 0.00148906 0.39399 0.510083) 43720 189686 2
(0.099567 0.451998 0.0369681 0.411467) 43722 86766 1
(0.641236 0.075877 0.109479 0.173408) 43770 86859 2
(0.473699 0.151058 0.262743 0.1125) 44050 87422 2
(0.109472 0.106065 0.444772 0.339692) 43863 87048 2
(0.206291 0.397493 0.187453 0.208763) 43769 86858 1
(0.47391 0.263289 0.256222 0.00657855) 43958 87323 1
(0.126864 0.00210872 0.00564677 0.86538) 43808 189774 2
(1.03439e-08 0.624714 0.375286 7.05276e-09) 43808 141214 1
(0.374266 0.250688 0.0632083 0.311837) 43861 87042 2
(0.304604 0.374262 0.250542 0.0705923) 43809 87025 2
(0.160588 0.420945 0.298667 0.1198) 43860 87040 1
(0.496388 0.113808 0.244564 0.14524) 43860 87127 2
(0.947275 0.0270574 0.00610368 0.0195643) 43854 87028 1
(0.113794 0.443259 0.0460117 0.396936) 43859 87038 1
(0.264039 0.386691 0.0660627 0.283207) 43905 87217 1
(0.419961 0.173334 0.289323 0.117383) 43902 87126 2
(0.17864 0.43405 0.081572 0.305738) 43904 87215 1
(0.0472365 0.478095 0.440543 0.034126) 43901 87122 1
(0.508807 0.252574 0.183433 0.0551862) 43945 87297 1
(0.507162 0.246565 0.0656557 0.180617) 44045 87410 1
(0.0491334 0.247853 0.474734 0.22828) 44175 87672 2
(0.647424 0.181385 0.105616 0.0655756) 43948 87303 1
(0.055509 0.481444 0.328063 0.134984) 44087 87493 1
(0.831219 0.0912438 0.0653896 0.0121476) 43946 87211 1
(0.53425 0.233573 0.00800997 0.224167) 43994 87310 1
(0.00297604 0.530664 0.408287 0.0580729) 43992 87303 1
(0.83831 0.0911834 0.0559551 0.0145514) 43943 87205 1
(0.213145 0.000164033 0.39317 0.393521) 43992 87304 2
(0.608398 0.19679 0.190016 0.00479583) 43942 87291 1
(0.267826 0.255748 0.338004 0.138422) 43944 87295 2
(0.205869 0.407715 0.135227 0.251189) 43992 87303 1
(0.688588 0.15622 0.0851409 0.0700517) 43993 87306 1
(0.70483 0.148299 0.0686742 0.0781971) 43989 87300 1
(0.741403 0.132284 0.0288601 0.0974537) 43990 87299 1
(0.408673 0.295982 0.0974721 0.197873) 43992 87304 1
(0.79464 0.102898 0.0866789 0.0157836) 44230 87782 1
(0.16505 0.284946 0.416828 0.133176) 43987 87296 2
(0.376463 0.071207 0.24068 0.31165) 44036 87392 2
(0.33053 0.345641 0.165552 0.158276) 44037 87481 1
(0.235817 0.386729 0.0660836 0.31137) 44081 87481 1
(0.634193 0.187759 0.0406454 0.137403) 44033 87385 1
(0.299472 0.25486 0.112427 0.333241) 44080 87479 2
(0.092527 0.454354 0.166202 0.286918) 44031 87382 1
(0.136916 0.141634 0.413451 0.307999) 44031 87469 2
(0.459272 0.191004 0.104243 0.245481) 44075 87469 2
(0.262729 0.36913 0.120795 0.247346) 44080 87480 1
(0.456801 0.252431 0.0205782 0.27019) 44073 87466 2
(0.216768 0.164284 0.379142 0.239806) 44079 87565 2
(0.605814 0.203762 0.130446 0.0599784) 44078 87563 1
(0.804045 0.0358875 0.0622227 0.0978452) 44119 87558 2
(0.414837 0.274148 0.0334124 0.277603) 44170 87659 2
(0.407668 0.297104 0.0376097 0.257618) 44121 87564 1
(0.213711 0.00168309 0.435531 0.349075) 44116 190082 2
(0.492865 0.171972 0.0850103 0.250153) 44265 87849 2
(0.497152 0.120933 0.131371 0.250545) 44168 87656 2
(0.0898021 0.346582 0.454135 0.109481) 44214 87750 2
(0.101041 0.296217 0.375494 0.227248) 44161 87729 2
(0.114808 0.449732 0.367525 0.0679345) 44166 87739 1
(0.524133 0.238998 0.021533 0.215336) 44214 87750 1
(0.591948 0.169152 0.203455 0.0354444) 44210 87742 2
(0.309685 0.346476 7.6522e-05 0.343762) 44209 87738 2
(0.0701288 0.445626 0.464607 0.0196388) 44207 87736 2
(0.0048929 0.430836 0.0679588 0.496312) 44256 87832 2
(0.779377 0.0308965 0.0796577 0.110069) 44254 87828 2
(0.558814 0.232266 0.205344 0.00357526) 44256 87919 2
(0.230542 0.38527 0.284627 0.0995604) 44252 87824 1
(0.23152 0.196177 0.366829 0.205474) 44254 87915 2
(0.292577 0.199476 0.166185 0.341762) 44301 87921 2
(0.0056831 0.497637 0.367464 0.129215) 44250 87822 1
(0.775432 0.112228 0.0768307 0.0355091) 44349 88020 1
(0.564453 0.225298 0.108688 0.101561) 44301 87921 1
(0.397926 0.113777 0.292991 0.195307) 44300 88007 2
(0.15168 0.449444 0.0371686 0.361707) 44301 88009 1
(0.234467 0.274569 0.122624 0.36834) 44346 88011 2
(0.165063 0.176091 0.242055 0.416791) 44346 88012 2
(0.689846 0.0418185 0.113392 0.154944) 44346 88012 2
(0.552027 0.224555 0.133471 0.089947) 44343 88006 1
(0.175094 0.244035 0.182859 0.398012) 44389 88097 2
(0.0689074 0.492565 0.139974 0.298553) 44343 88093 1
(0.0804694 0.459661 0.0517678 0.408102) 44384 88087 2
(0.136779 0.0753658 0.431649 0.356206) 44386 88094 2
(0.225471 0.166718 0.385661 0.222151) 44385 88092 2
(0.191962 0.276141 0.128658 0.403239) 44388 88096 2
(0.501062 0.25031 0.019273 0.229355) 44391 88104 1
(6.42235e-09 6.50671e-10 0.456168 0.543832) 44380 190346 2
(0.11148 0.447369 0.402202 0.0389488) 44388 88183 1
(0.443439 0.204514 0.277731 0.0743153) 44433 88188 2
(0.434222 0.283233 0.174062 0.108483) 44432 88184 1
(0.531563 0.234636 0.0895768 0.144224) 44430 88182 1
(0.742921 0.0791922 0.11837 0.0595172) 44427 88261 2
(0.283353 0.358238 0.0182551 0.340154) 44434 88188 1
(0.0848258 0.474944 0.189753 0.250477) 44477 88361 1
(0.0297305 0.33966 0.466675 0.163935) 44478 88363 2
(0.856788 0.0744846 0.00708493 0.0616423) 44568 88543 1
(0.934621 0.0338662 0.0252245 0.00628841) 44568 88455 1
(0.321839 0.197081 0.142488 0.338592) 44523 88366 2
(0.22922 0.0258457 0.385472 0.359462) 44522 88366 2
(0.167049 0.422351 0.0975104 0.313091) 44754 88915 1
(0.132569 0.309695 0.124759 0.432976) 44521 88362 2
(0.0517571 0.367796 0.147079 0.433368) 44516 88351 2
(0.239919 0.145232 0.244762 0.370086) 44564 88447 2
(0.186087 0.421839 0.146962 0.245112) 44566 88539 1
(0.779581 0.0317715 0.0796003 0.109047) 44565 88449 2
(0.0890077 0.457788 0.0245086 0.428696) 44561 88441 1
(0.0691956 0.465401 0.463756 0.00164722) 44518 88358 1
(0.243755 0.268759 0.377548 0.109938) 44794 88910 2
(0.464005 0.163759 0.267588 0.104649) 44700 88722 2
(0.29185 0.371377 0.116829 0.219944) 44608 88623 1
(0.504864 0.247716 0.172133 0.075287) 44795 88912 1
(0.389311 0.0717572 0.234778 0.304153) 44797 88913 2
(0.533369 0.233394 0.0526893 0.180548) 44610 88540 1
(0.449865 0.023447 0.273274 0.253414) 44560 88527 2
(0.384907 0.28314 0.0438326 0.28812) 44608 88535 2
(0.117012 0.225566 0.44076 0.216662) 44607 88536 2
(0.0862826 0.204683 0.456654 0.252381) 44835 88992 2
(0.112513 0.0839598 0.439414 0.364114) 44654 88715 2
(0.427786 0.118402 0.286007 0.167806) 44605 88532 2
(0.58049 0.210204 0.184605 0.0247011) 44743 88806 1
(0.247697 0.380776 0.32496 0.0465674) 44607 88621 1
(0.808507 0.0593829 0.0365964 0.0955132) 44654 88628 2
(0.0503301 0.474745 0.459313 0.0156124) 44607 88536 1
(0.397218 0.302017 0.109118 0.191647) 44801 88924 1
(0.0285648 0.485742 0.00758562 0.478108) 44603 88526 1
(0.371557 0.173822 0.141004 0.313617) 44651 88622 2
(0.990715 0.00501319 0.00165382 0.00261786) 44697 88801 1
(0.171737 0.271353 0.395428 0.161482) 44652 88711 2
(0.144976 0.428216 0.214057 0.212752) 44648 88616 1
(0.122642 0.426322 0.405923 0.0451139) 44651 88709 2
(0.0435614 0.0340854 0.47692 0.445433) 44788 88983 2
(0.717303 0.141549 0.0720129 0.0691358) 44694 88708 1
(0.380354 0.310064 0.253397 0.0561857) 44781 88884 1
(0.329494 0.335032 0.00789599 0.327578) 44831 88982 1
(0.508615 0.00653071 0.239357 0.245497) 44786 88892 2
(0.192564 0.237425 0.402869 0.167142) 44786 88894 2
(0.33513 0.353218 0.256364 0.0552881) 44784 88887 1
(0.247023 0.0977303 0.366176 0.289071) 44781 88969 2
(0.180388 0.0420794 0.370828 0.406704) 44828 88975 2
(0.589863 0.197463 0.0231699 0.189504) 44827 88973 2
(0.0019643 0.00457258 0.49905 0.494413) 44919 89160 2
(0.335057 0.333471 0.327985 0.00348686) 44826 88972 1
(0.36135 0.336179 0.277932 0.0245391) 44874 89067 1
(0.148686 0.198763 0.227423 0.425128) 44919 89158 2
(0.27889 0.220514 0.140683 0.359912) 44872 89064 2
(0.114439 0.1408 0.302027 0.442734) 44873 89066 2
(0.188029 0.406258 0.383549 0.0221648) 44874 89155 2
(0.821031 0.0895691 0.0601683 0.0292319) 44865 89052 1
(0.621507 0.186875 0.0140059 0.177613) 44917 89153 2
(0.825394 0.0877117 0.00484206 0.0820518) 44963 89246 1
(0.525147 0.117592 0.237083 0.120178) 45007 89336 2
(0.111378 0.52482 0.307574 0.0562273) 44954 89227 1
(0.845632 0.0784068 0.0600643 0.0158966) 44960 89327 1
(0.0785662 0.470604 0.35389 0.0969391) 44958 89323 1
(0.523171 0.245054 0.208761 0.0230134) 44998 89316 1
(0.52986 0.0579833 0.231829 0.180327) 45006 89419 2
(0.388926 0.214068 0.1047 0.292306) 45049 89417 2
(0.247745 0.382472 0.299012 0.0707714) 45003 89413 1
(0.257124 0.398666 0.149827 0.194382) 45044 89495 1
(0.194965 0.428736 0.370056 0.00624313) 45093 89505 1
(0.0392837 0.23955 0.252638 0.468528) 45139 89597 2
(0.246907 0.108348 0.286784 0.35796) 45086 89491 2
(0.327863 0.336291 0.0849332 0.250912) 45094 89508 1
(0.608586 0.195583 0.00035247 0.195479) 45140 89600 1
(0.204939 0.15213 0.38839 0.254541) 45138 89683 2
(0.380077 0.331836 0.240534 0.047553) 45135 89589 1
(0.185449 0.161436 0.406734 0.246381) 45135 89592 2
(0.702021 0.0772737 0.071647 0.149058) 45184 89688 2
(0.288957 0.355899 0.136921 0.218224) 45183 89686 1
(0.670516 0.164777 0.105052 0.0596554) 45179 89678 1
(0.0323107 0.514531 0.0205517 0.432606) 45181 89769 1
(0.436215 0.282035 0.0589392 0.222811) 45227 89774 1
(0.236432 0.17013 0.219864 0.373575) 45271 89861 2
(0.0226762 0.0172542 0.471387 0.488683) 45362 90044 2
(0.161685 0.436697 0.25784 0.143777) 45221 89849 1
(0.533518 0.199176 0.232765 0.0345405) 45270 89862 2
(0.160727 0.425172 0.0315371 0.382563) 45266 89851 2
(0.685383 0.0933057 0.0645179 0.156794) 45270 89860 2
(0.766704 0.116728 0.0502717 0.0662961) 45316 89952 1
(0.297274 0.282339 0.0847078 0.335679) 45314 89947 2
(0.803193 0.0393128 0.0590354 0.0984588) 45357 90034 2
(0.137006 0.43814 0.300272 0.124583) 45359 90125 1
(0.502163 0.249032 0.0398126 0.208993) 45353 90026 1
(0.424371 0.246386 0.261612 0.0676313) 45352 90111 2
(0.317574 0.186096 0.159507 0.336823) 45496 90311 2
(0.172218 0.414227 0.272878 0.140677) 45544 90410 1
(0.686665 0.159155 0.00362656 0.150554) 45493 90305 2
(0.054134 0.496323 0.285387 0.164155) 45444 90207 1
(0.240747 0.0965342 0.28325 0.379469) 45492 90304 2
(0.172665 0.190039 0.225834 0.411462) 45440 90200 2
(0.281854 0.243875 0.115985 0.358287) 45446 90212 2
(0.134415 0.330997 0.120333 0.414255) 45490 90299 2
(0.311091 0.197821 0.330407 0.160681) 45444 90295 2
(0.179433 0.231244 0.403671 0.185652) 45539 90485 2
(0.166997 0.166043 0.416085 0.250876) 45489 90300 2
(0.470764 0.264984 0.154469 0.109782) 45489 90300 1
(0.0842067 0.468118 0.129552 0.318123) 45532 90383 1
(0.104147 0.456516 0.156478 0.282859) 45579 90477 1
(0.136653 0.371857 0.0890689 0.40242) 45575 90469 2
(0.157696 0.246896 0.174864 0.420545) 45578 90476 2
(0.643711 0.0996964 0.177927 0.0786658) 45578 90478 2
(0.649262 0.111897 0.171117 0.0677242) 45625 90657 2
(0.0600959 0.213634 0.268339 0.457931) 45622 90563 2
(0.223163 0.388546 0.0333308 0.354961) 45576 90472 1
(0.344612 0.331068 0.280208 0.0441128) 45576 90559 1
(0.616573 0.191876 0.12908 0.0624712) 45617 90556 1
(0.629335 0.197333 0.0690791 0.104252) 45659 90637 1
(0.0668704 0.505877 0.0051524 0.4221) 45750 90819 2
(0.491918 0.0151048 0.238674 0.254303) 45752 90824 2
(0.165512 0.416876 0.0140159 0.403595) 45756 90832 1
(0.0421182 0.318378 0.177128 0.462376) 45799 90917 2
(0.400853 0.300113 0.0250383 0.273995) 45800 90922 1
(0.315704 0.368573 0.21539 0.100333) 45793 90905 1
(0.348472 0.34499 0.0444684 0.26207) 45797 91001 1
(0.628144 0.194275 0.000244629 0.177336) 45844 91007 2
(0.6201 0.19953 0.150383 0.0299868) 45842 91003 1
(0.734189 0.125301 0.132486 0.00802489) 45809 90940 2
(0.589149 0.205665 0.132352 0.0728339) 45843 91008 1
(0.60321 0.140019 0.187327 0.0694441) 45839 91085 2
(0.892925 0.0558883 0.0507422 0.000444367) 45888 91095 1
(0.0159471 0.492942 0.155726 0.335385) 45889 91100 1
(0.491566 0.159177 0.253836 0.0954202) 45881 91084 2
(0.626539 0.150462 0.186374 0.0366254) 45884 91090 2
(0.279007 0.374149 0.335815 0.0110294) 45933 91185 1
(0.239946 0.380378 0.337504 0.0421731) 45982 91284 1
(0.21495 0.39825 0.0529264 0.333873) 46013 91345 1
(0.859918 0.0701278 0.0112281 0.058726) 46017 91354 1
(0.112537 0.444418 0.348319 0.094726) 46018 91356 1
(0.289015 0.368285 0.142001 0.200699) 46062 91531 1
(0.0334345 0.484277 0.110544 0.371744) 41858 83038 1
(0.0816562 0.460217 0.353989 0.104137) 42925 85257 1
(0.390569 0.0507796 0.254884 0.303767) 41948 83215 2
(0.182674 0.416015 0.0720774 0.329233) 41861 83129 1