/*--------------------------------*- C++ -*----------------------------------*\
  =========                 |
  \\      /  F ield         | OpenFOAM: The Open Source CFD Toolbox
   \\    /   O peration     | Website:  https://openfoam.org
    \\  /    A nd           | Version:  7
     \\/     M anipulation  |
\*---------------------------------------------------------------------------*/
FoamFile
{
    version     2.0;
    format      ascii;
    class       scalarField;
    location    "0.14/lagrangian/reactingCloud1";
    object      tTurb;
}
// * * * * * * * * * * * * * * * * * * * * * * * * * * * * * * * * * * * * * //


1200
(
0.00342809
0.00212385
0.0025305
0.00116605
0.00232784
0.00530385
0.00273334
0.0014767
0.0019985
0.00244676
0.00122513
0.006185
0.00021205
0.0013632
0.00157835
0.00053721
0.00059955
0.006113
0.006041
0.00213875
0.005945
0.005921
0.00083555
0.00196222
0.000709545
0.00093235
0.00165205
0.00035755
0.005753
0.000657
0.005729
0.00194826
0.005681
0.00081305
0.005561
0.000156774
0.0017115
0.005465
0.005441
0.005489
0.00098555
0.00172704
0.005417
0.00124755
0.00171955
0.00100555
0.00194368
0.005369
0.005345
0.00486517
0.0008912
0.005273
0.005297
0.00077935
0.0002462
0.005201
0.001502
0.00140411
0.0014235
0.00091155
0.005129
0.00120705
0.005081
0.005057
0.004985
0.00149165
0.00141105
0.005033
0.004937
0.00122105
0.0011676
0.004913
0.004889
0.004865
0.00022622
0.000335085
0.001577
0.001553
0.001529
0.001505
0.000345054
0.001457
6e-06
0.001409
0.001385
0.001361
0.00076105
0.0001957
0.001289
0.001265
0.001241
0.001217
0.001193
0.001169
0.001145
0.001121
0.001097
0.001073
0.001049
0.001025
0.000133346
0.0003877
0.000953
0.000929
0.000905
0.000881
0.000857
0.000833
0.000809
0.00017805
0.000761
0.000737
0.000713
0.000689
0.000665
0.000641
0.000617
8.55e-06
0.000569
0.000545
0.000521
0.000497
0.000473
0.000449
0.000425
0.000401
0.000377
0.000353
0.000352625
0.000329
0.000305
0.000281
0.000257
0.000233
0.000209
0.000185
0.000161
0.000137
0.000113
8.9e-05
6.5e-05
4.1e-05
1.7e-05
9.26314e-05
0.000204725
0.000603012
0.000151282
0.00177732
0.001753
0.00239305
0.000522097
0.002801
0.002705
0.002729
0.002681
0.002633
0.00122465
0.00031805
0.00119702
0.002537
0.002561
0.00139135
0.002489
0.002465
0.002369
0.002345
0.000989696
0.000964154
0.002321
0.002273
0.002297
0.000661
0.002225
0.002249
0.002201
0.002177
0.002129
0.002153
0.002081
0.000683311
0.002033
0.002057
0.002009
0.001985
0.001937
0.001913
0.001889
0.001865
0.001841
0.001793
0.001745
0.0003435
0.001697
0.001721
0.001673
0.0002515
0.001625
0.001649
0.001601
0.003953
0.000325
0.00018005
0.003929
0.0002422
1.20131e-06
0.0002415
0.003785
0.003809
0.003737
0.003833
8.50021e-05
0.0018232
0.003641
0.003713
0.000591161
0.003689
0.00290885
0.003569
0.003617
0.003665
0.003497
0.003449
0.003593
0.003473
0.003545
0.003521
0.003329
0.003401
0.003305
0.003353
0.00328063
0.003281
0.00268105
0.003233
0.003161
0.003137
0.003113
0.003089
0.002945
0.002993
0.002897
0.003041
0.003065
0.0023622
0.0001687
0.002921
0.002849
0.002777
0.002825
0.000540703
0.000309
0.00126204
0.00479263
0.004769
0.004721
0.00110674
0.000849256
0.00047955
0.00101807
0.004625
0.000724
0.0010582
3.835e-05
0.000743034
0.004481
0.000283036
0.0006735
0.004457
0.000611
0.0004675
0.004337
0.000558634
0.00052035
0.0006225
0.004265
0.0004595
0.000438827
0.000495512
0.004169
0.004193
0.004145
0.000468699
0.00416863
0.004217
0.004121
0.00053655
0.004049
0.0005302
0.004073
0.0004915
0.003977
0.00336685
0.00342405
0.00397667
0.00461535
0.00221919
0.00097855
0.002305
0.00451835
0.001141
0.0022805
0.00041605
0.0005215
0.00362776
0.0033057
0.00079435
0.0016677
0.00215018
0.00162635
0.003809
0.008425
0.00195635
0.0014292
0.001582
0.00286501
0.00025335
0.00070885
0.0085492
0.0035347
0.0045042
0.00476871
0.00283055
0.0015012
0.00151005
0.0020515
0.00101505
0.0030357
0.00254135
0.00075835
0.00101916
0.00293205
0.000828183
0.0018887
0.00369505
0.00479431
0.0036425
0.00427705
0.00404635
0.00311907
0.00116021
0.0030227
0.006065
0.00284065
0.00133804
0.00093405
0.0021853
0.00342355
0.0015285
0.00109155
0.00323905
0.00362805
0.00458105
0.00222641
0.00037835
5.755e-05
0.0013797
0.00012735
0.00021855
0.00712801
0.0007182
0.00064605
0.005841
0.00219755
0.0022755
0.00174672
0.0002027
0.00367185
0.00216385
0.0039777
0.0021662
0.00021705
0.0022357
0.00281229
0.00050135
0.0009287
0.00438555
0.0008807
0.00032055
0.001308
0.00352205
0.003338
0.00687862
4.82e-05
0.00083105
0.0021875
0.0045057
0.0002132
0.00104555
0.00449035
0.00376111
0.0027672
0.003025
0.00620935
0.0004727
0.0021772
0.0031387
0.00126535
0.00559835
0.004953
0.00019485
0.0003047
0.0033407
0.00096905
0.00151435
0.0020155
0.0002477
0.00039155
0.0022927
0.0019013
0.00084455
0.00077105
0.0006605
0.00327935
0.00554355
0.00108935
0.00019355
0.000245644
0.0025675
0.00173285
0.00111105
0.002405
0.00532755
0.0030447
0.00239726
0.00106155
0.0027412
0.001161
0.0011242
0.0024375
0.0046792
0.00291935
0.004329
0.00294808
0.00047805
0.00028605
0.0014875
0.00282335
0.0030242
0.00127255
0.000746
0.00300605
0.001192
0.00174655
0.00013159
0.0015117
0.000185095
0.002958
0.00136235
0.000687713
0.00081685
0.000119206
0.00122605
0.00288135
0.00209528
0.009041
0.001921
0.00107535
0.00109855
0.008969
0.00251135
0.00203905
0.001753
0.0028715
0.00251785
0.002813
0.00144055
0.00047852
0.00214371
0.00024235
0.00283435
0.0001202
0.0007925
0.00122867
0.00205905
0.00273835
0.00200135
0.00271435
0.008465
0.000542
0.0008687
0.0004282
0.008321
0.00252235
0.000456
0.0079705
0.00182505
0.00124807
0.001033
0.00427175
0.003033
0.00205255
0.008033
0.0014222
0.00061285
0.00127705
0.00150335
0.00147935
0.00069155
0.00184176
0.000697
0.0018727
0.00153705
0.0010147
0.00089455
0.00772063
0.00113205
0.007721
0.00038605
0.00105305
0.00126074
0.002481
4.255e-05
0.007481
0.0052072
0.00235918
0.00437479
0.00110635
0.00092735
0.00205377
0.00719305
5.05e-05
0.00083235
0.00083135
0.0017177
0.0033591
0.00309555
0.003513
0.00059555
0.002975
0.00295155
0.000614535
0.00087405
0.002073
0.00129835
0.00061535
0.007025
0.006953
0.006857
0.00037535
0.0002945
0.000877
0.00187183
0.006761
0.002753
0.00167985
0.00288733
0.0036878
0.0016522
0.006689
0.00132011
0.0008685
0.006617
0.00081835
0.0015987
0.00224455
0.0029542
0.00225555
0.00274428
0.002672
0.00966085
0.0097682
0.00917505
0.00731785
0.0072952
0.0027942
0.0049295
0.00728705
0.0030637
0.00504485
0.00092255
0.00491255
0.00364567
0.00253755
0.00373535
0.0022731
0.00033235
0.00356405
0.00304085
0.00331955
0.00608155
0.0048172
0.0021335
0.00503955
0.00212035
0.00593355
0.00388768
0.0002705
0.00604035
0.00357485
0.000374475
0.0070007
0.00430305
0.0049362
0.00389105
0.00294985
0.00131116
0.00276241
0.0060732
0.0033125
0.00330857
0.00397405
0.00700505
0.00034555
0.0039897
0.0063487
0.00682735
0.00142521
0.000776051
0.0023737
0.0014985
0.0049317
0.0021582
0.0045027
0.00167485
0.00322636
0.00523434
0.000698198
0.00250485
0.0015972
1e-05
0.0045297
0.000530334
0.0008562
0.00162405
0.00479003
0.00051785
0.0019657
0.0029452
0.0075232
0.00130605
0.00434905
0.00399505
0.00474721
0.00333635
0.00432905
0.00455355
0.0045257
0.00260235
0.0009412
0.00139905
0.00179085
0.00590305
0.00464955
0.00295905
0.00454717
0.00406
0.00603205
0.0044775
0.00219805
0.00311016
0.00352221
0.0050542
0.00431701
0.00595255
0.0035992
0.0052845
0.00505921
0.00526935
0.0016497
0.00162935
0.00206285
0.0047277
0.0013702
0.00493535
0.00135271
0.00454055
1.105e-05
0.00536505
0.00717255
0.00041405
0.0001292
0.003673
0.0042
0.00476422
0.00099555
0.00138785
0.003478
0.00187578
0.0010815
0.0014862
0.004792
0.0012986
0.00164085
0.00243805
0.00362035
0.0041617
0.0035242
0.00426235
0.00037085
0.0038567
0.00414235
0.00550061
0.00162855
0.00143948
0.0056482
0.00345135
0.000708496
0.002441
0.00533305
0.00072035
0.00428331
0.0055585
0.00025085
0.00435213
0.00434722
0.0024292
0.00038435
0.00334705
0.00369455
0.00279835
0.004207
0.00056205
0.00263235
0.00455605
0.0012305
0.0009715
0.00565621
0.00265635
0.0030227
0.00416035
0.00339328
0.00488255
0.00102505
0.0044147
0.00093
0.0055292
0.0029502
0.00045755
0.00209405
0.00382935
0.0009972
0.00168235
0.0013075
0.00160285
0.00483055
0.00222455
0.0001207
0.00023135
0.0009192
0.0011577
0.00202935
0.0021415
0.0018447
0.0008532
0.00487005
0.00329085
0.00015135
0.00176105
7.355e-05
0.00485421
0.00582505
0.00226672
0.00012205
0.00194905
0.00448505
0.0019157
0.002582
0.0004347
0.001023
0.00444255
0.00041755
0.002371
0.003137
0.00323585
0.00069905
0.00144764
0.0026917
0.0018952
0.00422922
0.000386583
0.00273005
0.000793
0.0048382
0.00435208
0.00517955
0.0041022
0.00378755
0.00402805
0.0054302
0.00167085
0.0039765
0.0019492
0.0051587
0.00319955
0.00243901
0.00561385
0.00441885
0.000792987
0.0058852
0.00473785
0.0053387
0.00024255
0.00376285
0.00034305
0.00572605
0.00025485
0.00092635
0.00471411
0.0016989
0.0025427
0.00240536
0.0020245
0.00276509
0.00184005
0.0017002
0.003835
0.00047305
0.0047105
0.0026962
0.0015557
0.00245805
0.00341003
0.00124535
0.000342086
0.004175
0.0040267
0.00414535
0.0003312
0.0045468
0.00020955
0.005584
0.00297864
0.0033245
0.00501723
0.0041635
0.002272
0.00434285
0.00430305
0.0035742
0.00097535
0.001418
0.00084805
0.003174
0.0006237
0.00103085
0.00397885
0.00178635
0.0013857
0.003488
0.0041135
0.00887678
0.0004205
0.00225405
0.0028182
0.00478135
0.00339555
0.0025017
0.004009
0.00203435
0.0028197
0.0012467
0.000199497
0.00372385
0.00313318
0.0035227
0.00597155
0.0028652
0.0031212
0.00144366
0.00562785
0.0064827
0.00783785
0.00733485
0.00843635
0.0053647
0.00373385
0.0049742
0.0112877
0.00225185
0.0062372
0.00385503
0.0119642
0.0028102
0.0104702
0.0111749
0.0036332
0.0086127
0.00696969
0.011728
0.00451972
0.00455385
0.00966685
0.003357
0.00323435
0.00339585
0.000266
0.00792016
0.0073442
0.001145
0.0102236
0.0104726
0.0014317
0.00779477
0.0053765
0.00239105
0.00878455
0.00490518
0.00312885
0.003768
0.00935605
0.009542
0.000331951
0.00971055
0.0069302
0.00949134
0.00958305
0.00334671
0.010919
0.0074312
0.00273285
0.0003945
0.0103141
0.00462335
0.00235309
0.00515547
0.0066255
0.0049477
0.000802491
0.00977805
0.00616198
0.0020125
0.000905489
0.0071065
0.00816385
0.00726335
0.00335455
0.00996735
0.0063042
0.0002477
0.00937216
0.00494147
0.0068795
0.0046652
0.00492905
0.00517002
0.0103811
0.00371835
0.00655955
0.0050292
0.00998867
0.00240855
0.0023587
0.00737485
0.0003732
0.00360421
0.000733581
0.00758955
0.00166985
0.00047185
0.0066015
0.00024035
0.0103252
0.00541616
0.0102195
0.008136
0.00998055
0.00708635
0.0094197
0.0071547
0.00945405
0.00530291
0.00963355
0.0044267
0.002485
0.00230505
0.00898955
0.003573
0.00160935
0.0031092
0.00552607
0.0033743
0.0076892
0.00121416
0.00523785
0.0017937
0.00470299
0.00105205
0.00688205
0.00940085
0.0038678
0.00670235
0.0049155
0.0069062
0.00608055
0.0081825
0.00200135
0.00169535
0.00035105
0.000629652
0.00049135
0.0010272
0.0009742
0.000275413
0.00209171
0.00298959
0.00194902
0.00046035
0.00689805
0.00254005
0.00430871
0.0018385
0.00223993
0.00201255
0.0032755
0.003871
0.0075727
0.00447735
0.0072392
0.00849005
0.0024187
0.00133161
0.00793014
0.00630835
0.00205055
0.00366555
0.00599712
0.00316435
0.00233059
0.0011997
0.00329335
0.00827622
0.00427335
0.0057762
0.003921
0.00838271
0.00073955
0.00625505
0.0019707
0.00716055
0.00892744
0.00320505
0.0016205
0.00847185
0.0012662
0.00308402
0.00260955
0.0053625
0.008347
0.00689835
0.0015382
0.0080832
0.00514485
0.00726455
0.0032712
0.00516785
0.0045295
0.0054007
0.00128305
0.00287355
0.00030705
0.0046075
0.0056252
0.0013805
0.00306858
0.00387635
0.00792455
0.00144505
0.0067757
0.00657455
0.00770005
0.00565155
0.00561721
0.0083802
0.00172952
0.0002757
0.00752685
0.008234
0.00044935
0.000595811
0.00047235
0.00077555
0.0081585
0.00830421
0.00138235
0.00590879
0.0010242
0.00366505
0.00309135
0.00461335
0.0073292
0.0071037
0.00531805
0.0072572
0.00028455
0.00504705
0.00258605
0.0070697
0.0042777
0.00038055
0.0013082
0.0073955
0.000364709
0.00490755
0.00579631
0.00149755
0.00274616
1e-06
0.007682
0.00527085
0.000409471
0.0045812
0.0076547
0.0033997
0.00579785
0.0064862
0.00571355
0.00451005
0.00620105
0.0032162
0.00768005
0.0066877
0.00675435
0.00601505
0.0070177
0.00632355
0.00594555
0.0011837
0.00098735
0.00347135
0.00740655
0.0014037
0.00409235
0.0064897
0.00616921
0.0004282
0.00697635
0.00120485
0.0028957
0.00151495
0.00730421
0.00568535
0.00585035
0.00430073
0.00136305
0.00385349
0.00136785
0.000797995
0.005776
0.00634055
0.00593105
0.00557285
0.0024987
0.00432285
0.00602405
0.00407849
0.0030695
0.0004242
0.00328649
0.00687105
0.0026257
0.00453285
0.00129055
6.305e-05
0.0020095
0.00675285
0.0022107
0.00141406
0.0032672
0.00523524
0.005226
0.00462005
0.00380285
0.00648805
0.00324235
0.00613235
0.00573205
0.00630055
0.0051702
0.00056655
0.00550735
0.00572205
0.00339825
0.0174192
0.0167327
0.0186284
0.017232
0.0152602
0.0044435
0.00938805
0.0083682
0.0092292
0.0123605
0.0101816
0.0105295
0.00747655
0.0156612
0.0037397
0.0106426
0.00959285
0.00901305
0.0113471
0.00706305
0.0103099
0.00669305
0.0074675
0.0098747
0.00709085
0.00770785
0.0257317
0.0209925
)


// ************************************************************************* //
