/*--------------------------------*- C++ -*----------------------------------*\
  =========                 |
  \\      /  F ield         | OpenFOAM: The Open Source CFD Toolbox
   \\    /   O peration     | Website:  https://openfoam.org
    \\  /    A nd           | Version:  7
     \\/     M anipulation  |
\*---------------------------------------------------------------------------*/
FoamFile
{
    version     2.0;
    format      ascii;
    class       vectorField;
    location    "0.14/lagrangian/reactingCloud1";
    object      U;
}
// * * * * * * * * * * * * * * * * * * * * * * * * * * * * * * * * * * * * * //


1200
(
(343.53 17.3316 9.34342)
(355.599 11.5461 -7.4689)
(438.954 -2.16923 -4.58406)
(409.608 -0.548735 0.00728021)
(437.701 -1.83779 3.00349)
(435.444 -14.9543 -4.07688)
(446.2 -7.89923 -2.67429)
(357.192 11.4025 -13.8232)
(436.039 -7.49377 -3.31899)
(435.34 -1.61066 -0.459091)
(399.322 4.06178 0.42814)
(440.701 -0.0391786 1.027e-06)
(393.098 0.160648 0.588515)
(422.135 -9.36673 2.89381)
(408.353 -2.16402 0.0584198)
(420.065 -2.70894 1.91561)
(414.277 -21.8168 10.8516)
(440.491 -0.0479675 -1.62565e-06)
(440.211 -0.0584335 -5.35755e-07)
(437.988 -0.982542 1.26535)
(440.496 -0.0307205 -2.73419e-06)
(440.594 -0.0190222 -1.50016e-06)
(356.838 -1.08269 -0.730844)
(435.5 0.865443 0.0165813)
(425.975 -1.42411 -1.61231)
(401.957 6.1328 1.81639)
(335.383 12.4801 -16.7945)
(420.715 0.414289 3.40867)
(439.95 -0.0114863 -2.24043e-05)
(440.23 1.69202 -2.58742)
(439.836 -0.00521345 -2.79009e-06)
(437.961 -4.28455 -13.8806)
(439.607 0.0178371 -4.76201e-05)
(428.483 -9.28761 -22.0571)
(439.881 0.0251991 2.88206e-06)
(436.215 -2.44286 -10.8161)
(430.534 2.92308 -2.31805)
(439.498 0.102871 -5.72327e-05)
(439.601 0.0763231 -2.10387e-05)
(439.202 0.145442 -8.24793e-05)
(398.113 -0.0802951 -0.283734)
(417.097 -3.14827 -5.28652)
(439.415 0.127424 -5.951e-05)
(438.025 0.484556 -0.795703)
(424.876 -3.45103 -8.6166)
(374.252 1.71213 -1.4996)
(421.505 -3.45985 -2.13252)
(439.043 0.234617 -4.31764e-06)
(439.086 0.231735 -4.40647e-07)
(447.798 -14.4745 5.01902)
(382.022 -0.106662 0.346521)
(439.026 0.237669 1.30824e-07)
(438.698 0.361728 -9.11928e-06)
(394.824 2.69425 -3.7685)
(413.853 -3.63717 5.73169)
(438.941 0.183336 -1.10023e-07)
(434.592 -2.62386 1.0264)
(435.916 -5.53659 9.92884)
(428.411 2.86579 -2.14352)
(449.709 -3.8109 7.35989)
(437.609 0.775964 -1.06965e-05)
(437.946 -6.85612 0.889985)
(437.87 0.600967 -9.81111e-06)
(437.484 0.760076 -8.95017e-06)
(437.249 0.641497 -2.25468e-06)
(429.581 0.81585 -0.26315)
(413.032 1.0415 -0.111003)
(435.942 1.26979 -2.63211e-05)
(436.479 0.853791 -7.46769e-06)
(431.464 2.49578 0.33923)
(436.877 -3.5348 3.7489)
(435.999 0.965436 -2.9121e-06)
(435.921 0.871699 -7.45887e-07)
(436.006 0.52831 -6.56871e-07)
(124.478 17.7864 -14.8709)
(133.757 12.8047 2.48981)
(132.125 1.42943 0.00022171)
(131.611 6.07605 0.000206967)
(133.719 2.18899 7.9997e-05)
(126.857 17.9359 -0.00146759)
(128.571 26.6574 -23.6877)
(130.322 18.664 0.000766894)
(68.0544 5.21662 3.02591)
(137.582 8.8986 0.000406254)
(138.302 11.487 3.36863e-05)
(136.828 20.3216 9.95312e-05)
(128.206 24.9514 0.55066)
(133.882 30.2755 -0.449051)
(142.184 21.8918 -0.00204882)
(144.943 19.5637 -0.00221388)
(146.771 13.1751 -0.00156211)
(148.261 13.9594 -0.000667967)
(148.684 9.11877 -0.000681902)
(151.788 26.4172 -0.000635386)
(150.886 7.56568 -0.000615022)
(153.953 12.028 -0.000195039)
(154.084 9.46076 -0.000290396)
(161.192 22.627 -0.00204141)
(156.372 9.08357 -0.000690752)
(159.876 11.2965 -0.000616364)
(83.1848 -5.3992 6.30793)
(173.31 1.10535 -6.3089)
(163.572 10.0205 -0.000110705)
(168.377 11.6738 -0.003615)
(169.332 10.7115 -0.00105526)
(166.457 7.90607 -0.000979668)
(166.836 7.28265 -0.000382688)
(163.791 5.56443 0.000227434)
(169.648 6.667 0.000270751)
(115.009 -1.27109 8.9925)
(163.566 3.73056 -0.000181455)
(163.895 3.40796 -0.000144671)
(162.999 2.43411 2.07811e-05)
(168.217 2.25861 -0.00038196)
(167.648 1.64493 0.000739931)
(164.784 2.44382 -0.00072947)
(164.854 2.17449 -0.000814986)
(147.869 -1.08719 -6.87056)
(167.017 0.831867 -0.000161853)
(164.31 1.28144 -3.97023e-05)
(166.346 1.2684 0.000677618)
(164.243 0.646233 -0.000260862)
(165.475 1.3004 -0.000204198)
(165.146 0.0318667 -3.5806e-05)
(166.246 0.498713 0.000106405)
(166.134 0.460741 0.00037459)
(165.605 -0.0204691 -1.72557e-05)
(166.011 0.163544 0.000493607)
(165.166 0.739374 3.34116e-05)
(165.057 0.490572 -4.55908e-05)
(165.175 0.551579 -0.000159447)
(165.794 0.422629 -3.09763e-05)
(165.422 0.645278 -5.55048e-05)
(165.453 0.63142 -1.0254e-05)
(165.627 0.550142 -5.50068e-05)
(165.713 0.173321 -1.62028e-06)
(165.61 0.526799 8.96984e-06)
(165.636 -0.0128405 3.35841e-06)
(165.646 0.191778 2.56701e-05)
(165.233 -0.13239 -2.42875e-07)
(165.6 0.46967 0.000241402)
(165.61 0.204153 -2.25311e-06)
(165.57 0.45017 -3.32966e-07)
(21.3775 -3.60654 0.565263)
(25.1129 -4.3294 0.0524023)
(26.303 -5.51177 0.689955)
(91.0437 -15.804 -1.37135)
(96.1767 -15.7549 -0.332985)
(97.7416 -16.5439 0.730716)
(97.6008 -21.8969 2.70028)
(100.427 -14.7926 -0.322827)
(109.588 -15.2602 0.000925172)
(128.607 -5.61248 -5.62241e-06)
(105.738 -13.4662 -0.00126788)
(127.059 -6.06366 -1.52065e-05)
(125.708 -5.29506 -1.30875e-06)
(108.017 -21.3737 4.61378)
(87.7971 -10.6894 -2.46495)
(91.682 -6.48433 9.59392)
(118.496 -7.33419 0.000140717)
(111.537 -10.0149 5.23653e-05)
(119.175 -21.2644 9.1022)
(113.684 -7.81 0.00010836)
(106.519 -8.34711 0.000271938)
(120.322 -2.41502 6.11045e-06)
(119.884 -2.28041 0.000363188)
(73.6473 1.02171 -0.510709)
(83.8773 -5.11323 1.1178)
(102.659 -4.9651 0.000241416)
(116.534 -2.47319 6.24319e-05)
(107.048 -4.13604 0.000359662)
(89.6524 -5.60736 -5.38009)
(119.86 -0.925594 5.06487e-06)
(97.9613 -2.99362 0.00268472)
(107.683 -1.59985 0.000870357)
(95.868 -0.434707 0.000385838)
(118.081 -0.10279 3.96037e-05)
(107.666 -0.294242 0.00357293)
(120.439 0.261279 6.06658e-06)
(93.7031 -0.0665254 -0.317834)
(119.113 1.09602 0.00179909)
(95.4372 3.7293 0.000183431)
(119.646 1.39349 0.000350483)
(103.609 5.36982 0.000887164)
(115.711 4.20094 0.00231147)
(116.111 4.64859 0.000384823)
(113.797 6.33166 -0.000111704)
(124.015 0.850306 4.87722e-05)
(115.864 7.13445 0.00146243)
(118.059 7.96836 0.000104958)
(119.344 9.17856 -0.00024752)
(102.499 22.1381 -12.6895)
(121.586 9.81662 -9.99669e-05)
(110.091 15.3369 -0.000211891)
(121.419 11.0635 -0.000757913)
(39.4269 28.5181 -19.2717)
(128.263 6.42531 0.000788505)
(113.003 18.2865 -0.00162785)
(125.952 11.0878 -0.000597205)
(345.945 -2.09419 -0.000564512)
(152.529 -43.6987 2.70975)
(325.397 -21.7851 13.0954)
(318.087 -16.3762 3.9484e-05)
(283.062 -46.4496 -0.939046)
(288.481 -36.5611 -13.5142)
(96.3792 -33.8974 1.41765)
(288.086 -16.2856 -0.0012497)
(281.453 -26.057 0.000526497)
(282.043 -5.50821 -0.000342237)
(245.043 -44.5027 0.000369386)
(227.733 -48.4273 -2.4489)
(180.974 -50.9193 -0.556363)
(249.419 -11.7504 0.000120798)
(238.686 -33.3902 0.000502769)
(218.124 -54.1715 2.36285)
(233.822 -31.787 3.72233e-05)
(211.017 -52.1288 -8.16766)
(223.368 -17.3241 4.7932e-06)
(191.736 -37.995 0.000648907)
(179.038 -41.7088 -0.00107763)
(196.829 -24.4113 2.85652e-05)
(191.061 -20.7862 8.35032e-05)
(166.914 -38.9952 -0.000777257)
(178.845 -30.3762 -3.44898e-05)
(170.145 -36.2636 0.000593939)
(170.907 -35.5322 -0.000223058)
(181.004 -8.59784 -4.14814e-05)
(165.955 -28.7489 -0.000274515)
(161.153 -23.6311 0.000419935)
(151.506 -29.9067 0.00110595)
(156.776 -23.8082 0.000802369)
(148.847 -26.8634 0.000122523)
(141.531 -35.909 -2.9468)
(141.113 -26.2106 0.00447655)
(137.902 -23.8027 -1.70957e-05)
(129.034 -24.3632 0.00295691)
(128.329 -23.5964 0.000387463)
(127.911 -22.878 -6.51317e-05)
(142 -5.45761 -5.88381e-05)
(132.339 -17.8485 -0.000130163)
(139.911 -3.32411 0.000257686)
(125.422 -21.474 -0.000820407)
(116.674 -21.7887 -0.00188864)
(116.016 -36.2713 5.51183)
(101.069 -22.5285 3.74547)
(125.718 -17.1354 -0.000506201)
(130.027 -11.9665 0.00114051)
(132.226 -5.36099 0.00107013)
(124.529 -13.9783 0.000141915)
(111.356 -18.3985 -0.25679)
(388.868 -0.487427 -12.6921)
(423.743 -0.269463 3.79711)
(432.329 1.50436 -2.58323e-06)
(432.017 1.43099 -1.64876e-06)
(432.857 0.566531 -3.02717e-06)
(413.226 1.25375 14.6185)
(427.501 15.7467 -6.84377)
(429.319 2.81543 3.19346)
(422.459 1.60547 3.27918)
(426.622 1.18054 8.64816e-05)
(424.04 5.87337 -0.839301)
(415.365 2.28678 0.787757)
(365.214 -3.94236 3.3588)
(407.891 -5.95114 -0.621561)
(420.268 0.364079 0.000273619)
(417.176 0.664913 -0.498361)
(427.973 0.47587 2.11046)
(411.08 -0.0566216 0.000153518)
(401.35 2.40606 -3.19639)
(410.471 -4.02316 1.54585)
(398.196 -1.30107 -0.000147007)
(393.46 -3.91217 2.37888)
(373.482 7.27834 5.28811)
(334.102 -2.98642 -2.11549)
(396.932 -0.668653 5.51445e-05)
(387.05 6.41321 -1.00084)
(388.445 6.07445 4.77353)
(380.58 -1.0173 -5.16753)
(389.788 0.0480988 4.12018e-06)
(385.837 -1.10152 0.000432726)
(384.123 -0.196722 0.000175129)
(383.848 -2.12689 2.43111)
(381.962 -1.40988 0.000403383)
(381.336 -2.5901 8.4154e-05)
(376.4 -1.26203 -3.10662e-05)
(367.445 -5.9561 -2.47408)
(363.721 -1.94856 -0.000194766)
(365.623 -8.36675 3.13998)
(354.734 -5.7038 -1.63583e-05)
(354.716 -10.9966 2.01753)
(350.187 -2.32254 -0.00041212)
(323.35 0.974599 -4.56227)
(343.177 0.803343 5.83964)
(317.28 4.95853 -2.30946)
(361.45 6.07909 -1.12487)
(321.829 1.62069 0.131444)
(389.384 -7.64809 -10.6077)
(302.47 -1.93057 0.350956)
(362.757 -4.84474 -5.29072)
(356.617 11.2488 -4.50431)
(309.637 6.26888 -9.58876)
(392.002 -0.310841 9.54192)
(272.558 5.1071 2.38265)
(350.765 -5.35078 -0.463735)
(354.425 9.87629 16.8692)
(378.301 2.50746 -2.62972)
(374.068 6.39146 -4.9295)
(391.133 7.10109 -4.14806)
(369.926 -2.25669 0.744108)
(433.799 -3.70904 0.759871)
(431.97 -6.4541 -7.95186)
(393.514 14.5447 1.17561)
(371.894 -1.87278 16.4549)
(440.355 9.91893 -6.94226)
(445.783 -1.15928 -13.7193)
(419.605 22.6128 1.57867)
(345.542 2.49897 1.44512)
(437.3 -8.39721 12.2576)
(385.023 15.0008 -0.330701)
(374.835 5.94802 3.98459)
(445.572 0.468906 -0.965604)
(398.662 3.10056 -0.141837)
(425.101 -14.2301 -20.0921)
(441.614 -4.27293 3.96596)
(415.849 -3.75071 -1.89291)
(406.425 0.1282 -0.827408)
(432.371 -6.6276 -2.60227)
(359.341 9.45155 7.62019)
(342.941 7.06416 8.17942)
(443.923 0.0462167 1.48542)
(394.791 -0.807569 -0.409945)
(439.314 0.347229 1.59848)
(438.906 -0.786341 -2.20293)
(426.651 2.17955 8.19221)
(334.672 -2.22508 -1.49931)
(382.869 4.87691 -5.78408)
(434.919 -1.4851 0.552003)
(347.903 10.8421 -6.16222)
(443.389 0.14707 2.23463)
(437.798 0.00092778 -0.0377321)
(417.591 -5.34256 -4.89886)
(453.583 -8.20271 -5.91519)
(421.938 3.11673 -4.50917)
(410.093 12.005 8.90743)
(440.186 -2.06921 -2.88914)
(430.075 -1.88432 0.0997709)
(405.839 -3.53989 10.7034)
(428.322 1.46855 -1.65019)
(417.95 -6.39083 6.32029)
(436.929 -1.77016 -1.33439)
(406.252 -12.3933 -3.90945)
(365.442 9.48165 1.31304)
(352.788 -12.3111 -1.91845)
(417.72 -0.31759 -0.176827)
(355.756 -3.01629 3.27801)
(432.11 -3.33463 -2.03213)
(396.77 -0.584924 -0.405595)
(410.391 5.99684 -9.49495)
(446.849 -7.34161 -1.63118)
(421.585 -1.04687 1.87322)
(442.131 -1.40467 1.2218)
(438.003 -4.73183 5.94138)
(428.94 -3.84178 -3.16511)
(416.24 -1.34025 -5.42373)
(427.888 -5.27503 -6.1065)
(433.556 -0.152185 -0.288446)
(422.644 -0.933174 0.192462)
(326.447 15.7391 -11.2961)
(448.459 -14.9001 3.24261)
(424.575 -2.00792 2.34554)
(418.612 -4.45328 -3.08971)
(413.584 -8.54346 -3.21485)
(446.88 -0.124062 0.37321)
(417.753 4.67061 3.22435)
(442.721 -0.447662 -0.285627)
(452.956 -14.6944 5.54945)
(438.291 0.697102 3.25956)
(420.319 3.8661 -1.79689)
(441.942 5.45001 -1.27099)
(425.52 -2.95769 -0.468739)
(437.784 0.796263 -6.75831)
(432.323 -7.93958 -0.0690717)
(397.955 6.59952 -10.5149)
(439.081 0.145049 -0.492847)
(445.777 0.317967 1.70616)
(354.699 5.20788 -2.12432)
(412.52 -1.32412 -9.41164)
(396.007 -0.969214 1.64528)
(436.615 -9.79075 6.75126)
(443.249 -7.4341 -1.69267)
(410.626 2.34261 -12.0657)
(436.048 0.331279 -0.0441959)
(441.524 -5.06995 -2.03658)
(446.764 5.49023 10.4008)
(429.668 -1.18471 2.96902)
(438.921 -9.12766 -1.84969)
(416.563 -10.2573 11.0764)
(430.469 -11.4325 3.78349)
(437.328 -2.6025 -9.71485)
(415.32 5.1651 2.3005)
(443.272 0.65589 -0.278462)
(375.548 5.03575 5.4556)
(411.104 3.80475 -1.39076)
(425.887 -1.91235 -7.03893)
(421.189 2.92682 -8.96435)
(402.921 -12.2948 8.5561)
(393.96 -9.93977 -3.77514)
(402.869 -1.23463 -0.209324)
(437.304 -4.57651 -1.99681)
(414.75 -16.5424 8.33358)
(434.895 2.70133 -2.22621)
(442.483 0.570974 -3.03624)
(435.496 -1.12507 4.56628)
(440.262 -4.18755 -13.8104)
(432.861 -4.18751 1.85661)
(418.404 4.02982 -6.11361)
(442.904 0.000651916 0.0333765)
(422.925 -3.40414 -0.738088)
(418.27 -2.64207 1.31935)
(425.494 -0.0415817 3.89522)
(438.773 1.62222 0.871017)
(446.224 -7.24467 1.92288)
(402.669 -4.30981 3.43322)
(421.858 -0.75193 -0.229729)
(407.127 -4.44324 -3.13623)
(382.398 -0.763736 -1.5247)
(384.405 -0.165826 -0.65119)
(401.828 -0.173094 1.77568)
(401.455 5.70789 4.23232)
(342.919 12.6669 4.91101)
(425.132 4.97103 4.13037)
(443.945 -6.49592 3.62892)
(428.552 -3.25857 -0.538242)
(411.608 -4.38926 0.327782)
(429.278 -3.26622 18.7528)
(437.053 -4.60133 6.9935)
(438.934 -0.420863 0.103214)
(356.292 7.33955 1.74419)
(388.031 0.0992597 0.253087)
(426.67 3.5536 3.09732)
(346.96 13.5404 1.10278)
(352.792 -4.95337 2.43866)
(419.771 -3.44333 1.74548)
(442.203 0.37543 8.51744)
(432.562 0.05828 -0.913775)
(435.333 -0.521622 -0.772057)
(360.263 2.47762 10.5253)
(409.167 -1.74375 6.26421)
(439.171 4.21027 3.64223)
(405.498 -6.58409 1.32153)
(440.809 2.35818 -6.12041)
(415.886 0.10745 -1.55241)
(443.549 -11.7707 2.51313)
(347.164 1.73284 -11.9282)
(442.857 0.0251923 -4.74947e-07)
(432.673 1.36064 -0.88696)
(422.282 -8.45614 -3.90809)
(430.46 -1.27811 -1.62349)
(442.704 0.0239774 -1.43292e-05)
(437.043 0.822392 0.428696)
(390.945 0.734473 4.5987)
(440.991 -0.349663 0.401101)
(418.937 -13.8486 -0.774762)
(400.586 -3.2601 6.3292)
(425.959 -1.44684 -4.1769)
(425.393 4.13656 -5.73302)
(436.494 5.26029 -5.76373)
(445.671 -16.2579 -9.51529)
(426.422 -8.25934 -4.15036)
(439.497 -1.55633 -5.87337)
(402.026 5.47435 1.25438)
(443.341 0.749971 0.380801)
(433.559 4.88066 5.12082)
(410.461 1.68056 -0.385448)
(438.188 -0.259716 0.00330809)
(448.741 -5.14286 7.14712)
(421.224 5.90986 -4.56769)
(442.846 0.046239 -9.91162e-07)
(428.424 7.08379 -2.6046)
(417.343 3.87453 -10.2193)
(407.161 1.6433 -1.56863)
(442.777 0.0569755 -5.66826e-05)
(438.631 0.0994749 0.958899)
(444.731 -1.52481 3.55245)
(442.982 -12.1962 -22.0853)
(446.359 -8.00627 -1.24571)
(429.366 0.399621 0.572554)
(442.711 0.128246 2.22215)
(442.18 -10.1831 5.29612)
(433.233 1.69177 -0.420293)
(408.828 2.54711 -3.88648)
(442.671 0.0461966 -1.13429e-05)
(426.701 -3.72357 -0.0673879)
(406.611 1.65081 3.50271)
(415.194 -6.43153 -18.3761)
(441.136 -1.91985 3.77651)
(447.028 -0.254232 -1.66729)
(408.346 7.70736 6.99984)
(426.877 -1.16929 -1.08036)
(447.741 -1.13471 3.73272)
(435.705 -7.06004 1.6961)
(419.683 -0.46415 -0.00937132)
(406.822 1.99591 3.70357)
(386.057 1.90374 1.85522)
(442.34 -0.00850638 -8.71427e-06)
(426.594 -0.378589 -0.0768547)
(442.014 -0.0222852 -4.54379e-05)
(432.923 -1.38815 -6.3406)
(405.747 -3.68471 0.937904)
(428.93 -0.392889 0.00192194)
(437.002 0.777223 2.96147)
(422.871 -0.308808 4.04886)
(442.239 -0.0135297 -1.65456e-07)
(440.234 -14.9617 11.8904)
(366.298 10.9045 1.5209)
(346.543 7.22259 -3.40685)
(396.142 -3.7741 -3.36016)
(435.766 3.57617 -1.7276)
(401.98 -0.279444 1.37091)
(437.806 -11.7194 -11.9954)
(429.282 -0.228917 -4.6617)
(434.552 -4.04852 -1.0894)
(447.931 8.3403 -2.94043)
(373.848 4.25902 -4.71808)
(436.238 -0.405819 -0.690419)
(437.014 0.229457 -2.39292)
(442.109 -6.5434 6.13609)
(430.641 3.69542 0.37604)
(442.785 -6.17355 -0.878046)
(437.503 0.898425 -1.053)
(433.057 -0.386888 -0.0169749)
(396.161 -0.867466 -0.130296)
(426.384 4.95301 -0.846577)
(439.977 -3.19215 -0.725754)
(440.723 4.06868 3.94905)
(441.878 0.0073866 -1.0623e-06)
(441.982 -0.0021861 2.81733e-06)
(441.612 0.0118344 -2.23183e-05)
(441.894 -5.01102 4.71176)
(409.652 18.6484 10.4177)
(432.904 -3.9167 -17.9758)
(415.283 -0.643108 -0.534288)
(441.668 0.00780376 3.75188e-06)
(446.031 -2.90266 -3.42201)
(414.224 -3.32582 -2.14783)
(437.078 -0.944882 -0.10523)
(357.883 9.25018 -9.45721)
(431.991 -5.86478 -2.574)
(441.229 -0.00498083 -6.67834e-06)
(405.897 0.353059 2.38131)
(400.389 11.938 -9.6789)
(441.467 -0.00606501 9.88998e-06)
(440.736 -0.134982 -0.623379)
(405.051 0.873151 7.4391)
(362.628 8.78138 7.63249)
(442.354 -18.6998 6.71204)
(438.736 -2.79233 -1.14101)
(438.31 -6.10598 0.041891)
(435.919 -5.43942 1.95588)
(269.086 11.8356 -4.4785)
(246.114 27.8154 1.89895)
(272.7 24.1871 19.9231)
(250.503 26.9095 -3.84303)
(268.089 22.0219 -1.02057)
(301.212 2.3275 8.06802)
(320.392 24.301 -3.38293)
(312.968 16.0336 -1.15591)
(342.437 9.48767 -4.6944)
(330.43 2.84688 10.7263)
(363.517 -1.81191 -0.63805)
(369.63 -2.19806 2.14692)
(336.397 -2.56991 -12.4284)
(340.402 15.1852 -5.42954)
(302.174 -0.451311 1.05168)
(390.252 0.000676647 0.0413132)
(399.679 -0.743701 7.03088)
(387.818 7.56236 -9.91779)
(376.446 2.5751 2.30054)
(383.088 0.137065 -0.666222)
(305.94 26.7723 -3.76356)
(356.397 5.78217 6.07625)
(398.44 -4.45772 -0.576355)
(358.264 4.22227 -4.31142)
(370.968 -3.69294 -6.46551)
(381.981 0.83897 -2.13454)
(394.19 3.59302 -9.9438)
(327.667 7.79343 -12.1238)
(351.72 2.83649 -13.9242)
(399.547 -0.691236 -3.58879)
(393.543 0.00392274 -0.47467)
(335.849 2.22626 2.28111)
(320.595 2.7906 1.11127)
(336.201 7.3022 -9.64845)
(394.722 0.739148 3.54859)
(393.432 0.0518374 0.0793513)
(392.919 0.0014536 -0.0756606)
(405.251 0.00653748 -0.231118)
(381.752 -0.33434 -0.0214998)
(385.459 -0.426705 -0.128501)
(394.381 0.283446 1.37129)
(392.801 0.824034 -14.3279)
(340.187 3.66277 -0.713308)
(373.313 -9.84692 5.93826)
(336.299 22.8602 -17.068)
(399.11 0.00262225 0.0902223)
(274.32 11.6749 -6.66375)
(393.789 0.000226986 -0.022837)
(286.251 1.95152 0.609574)
(299.026 36.7039 20.0446)
(388.125 6.38723 10.1011)
(391.766 -3.20858 10.349)
(396.03 -0.128447 4.73564)
(399.702 2.75698 -3.78566)
(391.377 -2.30292 -0.0129434)
(399.013 0.00103644 -0.039174)
(402.407 -0.834088 -0.16372)
(384.338 -11.5222 7.94178)
(322.039 12.9134 -13.2347)
(395.715 7.08802 -7.45909)
(365.201 -1.20291 11.5592)
(392.282 -0.712644 -0.410068)
(403.216 1.01954 1.48688)
(401.406 -0.827555 -0.209595)
(389.853 16.8634 14.173)
(403.428 0.812958 -6.47204)
(374.013 -1.54899 7.55379)
(354.394 -1.89663 -0.22781)
(404.422 1.08676 0.585699)
(276.719 16.2992 6.31767)
(381.64 -2.13328 -0.880525)
(408.579 -0.412467 0.652259)
(357.91 -2.66874 3.68453)
(399.674 4.10681 7.38537)
(401.846 -9.40149 4.16941)
(399.183 1.88948 -10.3692)
(384.852 -4.50693 3.52563)
(317.016 13.3107 10.0712)
(391.639 -0.681386 -0.0272716)
(377.025 -8.69383 7.11587)
(404.599 -0.436614 -0.207844)
(403.124 -11.984 0.0810536)
(337.259 -0.12787 2.10965)
(373.543 7.66812 -1.4781)
(394.704 -7.33911 -1.97677)
(411.434 -5.07462 -2.04935)
(402.892 -1.34396 3.58261)
(338.962 0.544551 1.90177)
(408.22 3.36074e-05 0.00204257)
(398.446 -0.33808 -5.77375)
(402.753 -0.801674 1.35472)
(408.174 0.00402438 -0.159732)
(412.823 -3.38028 -13.5734)
(405.113 0.00698847 0.0154578)
(294.067 10.2407 -1.59788)
(410.814 0.00274618 0.0824276)
(366.798 -0.693283 -1.30759)
(411.234 0.223304 0.246332)
(386.1 1.98876 -3.88659)
(393.254 -10.9844 3.84669)
(396.451 8.92949 3.14708)
(406.28 -4.57261 -2.76652)
(396.218 -2.98732 3.24928)
(404.496 4.0134 3.13129)
(362.892 3.19806 -1.11906)
(422.102 1.814 1.47387)
(354.082 0.891032 -0.105323)
(396.615 -3.74842 12.3742)
(365.47 -0.822422 -0.136376)
(315.756 15.2256 6.1228)
(398.803 7.69892 -1.61947)
(390.629 -18.3116 3.62914)
(349.624 -4.23799 2.36446)
(390.016 -1.3621 -6.0935)
(416.956 0.00117873 0.0508915)
(367.29 -8.39749 -18.5664)
(350.841 20.8715 -21.6587)
(408.69 5.81573 -1.44059)
(415.789 0.00139567 -0.0635524)
(386.117 -7.09493 10.8153)
(395.168 -12.3803 1.58054)
(400.645 -0.875992 -1.13541)
(416.921 0.00924393 -0.629518)
(351.586 -6.74591 4.19931)
(377.842 2.08726 -1.91916)
(388.761 0.0960287 -1.52354)
(408.948 -16.5449 -2.58473)
(397.989 -5.84229 -0.103707)
(415.909 -0.537806 -0.0969938)
(349.824 5.2409 -6.98557)
(289.481 4.33379 -2.2622)
(419.646 -3.22854 -2.58991)
(418.463 -0.269776 0.00391429)
(339.11 7.49415 -10.0904)
(420.543 0.809479 0.338758)
(421.149 -6.27462 -2.76228)
(402.046 -0.0382305 0.217272)
(421.878 0.0051302 0.0683861)
(395.754 -4.35914 8.82814)
(404.733 5.51415 -4.74679)
(371.687 5.98406 2.0338)
(425.785 0.000386171 -0.0165329)
(420.868 0.00166502 0.0181218)
(424.436 3.53541 3.8105)
(394.115 3.54331 2.41306)
(422.413 1.3522 1.04848)
(337.91 -1.93007 -11.5868)
(437.44 -0.741172 2.9918)
(311.122 1.17701 -2.33043)
(414.813 -4.79314 -5.68011)
(326.443 7.74962 6.22228)
(414.379 -3.68237 3.40073)
(389.482 -5.91147 11.3784)
(417.661 0.525214 -4.81574)
(371.82 -3.05619 3.92043)
(321.002 -8.30407 -4.60863)
(396.262 4.36214 -4.02859)
(422.86 0.000677258 -0.0201687)
(400.908 5.95796 5.62509)
(406.151 3.4632 -9.59516)
(345.992 5.70738 2.32504)
(415.998 4.41351 4.91792)
(371.134 2.24882 14.7467)
(351.904 -3.61317 -3.74276)
(412.552 -2.85016 3.79711)
(426.88 -8.38655 1.12632)
(332.723 5.83171 0.534918)
(359.589 18.2548 -6.4312)
(429.752 2.341 8.20639)
(344.663 1.16161 0.508047)
(393.9 6.19237 7.44217)
(382.629 -6.07546 -8.72717)
(436.369 -11.2471 -3.80956)
(428.762 0.000441541 0.0225853)
(403.988 7.95204 11.9411)
(402.312 -6.20421 -3.40519)
(417.731 3.70833 0.866569)
(395.264 0.592979 -4.64184)
(382.043 17.5907 -1.92711)
(416.422 2.43623 -3.22516)
(420.004 -0.621117 3.63018)
(317.91 29.4362 -1.52261)
(433.593 -0.149613 0.0338403)
(356.213 -5.59828 -6.63065)
(421.289 -11.0233 16.1725)
(425.925 -0.145126 -1.56158)
(403.416 -7.09797 -3.67835)
(419.333 0.357089 -1.62084)
(395.528 9.6071 5.58821)
(423.43 -6.01435 -18.8854)
(430.797 0.000657027 0.0281395)
(332.893 -11.7375 2.92188)
(431.412 0.381331 8.70415)
(357.824 2.8093 28.9362)
(387.131 6.87421 2.03229)
(398.686 -2.76118 -0.49182)
(377.928 9.15185 6.51671)
(434.303 2.43683 0.233359)
(402.401 23.0911 -11.9738)
(420.958 3.49446 -3.25734)
(368.172 2.41807 -3.30132)
(390.218 -12.3256 -1.05232)
(438.123 -1.75216 10.307)
(435.919 0.534751 0.367777)
(377.984 5.40689 0.480855)
(421.839 -2.83933 -0.63769)
(431.714 0.000732727 -0.0303872)
(406.006 -5.4353 -4.74056)
(432.323 -3.38711 -2.33369)
(380.639 12.0048 4.58632)
(436.076 0.655415 -0.740463)
(432.193 1.59106 -0.746178)
(436.266 4.6103 1.5845)
(406.25 -2.84007 7.3582)
(437.379 0.000865061 -0.0475547)
(431.058 -2.34752 9.54339)
(408.986 -2.24829 -1.02066)
(351.925 -1.24144 6.57791)
(408.534 -7.29491 3.74655)
(343.505 9.1098 2.52052)
(397.338 5.77893 -2.22205)
(433.014 0.00195573 0.093631)
(293.182 -6.80669 -22.1282)
(329.482 -6.25187 8.59523)
(428.578 -2.8961 -6.57495)
(438.255 2.09369 0.0206044)
(333.442 0.0638649 -0.00989356)
(402.753 -2.17686 6.36703)
(435.665 0.00181829 0.0549324)
(326.803 3.22453 -3.8876)
(438.686 -8.09607 0.0124981)
(428.602 -2.0496 0.454676)
(433.746 -4.70422 2.27861)
(349.704 -4.48208 3.28017)
(327.35 -3.6685 4.60352)
(340.425 14.0411 9.49704)
(307.737 -2.95525 4.04682)
(412.432 -5.82477 1.64865)
(438.903 0.566152 -0.817279)
(439.977 0.271309 -1.02933)
(415.905 -2.21451 -2.82728)
(438.164 1.91636 1.68148)
(444.49 2.21144 -0.269842)
(438.983 -0.293547 -1.71737)
(417.084 0.176668 -0.424641)
(396.519 7.28181 -1.99586)
(395.322 -2.27807 -2.67601)
(435.244 4.5391 -5.82133)
(350.929 0.132178 -2.64339)
(434.104 -5.82452 -28.9853)
(431.351 -3.65332 -1.80855)
(396.611 1.33905 -5.50907)
(447.409 3.26443e-05 0.00608916)
(399.741 -1.62029 -3.33037)
(444.603 0.2378 -1.85722)
(435.006 -4.31007 -6.62436)
(440.103 -3.44448 4.38092)
(362.393 0.665561 13.1154)
(419.966 12.665 7.16598)
(436.767 -2.7188 -2.10952)
(430.554 13.3797 6.45293)
(426.652 -7.60613 -9.13706)
(440.771 0.728647 1.19715)
(406.305 -3.10762 4.66696)
(441.834 -6.89186 -3.27873)
(447.86 -8.37867 11.3817)
(420.669 -1.1056 -6.20512)
(379.643 -0.60637 0.192667)
(419.642 -0.754035 -0.0119876)
(409.937 -5.36674 -9.97074)
(424.897 1.59352 0.26107)
(442.601 0.0668934 -0.637189)
(293.987 23.0072 1.9159)
(439.849 0.0386226 -0.982385)
(416.27 -0.811682 -1.21113)
(351.579 0.555655 -3.55521)
(376.275 5.34965 1.15731)
(313.972 10.0397 2.40722)
(406.787 1.93242 3.2061)
(438.518 0.861022 3.63811)
(437.678 -1.45816 -2.25691)
(439.381 -8.30489 5.2546)
(435.283 5.62129 -5.32598)
(430.69 4.4836 3.63925)
(425.682 -6.10663 -5.08194)
(389.149 1.69818 13.9213)
(402.786 -1.96328 1.78279)
(279.154 -8.28189 -4.76074)
(307.461 9.09592 5.07949)
(368.401 -1.10068 -0.777812)
(409.015 5.83919 -14.8584)
(416.119 4.60647 2.13068)
(444.226 0.000987781 -0.0313016)
(409.302 -7.49055 9.21267)
(441.482 -2.62171 0.921422)
(419.718 -12.0148 -0.10502)
(275.282 -3.61081 -1.15636)
(409.632 0.455431 -1.15474)
(407.067 0.786872 -4.89667)
(443.593 0.00089727 0.0261181)
(310.181 0.251742 0.510606)
(325.343 -9.18905 5.84714)
(298.101 -1.56748 -1.16212)
(306.841 2.01519 6.39276)
(328.147 -0.201014 4.22225)
(310.359 27.7262 -13.873)
(311.137 15.177 -8.25235)
(331.285 13.3116 -18.4069)
(337.394 -0.0672468 0.208627)
(358.418 -9.93555 9.2308)
(318.205 8.64794 10.4934)
(338.126 3.04542 -4.56128)
(333.695 -1.95606 -2.84467)
(302.573 16.7756 23.1233)
(330.757 5.10677 -8.91451)
(325.517 1.41637 17.8687)
(340.704 -15.1996 -9.86626)
(308.733 9.96897 12.8205)
(335.546 2.93356 -2.47105)
(337.498 1.80692 9.79714)
(338.621 0.00344773 0.0984864)
(330.258 1.07034 -0.650359)
(332.881 -6.31918 -9.9331)
(333.55 -1.96081 6.43158)
(311.232 0.0372316 -0.281153)
(327.276 -1.48977 0.251175)
(342.97 0.00449109 0.035347)
(334.067 2.27193 1.37402)
(334.444 -2.27361 -8.14509)
(341.229 -0.00265571 0.0592429)
(329.893 7.54077 -1.92014)
(338.023 -2.94196 0.389187)
(340.637 1.76273 -0.468871)
(348.314 1.576 12.6194)
(341.154 -1.90635e-05 -0.0155139)
(307.498 -0.522075 -1.41676)
(328.086 7.89922 15.1354)
(338.433 0.819295 -1.20241)
(331.26 -2.32157 11.74)
(342.531 2.06856 0.566173)
(337.945 0.215647 -0.252761)
(349.659 5.6981 7.28015)
(339.035 -0.00450104 0.0559603)
(340.964 2.88003 0.349717)
(332.352 4.3276 0.895187)
(339.113 2.74224 1.62156)
(343.299 0.404162 -0.856964)
(338.088 16.1253 15.1325)
(350.018 0.241917 -3.09777)
(285.053 27.1243 -1.28377)
(350.445 0.00220318 -0.117251)
(335.959 0.0346724 -0.762519)
(345.989 4.93009 -0.581626)
(328.412 13.1329 -1.17714)
(323.938 0.396927 -0.999631)
(343.337 -0.000822071 0.0240206)
(344.039 0.000792571 -0.0434741)
(342.8 6.7635 -26.8104)
(346.196 7.21005 0.0471457)
(345.058 0.0199584 4.16233)
(344.247 7.50274 -22.709)
(344.28 5.20309 2.8725)
(338.393 3.41512 -1.42591)
(348.912 0.525277 -0.134237)
(331.072 15.3517 -2.3057)
(340.977 -0.0818931 0.647819)
(343.141 0.597978 -0.16701)
(318.131 8.20125 3.37038)
(319.663 3.87436 15.8053)
(338.128 -11.4538 -4.35951)
(347.996 0.255753 7.5454)
(354.987 -0.00186744 0.0438065)
(352.344 2.22742 -11.6788)
(352.104 -5.46504 -12.2458)
(339.742 -0.381592 -3.59857)
(341.489 1.67301 0.82142)
(312.062 10.1526 -5.4917)
(337.582 -3.46653 3.9633)
(331.103 0.67535 -3.77994)
(349.597 0.340512 16.2379)
(346.364 0.00132967 -0.0407757)
(338.88 -5.43242 -6.9342)
(347.749 0.10985 -0.0498659)
(306.911 0.470035 22.0107)
(263.188 11.4162 -28.6461)
(333.236 12.0145 7.39919)
(353.065 -0.000465871 0.103236)
(332.591 3.49747 -17.3925)
(308.328 1.89883 2.81644)
(316.553 5.74097 -0.217984)
(328.801 11.3787 6.66341)
(352.168 6.89325 14.1101)
(350.578 -0.463208 -0.533296)
(355.237 5.55253 -8.55888)
(349.086 0.399132 -1.4911)
(349.295 4.75969 -1.05987)
(299.805 16.0252 11.3561)
(326.325 -9.36323 34.8635)
(349.68 0.0594479 -0.673891)
(342.694 6.77988 2.58833)
(347.81 -3.49353 3.56015)
(349.092 0.65519 -8.5669)
(290.691 -0.837381 -0.78511)
(329.657 -4.56727 8.90626)
(348.25 -0.41346 -0.335293)
(345.78 1.70977 -0.242385)
(365.114 3.46853 -4.74597)
(328.424 25.9387 19.2006)
(349 4.68496 -14.6568)
(320.11 -0.765779 21.3671)
(353.169 10.1684 16.3186)
(306.625 1.69651 27.6662)
(276.978 24.0547 -16.2685)
(354.495 0.104967 -0.135924)
(339.792 7.23611 23.9917)
(356.682 -1.67362 7.80056)
(290.141 37.1973 -12.5785)
(309.273 14.0228 -7.32355)
(358.597 -3.69783 -14.8696)
(286.649 8.16324 4.90814)
(309.175 2.48108 0.419118)
(350.634 -0.135848 0.0213278)
(312.179 -11.2583 -17.3036)
(314.048 20.3481 -3.7485)
(344.64 10.3087 -19.361)
(334.154 -9.12266 -8.71585)
(372.026 0.057621 0.066064)
(344.112 -0.491029 5.18784)
(354.755 -25.4627 -26.9345)
(363.803 22.3481 5.22733)
(357.361 -34.0367 10.6262)
(363.361 0.0054939 0.153266)
(310.173 0.95834 3.30479)
(331.315 4.46415 -20.2469)
(343.961 1.94143 -7.21364)
(344.282 17.9941 -37.7963)
(347.327 0.752346 2.87548)
(363.969 29.2667 -7.18681)
(340.484 -0.104183 -21.276)
(325.305 -3.41621 17.0899)
(337.313 12.7024 9.90314)
(357.12 12.1636 -30.3214)
(356.065 0.00189288 -0.0481145)
(281.783 1.76303 0.617512)
(349.052 -0.010748 -0.0144237)
(354.727 4.01442 -2.72252)
(343.239 -0.33022 -0.20803)
(325.434 6.26616 -0.245285)
(351.415 6.25143 1.72709)
(311.512 5.60378 7.76039)
(337.918 -11.5559 18.7528)
(335.018 0.00172341 -0.170086)
(356.141 1.94939 -1.79559)
(341.823 -0.238717 -0.015126)
(352.059 0.000378862 -0.0441731)
(357.685 0.000795346 -0.0763249)
(363.669 0.993158 -2.23758)
(332.897 -11.9847 -4.65445)
(356.016 3.50459 -1.80682)
(350.126 -0.103571 -0.197596)
(350.309 -3.44686 0.141012)
(345.517 4.28514 -5.21771)
(331.542 -0.883929 -0.526053)
(357.391 -0.0635683 -0.26286)
(298.602 4.53673 -0.798674)
(358.173 6.08697 -1.38721)
(334.153 -7.93098 0.572023)
(375.336 -3.90137 21.1397)
(369.786 -3.78715 -3.19826)
(343.174 3.64275 -1.70279)
(359.93 0.000117401 -0.00974362)
(323.538 15.2907 -5.12078)
(334.855 0.177579 14.7681)
(354.358 -0.524728 -6.97764)
(361.065 -0.0372138 0.660167)
(363.415 14.0064 4.65578)
(327.2 -2.16721 -9.42186)
(365.866 0.0508406 -0.0322495)
(361.866 0.000362128 0.0133877)
(366.271 0.0380546 5.71874)
(300.246 -0.670825 -1.15282)
(358.92 -1.07278 0.475045)
(333.73 31.4873 -0.670599)
(377.143 -0.682436 12.3507)