/*--------------------------------*- C++ -*----------------------------------*\
  =========                 |
  \\      /  F ield         | OpenFOAM: The Open Source CFD Toolbox
   \\    /   O peration     | Website:  https://openfoam.org
    \\  /    A nd           | Version:  7
     \\/     M anipulation  |
\*---------------------------------------------------------------------------*/
FoamFile
{
    version     2.0;
    format      ascii;
    class       vectorField;
    location    "0.14/lagrangian/reactingCloud1";
    object      UTurb;
}
// * * * * * * * * * * * * * * * * * * * * * * * * * * * * * * * * * * * * * //


1200
(
(-11.0137 17.0816 9.34341)
(0.103954 11.6521 -7.46917)
(1.41665 -1.96199 -4.58405)
(0.00976751 -0.027769 0.00742465)
(-1.65634 -1.71226 3.00349)
(-5.50917 -14.9295 -4.07688)
(6.66307 -7.7842 -2.67427)
(-0.302385 11.8619 -13.8232)
(-3.31768 -7.3682 -3.31898)
(-2.38813 -1.40681 -0.459089)
(1.2927 4.64998 0.428148)
(0 0 0)
(2.68978 0.77588 0.588518)
(-8.14401 -9.00657 2.89383)
(-0.865748 -1.63831 0.058428)
(-3.70161 -2.2893 1.91568)
(-11.3746 -21.415 10.8516)
(0 0 0)
(0 0 0)
(0.440867 -0.781636 1.26539)
(0 0 0)
(0 0 0)
(-0.762806 -0.619664 -0.730893)
(-1.99291 1.0595 0.016622)
(-2.76154 -1.08353 -1.61207)
(-0.350999 6.66652 1.81641)
(-18.0637 12.4944 -16.7945)
(-0.933226 0.781431 3.40876)
(0 0 0)
(1.02425 1.72669 -2.58742)
(0 0 0)
(0.526371 -4.16539 -13.8806)
(0 0 0)
(5.27625 -9.05767 -22.0569)
(0 0 0)
(9.32368 -2.28866 -10.816)
(-2.17822 2.89722 -2.31798)
(0 0 0)
(0 0 0)
(0 0 0)
(0.549593 0.0846129 -0.283483)
(-19.6794 -3.34411 -5.28651)
(0 0 0)
(-0.00427022 0.283943 -0.795556)
(-8.21879 -3.59735 -8.61635)
(-1.88794 1.81921 -1.4996)
(-12.393 -3.72594 -2.13224)
(0 0 0)
(0 0 0)
(8.75529 -14.7176 5.01913)
(0.972487 -0.156288 0.346832)
(0 0 0)
(0 0 0)
(-1.88104 2.50841 -3.76839)
(-8.95133 -4.09482 5.73183)
(0 0 0)
(-0.38708 -3.28958 1.02653)
(6.42036 -6.36438 9.92889)
(0.682611 1.97657 -2.143)
(12.3663 -4.6152 7.35994)
(0 0 0)
(0.760803 -7.73777 0.890005)
(0 0 0)
(0 0 0)
(0 0 0)
(0.591323 -0.573731 -0.263077)
(0.302481 -0.354547 -0.110575)
(0 0 0)
(0 0 0)
(-0.00377082 0.873257 0.339451)
(10.1616 -5.23097 3.74904)
(0 0 0)
(0 0 0)
(0 0 0)
(4.21917 0.434713 -14.8703)
(-7.91239 -16.9648 2.49186)
(0 0 0)
(0 0 0)
(0 0 0)
(0 0 0)
(-8.72864 -5.0702 -23.6869)
(0 0 0)
(1.7364 -0.916891 3.02856)
(0 0 0)
(0 0 0)
(0 0 0)
(-8.62771 -5.66951 0.5508)
(-0.116102 -0.616444 -0.448617)
(0 0 0)
(0 0 0)
(0 0 0)
(0 0 0)
(0 0 0)
(0 0 0)
(0 0 0)
(0 0 0)
(0 0 0)
(0 0 0)
(0 0 0)
(0 0 0)
(-4.51359 -5.29857 6.30796)
(4.62704 -5.25718 -6.3054)
(0 0 0)
(0 0 0)
(0 0 0)
(0 0 0)
(0 0 0)
(0 0 0)
(0 0 0)
(-1.92519 -1.18126 8.99253)
(0 0 0)
(0 0 0)
(0 0 0)
(0 0 0)
(0 0 0)
(0 0 0)
(0 0 0)
(21.2736 -1.1081 -6.87109)
(0 0 0)
(0 0 0)
(0 0 0)
(0 0 0)
(0 0 0)
(0 0 0)
(0 0 0)
(0 0 0)
(0 0 0)
(0 0 0)
(0 0 0)
(0 0 0)
(0 0 0)
(0 0 0)
(0 0 0)
(0 0 0)
(0 0 0)
(0 0 0)
(0 0 0)
(0 0 0)
(0 0 0)
(0 0 0)
(0 0 0)
(0 0 0)
(0 0 0)
(-0.257821 -0.150471 0.564158)
(-2.16653 -0.182225 0.0519043)
(-2.88106 -2.74134 0.688736)
(-0.318198 0.332051 -1.37405)
(0.952677 0.727995 -0.333284)
(1.16369 0.0626499 0.73751)
(-9.79737 -8.51871 2.70062)
(-4.47815 0.0479693 -0.322763)
(0 0 0)
(0 0 0)
(0 0 0)
(0 0 0)
(0 0 0)
(6.90845 -9.58907 4.61183)
(-0.399242 -1.40444 -2.46454)
(4.18969 4.43916 9.59429)
(0 0 0)
(0 0 0)
(16.3947 -8.89622 9.10161)
(0 0 0)
(0 0 0)
(0 0 0)
(0 0 0)
(1.85174 4.29121 -0.510671)
(-0.160041 -1.30623 1.11463)
(0 0 0)
(0 0 0)
(0 0 0)
(3.07868 -2.3708 -5.38078)
(0 0 0)
(0 0 0)
(0 0 0)
(0 0 0)
(0 0 0)
(0 0 0)
(0 0 0)
(6.53664 -2.87561 -0.319118)
(0 0 0)
(0 0 0)
(0 0 0)
(0 0 0)
(0 0 0)
(0 0 0)
(0 0 0)
(0 0 0)
(0 0 0)
(0 0 0)
(0 0 0)
(13.4264 6.62087 -12.6896)
(0 0 0)
(0 0 0)
(0 0 0)
(10.1527 19.2394 -19.275)
(0 0 0)
(0 0 0)
(0 0 0)
(0 0 0)
(3.12292 -3.43042 2.77506)
(5.49835 1.36232 13.0994)
(0 0 0)
(2.0095 0.540356 -0.932307)
(-2.99175 -4.15801 -13.5141)
(-0.947246 -7.2201 1.48105)
(0 0 0)
(0 0 0)
(0 0 0)
(0 0 0)
(-5.49193 0.677419 -2.4493)
(-1.57038 0.386716 -0.559101)
(0 0 0)
(0 0 0)
(4.9156 -3.73989 2.35909)
(0 0 0)
(-5.22703 -24.9506 -8.17027)
(0 0 0)
(0 0 0)
(0 0 0)
(0 0 0)
(0 0 0)
(0 0 0)
(0 0 0)
(0 0 0)
(0 0 0)
(0 0 0)
(0 0 0)
(0 0 0)
(0 0 0)
(0 0 0)
(0 0 0)
(8.49463 -4.9233 -2.95133)
(0 0 0)
(0 0 0)
(0 0 0)
(0 0 0)
(0 0 0)
(0 0 0)
(0 0 0)
(0 0 0)
(0 0 0)
(0 0 0)
(-5.85918 -16.4547 5.51267)
(2.94888 -1.86516 3.74227)
(0 0 0)
(0 0 0)
(0 0 0)
(0 0 0)
(1.28543 0.496812 -0.259278)
(-1.38871 -2.69457 -12.6918)
(-4.39513 -2.4069 3.79714)
(0 0 0)
(0 0 0)
(0 0 0)
(-0.757971 -1.04137 14.6185)
(3.05741 13.5663 -6.84352)
(0.543402 1.08018 3.19333)
(-0.543696 -0.44178 3.27923)
(0 0 0)
(1.49932 4.30403 -0.83939)
(-0.0859447 0.544659 0.787687)
(-0.0502115 -5.16768 3.35919)
(-11.3852 -6.92528 -0.621611)
(0 0 0)
(0.469245 -0.00557235 -0.498524)
(11.2131 -0.373776 2.11044)
(0 0 0)
(-6.74742 2.61792 -3.19645)
(8.43406 -2.86917 1.54579)
(0 0 0)
(-3.59833 -1.92059 2.37885)
(-2.95601 9.6334 5.28683)
(0.970278 -0.0980621 -2.11524)
(0 0 0)
(-3.91866 9.47807 -1.00087)
(4.89064 10.2263 4.77349)
(0.436058 3.33657 -5.1676)
(0 0 0)
(0 0 0)
(0 0 0)
(2.68026 2.41979 2.43242)
(0 0 0)
(0 0 0)
(0 0 0)
(4.88289 0.320017 -2.47389)
(0 0 0)
(5.59607 -0.178169 3.13995)
(0 0 0)
(0.906267 -1.70219 2.01743)
(0 0 0)
(12.4157 0.446075 -4.56227)
(4.98681 0.672816 5.83962)
(-3.68168 4.47994 -2.30949)
(-0.518175 6.47485 -1.1249)
(-0.550293 1.15502 0.131453)
(7.04195 -6.99979 -10.6077)
(-0.367888 -2.5481 0.350964)
(0.483464 -4.44997 -5.29081)
(-1.93944 11.5793 -4.50436)
(-0.0665301 5.67574 -9.58875)
(3.02244 0.332679 9.54186)
(-7.90088 4.57923 2.38282)
(-1.5815 -5.20298 -0.46377)
(-3.90987 10.1909 16.8688)
(0.654556 3.07748 -2.62972)
(-20.3123 7.10214 -4.92955)
(12.8725 7.66614 -4.14806)
(-8.18462 -1.70503 0.744099)
(3.2878 -3.19121 0.76017)
(-10.0162 -6.61225 -7.95192)
(-3.45082 15.2411 1.17561)
(-2.40274 -1.34622 16.4545)
(-1.16259 9.80623 -6.94206)
(6.2927 -1.11839 -13.7193)
(-2.21244 23.1093 1.57885)
(-2.19741 2.51313 1.44509)
(-4.65246 -8.4811 12.2573)
(14.3278 15.5053 -0.330739)
(16.2967 6.24213 3.98456)
(3.02802 0.442798 -0.965603)
(-4.52272 3.72841 -0.141709)
(4.65432 -13.8515 -20.0923)
(-0.91242 -4.30575 3.96591)
(-0.119194 -3.38452 -1.89289)
(1.52851 0.769408 -0.827367)
(4.91241 -6.2046 -2.60236)
(-8.38839 9.93077 7.62006)
(14.9389 6.55573 8.17941)
(1.22548 0.0464214 1.48542)
(3.5756 -0.18044 -0.410202)
(-3.39326 0.349185 1.59848)
(-2.62632 -0.627488 -2.20316)
(-1.4228 2.53326 8.19211)
(2.70012 -2.6825 -1.49931)
(1.18508 5.43106 -5.78409)
(-1.94966 -1.06533 0.552027)
(1.52587 10.7714 -6.16225)
(0.580167 0.155714 2.23464)
(-5.02753 -1.36905 2.02607)
(9.73404 -4.66124 -4.89891)
(10.895 -8.05554 -5.91527)
(3.53923 3.52749 -4.50922)
(-3.32657 12.5713 8.90761)
(-2.25013 -1.83048 -2.88914)
(2.8439 -1.66488 0.0997805)
(-1.2943 -2.86467 10.7032)
(-1.39406 1.67083 -1.65017)
(1.07856 -5.87358 6.32077)
(-1.83165 -1.45375 -1.33423)
(-32.2277 -12.15 -3.90951)
(13.7807 9.53891 1.31302)
(-6.05239 -12.0601 -1.91848)
(-0.123756 0.242246 -0.176738)
(-4.90932 -2.75006 3.31343)
(-0.732127 -3.17055 -2.03217)
(0.941836 -0.0598895 -0.405584)
(-7.48523 6.52633 -9.49441)
(4.86167 -7.0498 -1.63121)
(0.726249 -0.568603 1.87322)
(-0.527699 -1.17605 1.2218)
(-2.31749 -4.46203 5.9412)
(9.31209 -3.3347 -3.16493)
(6.62351 -0.658206 -5.42373)
(-9.91911 -5.09071 -6.10648)
(-0.540888 -0.00534209 -0.28845)
(2.01682 -0.406645 0.19244)
(11.1761 15.0709 -11.2961)
(6.83191 -14.6366 3.24271)
(3.19274 -1.47756 2.34552)
(7.47966 -3.81481 -3.08994)
(0.766376 -7.9072 -3.21495)
(7.70904 0.0431756 0.373176)
(-0.778724 5.27439 3.22453)
(0.228233 -0.240583 -0.285582)
(10.9649 -14.4955 5.54939)
(-3.92056 0.888056 3.25947)
(-3.15775 4.39844 -1.79691)
(-1.02454 5.56264 -1.27097)
(-1.44848 -2.54196 -0.468475)
(1.82346 0.924353 -6.75826)
(-10.16 -7.79186 -0.0690606)
(-3.48221 7.0986 -10.5151)
(0.331102 0.247167 -0.492831)
(2.7512 0.328869 1.70617)
(0.909893 5.27623 -2.12446)
(-11.6844 -0.759318 -9.41165)
(-2.07196 -0.442788 1.64525)
(-6.33773 -9.71043 6.75123)
(5.0446 -7.31507 -1.69259)
(10.2046 2.84046 -12.0658)
(-0.163925 0.526478 -0.0442107)
(0.485467 -5.00888 -2.03654)
(4.46401 5.56077 10.4009)
(1.26884 -0.696557 2.96906)
(0.639585 -8.98452 -1.84969)
(-7.97227 -9.70841 11.0764)
(-11.8478 -11.3891 3.78354)
(0.356781 -2.38957 -9.71464)
(1.89057 5.65685 2.30031)
(0.498159 0.703757 -0.278436)
(-0.072713 5.53501 5.45558)
(-5.23612 4.30194 -1.39088)
(2.05307 -1.39113 -7.03896)
(4.70976 3.41872 -8.96468)
(-1.40089 -11.7814 8.55613)
(-16.1374 -9.46208 -3.77515)
(-4.52858 -0.751734 -0.209323)
(1.90194 -4.24526 -1.99681)
(-0.614217 -16.0703 8.33344)
(-0.0727233 3.02925 -2.22588)
(0.259482 0.593882 -3.0362)
(-1.85605 -0.873218 4.56629)
(-0.388442 -4.09598 -13.8104)
(2.34303 -3.73871 1.85666)
(24.9019 4.63293 -6.11361)
(-0.12686 -3.23361 1.40722)
(-8.07847 -2.97094 -0.738096)
(2.49881 -2.18436 1.31935)
(-5.29077 0.395475 3.89525)
(-0.179061 1.82114 0.871031)
(3.47299 -7.24321 1.92289)
(-9.5663 -3.8327 3.43322)
(-0.504609 -0.30678 -0.229802)
(-0.716574 -3.92581 -3.13617)
(-6.59848 -0.188258 -1.52476)
(-4.51382 0.408663 -0.651257)
(-0.600111 0.385494 1.77569)
(-3.88177 6.2425 4.23232)
(-6.19816 12.3518 4.91074)
(-0.0416258 5.40509 4.1304)
(1.55633 -6.48115 3.62898)
(-0.290878 -2.84264 -0.538234)
(-1.77155 -3.90848 0.327827)
(7.9742 -2.83296 18.7528)
(-5.18441 -4.57828 6.99351)
(-0.205982 -0.211456 0.103215)
(0.0719056 7.37359 1.74417)
(-0.249089 0.673144 0.25308)
(-6.55083 3.92215 3.09737)
(-8.11522 13.4962 1.10277)
(1.65062 -5.19967 2.43862)
(4.67531 -2.97719 1.74548)
(-0.254096 0.381425 8.51745)
(0.980519 0.450635 -0.913739)
(-0.247521 -0.188722 -0.77203)
(-4.00176 2.82542 10.5252)
(-0.437907 -1.24213 6.26423)
(-2.61611 4.26725 3.64224)
(-0.665333 -6.05254 1.32154)
(1.57652 2.57107 -6.12036)
(1.44767 0.572648 -1.55241)
(7.68782 -11.4441 2.51314)
(13.0225 1.10005 -11.9282)
(0 0 0)
(-6.79183 1.56823 -0.886942)
(-3.44399 -8.0549 -3.90809)
(-1.58096 -0.905254 -1.62343)
(0 0 0)
(-1.23048 1.06816 0.429044)
(2.58665 1.29955 4.59868)
(-0.521786 -0.263747 0.401107)
(-23.2146 -13.8184 -0.77476)
(-9.61124 -2.7566 6.3292)
(6.64832 -1.03109 -4.1769)
(13.6428 4.61536 -5.73301)
(1.13364 5.58563 -5.76365)
(3.51163 -16.2286 -9.51525)
(-6.81417 -7.91815 -4.15035)
(-0.379288 -1.3571 -5.87323)
(0.92052 6.04361 1.25438)
(1.37781 0.807445 0.380805)
(14.4908 5.29314 5.12096)
(-2.47677 2.16489 -0.385444)
(0.00348119 0.00253422 0.00333918)
(15.9191 -4.81581 7.14715)
(1.90678 6.32318 -4.56748)
(0 0 0)
(-1.92711 7.40643 -2.60459)
(7.17349 4.41078 -10.2193)
(0.254684 2.19729 -1.56863)
(0 0 0)
(0.402959 0.347054 0.958905)
(2.61669 -1.48083 3.55251)
(0.239525 -12.251 -22.0853)
(25.6723 -7.59655 -1.24567)
(-2.57356 0.683889 0.572629)
(1.39258 0.244153 2.22219)
(-0.390355 -10.2132 5.29619)
(-0.140038 1.95562 -0.420092)
(-0.855571 3.0663 -3.88643)
(0 0 0)
(-1.67164 -3.38991 -0.0673844)
(3.70258 2.18275 3.50271)
(-8.01597 -6.01616 -18.376)
(-0.125767 -1.82946 3.77661)
(6.43974 -0.136861 -1.66725)
(5.32352 8.22966 6.99985)
(7.42609 -0.699659 -1.08036)
(6.18089 -1.07462 3.73274)
(0.454714 -6.83334 1.6965)
(-0.00805184 0.00615751 -0.00936832)
(-6.79785 2.48564 3.70359)
(1.28656 2.44848 1.85522)
(0 0 0)
(0.187864 0.0241454 -0.076842)
(0 0 0)
(2.52145 -1.04023 -6.3406)
(-0.208902 -3.20142 0.937909)
(0.520354 -0.0217711 0.0021599)
(-1.01449 0.948796 2.96148)
(-0.533748 0.1127 4.04887)
(0 0 0)
(-2.06777 -14.9489 11.8904)
(3.47914 11.2664 1.52074)
(-9.67339 7.15272 -3.40685)
(2.15122 -3.23419 -3.36015)
(-4.90476 3.62669 -1.7274)
(-11.8907 0.162676 1.37091)
(-4.45212 -11.7076 -11.9954)
(-5.47758 0.054194 -4.66168)
(3.28198 -3.71705 -1.08916)
(7.59825 8.41308 -2.9403)
(3.9005 4.73571 -4.71833)
(-0.221352 -0.168769 -0.690407)
(-0.447045 0.437168 -2.39291)
(1.08669 -6.51352 6.13619)
(3.3252 4.05862 0.376081)
(1.3287 -6.1718 -0.877973)
(0.886935 1.13771 -1.05297)
(-0.00683519 -0.0678022 -0.0169635)
(-0.00869248 -0.320327 -0.130275)
(-5.83358 5.25997 -0.846428)
(-1.18846 -3.17347 -0.725754)
(-0.355846 4.09299 3.94908)
(0 0 0)
(0 0 0)
(0 0 0)
(0.834429 -5.0015 4.71176)
(-12.28 19.0456 10.4177)
(6.23166 -3.56017 -17.9756)
(2.93397 -0.172636 -0.534282)
(0 0 0)
(6.26342 -2.79624 -3.42174)
(-3.719 -2.89484 -2.14772)
(-0.105846 -0.705257 -0.105114)
(1.86012 9.16512 -9.45722)
(3.51567 -5.51961 -2.574)
(0 0 0)
(-13.5202 0.774707 2.38134)
(4.93909 12.5002 -9.67892)
(0 0 0)
(0.0373213 -0.0943559 -0.62339)
(0.694646 1.39651 7.43924)
(5.28475 9.105 7.63245)
(1.06446 -18.6865 6.71205)
(-1.34618 -2.71454 -1.14101)
(-0.774489 -5.97551 0.0418727)
(-2.54406 -5.27479 1.95605)
(6.12181 11.5802 -4.47848)
(-2.66099 27.7945 1.89895)
(16.7968 24.0154 19.9231)
(-2.87047 26.7841 -3.84285)
(-7.183 21.5842 -1.02055)
(-1.76137 1.76326 8.06802)
(15.1024 23.7402 -3.38293)
(0.861307 15.9043 -1.15599)
(-13.3294 9.85603 -4.69445)
(13.6506 2.77763 10.7263)
(1.43426 -1.39159 -0.638093)
(-1.17165 -1.73448 2.14666)
(3.62506 -2.45628 -12.4285)
(-4.01751 15.4404 -5.42988)
(-1.36811 -0.691541 1.05169)
(-0.35963 -0.274199 -1.1217)
(12.5305 -0.398949 7.03086)
(23.6013 7.98436 -9.91785)
(1.59537 3.03619 2.30053)
(-4.61757 0.418056 -0.666226)
(16.8017 26.4113 -3.76356)
(-0.080985 6.16469 6.07622)
(12.284 -4.07451 -0.576361)
(-1.35388 4.63276 -4.3118)
(3.33361 -3.21517 -6.46579)
(0.777678 1.28951 -2.13463)
(5.22417 3.79212 -9.94383)
(1.0232 7.82921 -12.1257)
(-7.97108 3.25482 -13.9243)
(13.862 -0.294603 -3.58888)
(1.36259 -0.137711 -2.97049)
(-4.81097 2.43449 2.28102)
(-3.18706 2.76664 1.11126)
(-4.32515 7.49063 -9.64848)
(1.996 1.0028 3.54859)
(-0.595892 -5.42084 1.18362)
(-2.98525 -6.53308 3.78935)
(11.78 -2.04807 7.1141)
(0.0731261 0.159832 -0.0215535)
(0.314686 0.0404453 -0.128716)
(-0.46344 0.2977 1.37129)
(15.6423 1.32135 -14.3279)
(2.2934 3.83581 -0.713318)
(12.3734 -9.41398 5.93825)
(16.8868 22.7716 -17.068)
(3.86203 -0.59896 -2.42638)
(-6.87914 11.281 -6.66372)
(-4.06506 -2.39466 -0.781458)
(-0.00677185 1.56824 0.609605)
(-23.6278 36.6454 20.0445)
(-5.5257 6.77065 10.1011)
(-1.25147 -2.76988 10.349)
(-0.624278 0.131816 4.73562)
(2.97135 2.96149 -3.7857)
(-0.786784 -1.88569 -0.0131172)
(-0.504942 -2.76636 -2.20993)
(2.79238 -0.795503 -0.163721)
(21.5257 -11.081 7.94174)
(2.60311 12.8259 -13.2347)
(6.01231 7.6016 -7.45914)
(2.39972 -2.73187 17.0336)
(3.57518 -0.180419 -0.410154)
(-0.162235 1.02813 1.48689)
(0.573376 -0.672072 -0.209604)
(6.89404 17.4011 14.173)
(1.74624 0.885206 -6.47205)
(-1.25241 -1.01765 7.55375)
(-0.229498 -1.52915 -0.22791)
(2.11905 1.24184 0.585673)
(-7.97396 15.8907 6.31769)
(0.416643 -1.56262 -0.880545)
(13.4739 0.0754627 0.652241)
(5.01539 -2.32106 3.68453)
(-1.71179 4.46172 7.38535)
(2.82205 -8.88983 4.16929)
(8.76979 2.44107 -10.3692)
(-9.82295 -3.93553 3.52533)
(-0.101497 13.1793 10.0712)
(-0.0110082 -0.109197 -0.02732)
(-0.207194 -8.12661 7.11587)
(-1.71409 -0.3159 -0.207844)
(-1.49888 -11.5645 0.081037)
(-18.2979 0.250333 2.10962)
(12.5017 8.11011 -1.47811)
(5.95731 -6.74702 -1.977)
(3.86855 -4.88615 -2.04937)
(1.53104 -0.840497 3.5826)
(0.799148 0.688277 1.9017)
(-0.18596 -0.190902 0.0931822)
(-6.78432 0.0671226 -5.77379)
(-1.70608 -0.364598 1.35472)
(-0.246765 -0.699953 3.52997)
(11.7007 -2.87214 -13.5735)
(-5.37625 -1.97717 -0.491206)
(-11.0126 9.92971 -1.59788)
(-0.125958 -1.83224 3.78235)
(0.0782859 -0.197923 -1.30763)
(1.12585 0.324756 0.246333)
(1.53858 2.59376 -3.8867)
(-5.00301 -10.3731 3.84667)
(1.44554 9.52559 3.14705)
(-6.35563 -4.45535 -2.76653)
(-0.390955 -2.37824 3.24927)
(5.75849 4.60854 3.13127)
(-6.24771 3.72259 -1.11909)
(8.92019 1.87631 1.47388)
(-0.390636 1.2546 -0.105355)
(11.1199 -3.11916 12.3857)
(-0.00910438 -0.335505 -0.136449)
(11.5435 14.9081 6.12281)
(2.89276 8.30412 -1.6195)
(-2.32111 -17.692 3.62913)
(6.33326 -4.03296 2.36446)
(7.44153 -0.739496 -6.09358)
(2.5151 -2.48832 -2.91163)
(-17.7098 -7.75155 -18.5664)
(5.17455 21.0963 -21.6588)
(-1.16129 6.30508 -1.4406)
(-0.540339 -5.07918 3.39059)
(0.664895 -6.45004 10.8153)
(-2.46269 -11.7531 1.5803)
(-0.439311 -0.266029 -1.13542)
(-0.947198 -1.37519 10.0803)
(14.319 -6.63766 4.1993)
(0.3116 2.68833 -1.91918)
(1.63496 0.751409 -1.52361)
(-8.15476 -16.2494 -2.58488)
(-2.5731 -5.21798 -0.103723)
(-2.0984 -0.34833 -0.096994)
(-14.7461 5.72129 -6.98565)
(-17.3229 3.99985 -2.26219)
(7.62012 -2.7288 -2.58988)
(0.00517245 -0.0147053 0.00393177)
(-13.9405 7.83261 -10.0904)
(0.774002 0.838856 0.338759)
(3.77282 -5.92335 -2.76228)
(-0.213836 0.577874 0.217261)
(0.991698 -10.0861 1.16011)
(6.50259 -3.67994 8.82814)
(2.42227 6.13045 -4.7468)
(-10.2481 6.62041 2.03377)
(4.59949 -0.25928 0.655709)
(-0.933026 -2.4914 -0.56977)
(4.19878 3.79075 3.81053)
(-0.66448 4.21937 2.41282)
(0.640405 1.50937 1.04848)
(4.60781 -1.90097 -11.5871)
(15.8957 -0.529868 2.99177)
(2.1732 0.859644 -2.33043)
(-9.22655 -4.73528 -5.68012)
(-13.1598 7.87914 6.22224)
(-2.51437 -3.25648 3.40082)
(5.19463 -5.26519 11.3784)
(0.411566 0.941959 -4.81573)
(-4.99328 -2.46078 3.92029)
(-26.7863 -8.05328 -4.60864)
(-3.78584 5.03549 -4.02875)
(-1.93909 -1.50937 -1.11982)
(-4.04033 6.59037 5.62509)
(6.73543 4.14143 -9.59526)
(-3.26025 5.98325 2.32503)
(13.9158 5.08311 4.91777)
(-1.54145 2.81798 14.7465)
(-27.6364 -2.99271 -3.7428)
(-0.356465 -2.29175 3.79712)
(3.19873 -8.12917 1.12634)
(1.61496 5.8092 0.534883)
(16.6193 18.4016 -6.4312)
(15.8353 2.86707 8.2064)
(1.00321 1.3408 0.508042)
(8.30253 6.84352 7.44215)
(-32.4875 -5.5206 -8.72719)
(9.49173 -11.0888 -3.80957)
(0.406051 -0.71991 1.16546)
(-2.14484 8.62236 11.9409)
(-0.994807 -5.49857 -3.40519)
(0.635952 4.1753 0.866602)
(-10.4087 1.28389 -4.64208)
(-7.54572 18.2508 -1.92726)
(1.02732 2.97473 -3.2252)
(-4.21858 -0.361881 3.63023)
(-8.01793 29.3226 -1.52262)
(4.03648 -3.85845 0.231577)
(12.1373 -5.41856 -6.63066)
(10.4577 -10.3665 16.1725)
(-1.02472 0.0642184 -1.56158)
(9.45734 -6.39612 -3.67838)
(3.49363 0.93944 -1.62087)
(-3.04316 10.2844 5.58822)
(-4.18085 -5.81066 -18.8855)
(-0.777906 -0.0277422 0.311739)
(0.783078 -11.7679 2.9216)
(-0.259666 0.389787 8.70416)
(12.1458 3.00935 28.9365)
(1.30572 7.53832 2.0323)
(0.15755 -2.1136 -0.491796)
(-1.68745 9.78944 6.51651)
(2.06301 2.51804 0.233327)
(5.34945 23.7366 -11.9739)
(1.43421 4.10702 -3.25739)
(2.5727 2.90674 -3.30178)
(-19.2747 -11.7242 -1.05236)
(4.38285 -1.55708 10.3071)
(0.561246 0.577764 0.367778)
(1.00813 6.0242 0.480842)
(-1.8487 -2.22849 -0.637769)
(-4.46296 -2.5886 -1.5511)
(-11.5509 -4.81486 -4.7405)
(-0.529062 -3.022 -2.33384)
(12.5528 12.5142 4.58627)
(-0.728711 0.667017 -0.740466)
(-4.7449 1.73944 -0.74618)
(-0.725294 4.74215 1.58451)
(-7.60856 -2.28778 7.35824)
(-0.0176026 -0.630384 1.76285)
(8.0605 -1.72455 9.54302)
(-0.236812 -1.68913 -1.02082)
(-2.8467 -0.91661 6.57782)
(-8.54263 -6.77882 3.74637)
(-0.48706 9.25071 2.52051)
(6.38639 6.48598 -2.22227)
(-5.58377 -0.361335 -1.95356)
(-23.8005 -7.13538 -22.1282)
(-13.4228 -6.1403 8.59505)
(10.3044 -2.37653 -6.57547)
(-0.081548 2.31636 0.0206047)
(-0.00850455 0.0065037 -0.00989504)
(5.53264 -1.45147 6.3669)
(-3.34904 -1.83403 2.89338)
(-0.855828 3.06723 -3.8876)
(0.490039 -7.78037 0.0125198)
(-3.68896 -1.50254 0.454712)
(12.4317 -4.2291 2.27846)
(1.07144 -4.26747 3.28005)
(-6.96345 -3.7167 4.60352)
(9.7184 13.9344 9.49704)
(1.81792 -3.41449 4.04685)
(-0.621718 -5.28364 1.64878)
(-0.40941 0.681577 -0.817282)
(0.331608 0.286756 -1.02933)
(-5.46282 -1.79638 -2.82734)
(-1.4247 2.07614 1.68149)
(4.7261 2.35577 -0.269843)
(-0.335686 -0.0435921 -1.71736)
(-0.31177 0.665603 -0.424646)
(-1.35885 8.00936 -1.99602)
(-12.9314 -1.48596 -2.67603)
(1.1003 4.81511 -5.82156)
(-4.09038 0.449895 -2.64342)
(4.94471 -5.53978 -28.9854)
(0.101516 -3.43698 -1.80834)
(3.91493 1.9991 -5.50914)
(6.50213 -0.624793 -0.217165)
(-11.4559 -0.855027 -3.33039)
(3.66574 0.240247 -1.85723)
(7.19909 -4.04715 -6.62432)
(15.5073 -3.10302 4.38105)
(-4.42149 1.16043 13.1153)
(-4.00672 13.0576 7.16603)
(-1.028 -2.63925 -2.10925)
(6.61173 13.8251 6.45335)
(-11.509 -7.59774 -9.13706)
(-0.56455 0.726034 1.19715)
(2.25078 -2.43153 4.66694)
(0.289178 -6.90742 -3.27872)
(12.3503 -8.36963 11.3818)
(-1.29905 -0.625655 -6.2051)
(0.569417 -0.002683 0.192301)
(0.0172288 -0.00988048 -0.0119821)
(-2.07795 -4.60692 -9.97095)
(3.18934 2.25427 0.261024)
(0.834818 0.0641244 -0.637188)
(-33.0101 22.7693 1.9159)
(-1.98298 0.036401 -0.982383)
(0.603958 -0.0601069 -1.21112)
(2.06618 0.750604 -3.55541)
(1.29419 5.93065 1.15729)
(-8.87216 9.72723 2.40722)
(-6.50986 2.66758 3.20612)
(4.63021 0.942156 3.63829)
(1.33562 -1.51322 -2.25691)
(-2.60378 -8.318 5.25459)
(-2.45074 5.51682 -5.32535)
(-7.06913 4.37647 3.6396)
(7.74774 -5.37966 -5.08189)
(17.9255 2.25001 13.9212)
(-0.973043 -1.44046 1.78277)
(-0.954871 -8.65891 -4.76074)
(4.00713 8.56121 5.07949)
(4.29556 -0.644248 -0.777859)
(3.11003 6.34104 -14.8585)
(-1.92906 5.26347 2.13084)
(1.98773 -2.18345 1.76632)
(-15.2406 -6.84894 9.21248)
(0.861144 -2.81767 0.921651)
(-15.3619 -11.7813 -0.104419)
(-1.51033 -3.97387 -1.15634)
(0.278594 0.936378 -1.15466)
(-2.63689 1.25137 -4.89667)
(1.18873 -0.964829 -1.40507)
(-0.445038 0.468829 0.510629)
(-0.0874 -8.99507 5.84713)
(-2.36488 -1.41993 -1.16214)
(1.48724 2.20598 6.39276)
(-7.14815 -0.0863912 4.22225)
(1.34985 27.9548 -13.873)
(-18.0664 15.3558 -8.25239)
(26.2311 13.5091 -18.4069)
(0.617751 -0.00291074 0.208624)
(24.2334 -9.80814 9.2308)
(-6.24567 8.83813 10.4934)
(-0.169322 3.08111 -4.56129)
(-4.87305 -1.91202 -2.84468)
(7.46805 16.8916 23.1233)
(-0.0618519 5.27664 -8.9145)
(-6.02402 1.58101 17.8687)
(2.05895 -15.1382 -9.86627)
(0.960651 10.1144 12.8204)
(-3.11097 2.99771 -2.47106)
(-1.02409 1.87218 9.79714)
(-0.861456 -3.03041 -5.31782)
(3.22443 1.24622 -0.650386)
(-7.73611 -6.29333 -9.9331)
(-5.97295 -1.91093 6.43158)
(-1.09967 0.174176 -0.281143)
(0.397204 -1.32042 0.251189)
(3.1021 -4.00548 1.02593)
(-5.56526 2.3303 1.37401)
(-3.41304 -2.15882 -8.1451)
(2.21337 -6.9357 1.6823)
(-1.3072 7.7049 -1.92014)
(-0.40795 -2.82559 0.389184)
(-0.385358 1.77346 -0.468871)
(8.28482 1.61823 12.6194)
(0.0114849 -1.322 0.792121)
(-2.19947 -0.424016 -1.41676)
(12.9432 8.04792 15.1354)
(-3.37729 0.831678 -1.20241)
(-3.61019 -2.17006 11.74)
(0.37048 2.09569 0.566173)
(-0.17701 0.346488 -0.252791)
(13.2965 5.83497 7.28015)
(-3.39902 -0.665729 -2.08694)
(4.27305 3.02024 0.349718)
(-9.19389 4.41712 0.895186)
(-2.46574 2.82002 1.62156)
(0.57574 0.429789 -0.856964)
(0.779392 16.2608 15.1325)
(8.43022 0.302884 -3.09778)
(-9.03569 27.1514 -1.28378)
(7.42569 -10.7076 -5.37129)
(-8.40611 -11.1145 4.22034)
(10.1868 5.0777 -0.581627)
(3.22342 13.2836 -1.17713)
(-20.4075 0.399954 -0.999631)
(-0.906688 -0.553555 1.17269)
(0.0417225 -4.04772 -1.91066)
(8.63449 6.91729 -26.8105)
(1.98321 7.22653 0.047146)
(3.43394 0.130078 4.16231)
(4.02446 7.62781 -22.709)
(0.0983115 5.24466 2.8725)
(-7.1633 3.42433 -1.42591)
(3.8351 0.538112 -0.134237)
(10.2168 15.4832 -2.30571)
(0.334155 0.0614575 0.647812)
(-2.18786 0.646181 -0.167012)
(-3.05122 8.32531 3.37037)
(-17.7595 4.04357 15.8052)
(-7.66548 -11.4263 -4.35951)
(2.39005 0.263072 7.54541)
(9.761 -4.8084 0.78903)
(7.53766 2.27924 -11.6788)
(7.00657 -5.39556 -12.2458)
(-1.21304 -0.235913 -3.59858)
(-5.06787 1.70714 0.821418)
(17.0421 10.1493 -5.49169)
(-8.41794 -3.38716 3.96329)
(-5.08146 0.845417 -3.77995)
(3.21927 0.346465 16.238)
(-0.750668 -3.25085 -2.08363)
(-8.83453 -5.40699 -6.9342)
(-0.0532081 0.111018 -0.0498659)
(-26.2136 0.648369 22.0107)
(-40.8384 11.4301 -28.6461)
(-10.5818 12.1498 7.39919)
(5.11942 -2.29068 -4.87324)
(-12.1455 3.63666 -17.3925)
(5.75644 1.89894 2.81644)
(4.41773 5.79809 -0.218057)
(-2.29032 11.5427 6.66341)
(7.00052 7.04853 14.1202)
(2.94501 -0.441693 -0.533296)
(9.6859 5.65378 -8.5589)
(0.480369 0.415396 -1.4911)
(4.0304 4.88829 -1.05989)
(-4.24096 16.0268 11.3561)
(-2.94176 -9.19944 34.8635)
(0.441948 -0.0439834 -0.886241)
(-1.5741 6.9378 2.5883)
(-1.53764 -3.42684 3.56015)
(-0.547002 0.66954 -8.56691)
(0.627436 -0.661387 -0.785095)
(7.01807 -4.43892 8.90626)
(-1.84504 -0.404612 -0.335293)
(3.34684 1.89245 -0.242415)
(19.3313 3.59653 -4.74598)
(-3.19583 26.1096 19.2006)
(1.63889 4.82282 -14.6569)
(-25.5675 -0.586346 21.3671)
(10.1697 10.3376 16.3185)
(0.193774 1.70745 27.6662)
(-11.6449 23.9257 -16.2685)
(3.17112 -17.2324 2.06256)
(-4.16686 7.419 23.9917)
(7.86779 -1.53877 7.80055)
(-16.8134 37.2111 -12.5785)
(-5.96155 14.0919 -7.32355)
(7.41802 -3.69347 -14.8696)
(-1.18531 8.02825 4.90812)
(-1.04904 2.51356 0.419057)
(-0.0395357 -0.0222739 0.0213156)
(-2.45955 -11.181 -17.3037)
(-4.08006 20.4422 -3.74851)
(4.08424 10.5072 -19.361)
(4.71168 -8.95399 -8.71588)
(19.0122 -8.05349 -1.10881)
(0.842288 -0.284806 5.18782)
(6.51273 -25.2726 -26.9345)
(10.9342 22.4125 5.22732)
(28.1269 -33.8695 10.6262)
(9.95094 -11.3207 7.96162)
(-2.39331 0.991001 3.30479)
(-23.6542 4.46785 -20.2517)
(-10.5271 1.96236 -7.21365)
(-2.859 18.1881 -37.7963)
(-7.09005 0.758804 2.87548)
(31.6288 29.4512 -7.18698)
(-7.98649 0.100278 -21.276)
(0.433384 -3.28072 17.0899)
(-10.9017 12.9062 9.90313)
(2.0749 12.2666 -30.3214)
(1.33866 -3.03415 -2.55567)
(-18.1358 1.69389 0.617465)
(-7.22926 -2.27309 0.228104)
(-0.0782893 4.11597 -2.72253)
(0.216862 -0.11059 -0.208041)
(-7.82884 6.45388 -0.245298)
(3.91173 6.4593 1.72708)
(1.10093 5.61657 7.76034)
(9.14556 -11.397 18.7528)
(-21.5916 -15.4334 -8.38509)
(0.664267 2.0443 -1.7956)
(-0.0466624 -0.0178892 -0.0151418)
(-5.01865 -2.21806 2.5564)
(0.586024 -6.83832 -3.70486)
(7.01678 1.02609 -2.23758)
(-25.2453 -11.8589 -4.65446)
(-1.6397 3.55212 -1.80682)
(-7.9552 -18.1123 -3.7176)
(-2.41625 -3.24774 0.140938)
(-10.2845 4.45664 -5.21775)
(-1.15516 -0.702286 -0.526065)
(-0.567162 -0.0100391 -0.262864)
(-5.132 4.48576 -0.79866)
(6.80278 6.29635 -1.38722)
(-5.51692 -7.71335 0.571986)
(17.8556 -3.82022 21.1397)
(13.5241 -3.62432 -3.19827)
(-14.5937 3.79564 -1.70279)
(0.471654 -0.0299915 -0.203109)
(21.3487 15.2258 -5.12078)
(-8.52863 0.407577 14.768)
(-0.571079 -0.325432 -6.97764)
(1.18153 -4.09573 18.1476)
(9.13176 14.2065 4.65571)
(-5.96875 -1.98937 -9.42189)
(4.93249 -4.51327 -0.236078)
(0.590767 -0.394046 0.661648)
(5.54559 0.100029 5.71875)
(0.165823 -0.767715 -1.1528)
(-0.651584 -0.929297 0.475041)
(29.0509 31.4384 -0.670603)
(22.7611 -0.469586 12.3506)
(-3.21616 -1.84156 -3.30254)
(0.876897 -1.00064 0.544605)
(-0.629977 -6.15652 -1.16569)
(-5.40265 6.57405 -3.38904)
(0.00420308 1.76383 11.3751)
(-15.8507 -0.0384067 5.65188)
(2.48876 -1.47357 7.62392)
(-4.28587 2.03391 -7.95881)
(3.90463 -4.42387 -6.598)
(-11.0374 8.75962 -5.83432)
(-7.98072 6.55687 -2.11993)
(34.9018 -10.5584 15.6697)
(-0.817605 1.37616 -0.15283)
(8.60581 -12.0216 18.7101)
(5.69869 1.279 -9.62836)
(-1.25818 4.04315 11.9272)
(-0.489638 2.1673 -1.03909)
(2.21543 -3.8341 4.10603)
(1.42234 10.0406 -5.74417)
(6.74834 5.42887 -2.8169)
(19.0807 -18.067 4.72121)
(-8.02636 -2.80291 -9.32995)
(0.795291 -1.60371 1.08093)
(0.252518 -0.537939 -1.4544)
(-4.80254 1.91989 2.5919)
(-10.1523 14.4804 -2.54994)
(-39.0553 5.26308 -24.8456)
(-1.9885 6.92512 0.779282)
(-0.377494 0.358989 -0.527874)
(1.56169 -0.881055 3.77409)
(28.7198 1.28086 -21.2106)
(-1.50458 2.08591 1.09554)
(-1.92241 -1.51203 -4.19943)
(3.51337 -3.07124 1.85503)
(4.3742 0.7669 6.98004)
(2.73932 -8.96308 2.9318)
(-0.61755 -2.1581 0.571291)
(-5.37046 0.138967 -2.05137)
(7.49577 -7.27555 1.73309)
(-0.208381 -8.89733 -3.07268)
(5.45284 14.1201 31.8477)
(-2.14084 -3.75701 -0.692404)
(5.56459 3.28044 5.2642)
(-8.31682 0.485833 5.84939)
(-0.413863 4.20921 2.01321)
(-10.0741 14.0163 -20.0283)
(6.20081 1.72206 0.498501)
(-1.1605 0.0328064 -1.11472)
(4.36752 -28.6416 -14.756)
(19.2865 -3.84117 -29.5158)
(11.8998 4.55799 2.90952)
(-11.6662 -4.79275 7.10855)
(6.81153 10.53 8.95642)
(-1.33298 2.70789 0.329965)
(4.37623 8.30727 -7.29702)
(-0.869923 8.86334 1.63855)
(-1.92126 -16.0497 -6.68834)
(1.40514 0.377134 5.41221)
(8.83897 19.9632 13.2726)
(0.958928 -0.0401206 0.00398033)
(1.60307 9.29577 -3.74292)
(-1.01246 -4.5783 -1.50529)
(0.776616 -4.3384 3.66582)
(19.3577 -3.44042 -42.2037)
(14.1455 -14.3416 11.3288)
(-0.280571 -4.29974 1.25968)
(1.6756 5.7027 3.69749)
(8.93214 12.8071 8.72868)
(8.92066 -3.8338 3.04513)
(20.7136 2.59997 16.0864)
(-0.933946 2.96898 -1.28473)
(-7.95375 -3.23963 0.980403)
(-0.664961 1.10701 -1.32743)
(-3.93377 1.84849 -0.719339)
(-6.28607 1.14049 -4.36768)
(-13.0529 -9.79646 -29.9226)
(10.2638 3.40189 -18.6561)
(2.55096 -3.70928 2.91853)
(7.98748 0.954797 4.95347)
(3.61236 -0.873271 -1.38611)
(1.57068 0.52604 -4.16197)
(3.59135 7.59971 9.99913)
(14.396 11.6388 5.36248)
(-2.99689 0.25239 -1.21524)
(-0.179447 7.47478 -5.49242)
(2.8423 -3.93645 -9.19725)
(-1.01874 -0.548191 -0.341342)
(12.7667 -7.17711 -11.7474)
(11.4564 7.93004 1.09156)
(-5.19676 8.35721 5.66606)
(-3.76554 -3.89269 6.82817)
(2.58761 -5.77574 -2.71669)
(15.3989 14.6367 10.9001)
(0.142359 -0.365667 0.317716)
(3.22075 4.02757 1.42845)
(-0.769236 -0.0968167 -8.17174)
(-0.655127 8.18613 -1.4222)
(27.5443 -5.51163 7.7817)
(-2.09967 -4.63238 0.388545)
(-6.83914 -0.195125 -1.58037)
(3.15068 -3.13012 -1.74949)
(3.20596 -1.87684 0.112484)
(-11.715 4.28359 6.38252)
(-6.58374 0.389142 0.337114)
(-8.26132 0.617518 6.08227)
(2.481 1.29856 1.4805)
(-0.896377 10.3103 9.94774)
(9.93026 -4.75521 -4.99766)
(-4.22711 2.24727 0.0352566)
(0.694045 -0.789071 3.03032)
(2.11718 13.1543 -1.55871)
(0.570904 -1.86307 -2.63908)
(3.07735 5.01871 -11.9469)
(8.59528 4.51842 10.4337)
(3.31019 -5.28198 2.62305)
(1.65495 -0.333682 0.157911)
(1.61628 7.40718 -7.88867)
(-5.07753 -4.02995 -3.69863)
(35.6071 -10.5363 -1.72773)
(12.8328 11.8172 -2.45436)
(-4.23224 -9.8985 -4.80257)
(-0.133831 -0.424625 -5.89175)
(0.0257542 -0.0147697 -0.0179113)
(9.34401 7.97461 -1.74376)
(-2.52392 -5.59567 -12.1109)
(-1.84578 -2.53591 35.5983)
(-1.72616 -6.43485 1.54774)
(-4.51989 -2.46974 1.27976)
(-3.6138 0.960316 0.804085)
(-14.6326 32.3845 -10.947)
(1.1042 22.8676 -11.3484)
(18.0696 30.9053 -7.58588)
(9.18631 16.9177 11.1087)
(15.2829 26.1389 -6.41596)
(-21.6838 6.178 -28.1131)
(14.2944 17.8064 33.3053)
(8.69295 9.61979 -8.3651)
(-3.9027 40.7644 2.78506)
(5.24022 16.9693 2.29051)
(-3.55858 30.0159 -21.249)
(-0.247811 7.03905 0.0626142)
(-7.48701 6.78633 -0.765208)