/*--------------------------------*- C++ -*----------------------------------*\
  =========                 |
  \\      /  F ield         | OpenFOAM: The Open Source CFD Toolbox
   \\    /   O peration     | Website:  https://openfoam.org
    \\  /    A nd           | Version:  7
     \\/     M anipulation  |
\*---------------------------------------------------------------------------*/
FoamFile
{
    version     2.0;
    format      ascii;
    class       volScalarField;
    location    "0.115";
    object      p;
}
// * * * * * * * * * * * * * * * * * * * * * * * * * * * * * * * * * * * * * //

dimensions      [1 -1 -2 0 0 0 0];

internalField   nonuniform List<scalar> 
48560
(
25764.9
25776.5
25785.4
25792.2
25797.4
25801.2
25804.1
25806.3
25807.9
25809.2
25810.2
25811.1
25811.8
25812.5
25813.2
25813.9
25814.8
25815.8
25817
25818.4
25820.2
25822.3
25824.9
25828
25831.9
25836.5
25841.7
25847
25854.9
25865.2
25877.8
25892.9
25910.7
25931.3
25955.9
25985.9
26021.8
26065.4
26117
26174.3
26239.2
26314.1
26396.7
26482
26579.5
26685.5
26813.6
26955.6
27061.7
27224.7
28083.3
32823.9
35725
38068.7
40291.5
42113.2
43912.4
45503.6
47053
48409.5
49614.4
50611.6
51050.3
51152.2
51271.8
51075.8
50941.6
50839.4
50678.7
50529.3
50340.8
50107.9
49796.1
49384.2
48813.8
48024.4
46893.8
45109
41889.1
37748.2
36622.5
37703
37703
37386.1
36736.1
36103.3
35863.5
35876.9
36106.5
36668
37400.4
38167.2
38907.6
39602.6
40226.1
40771
41225.9
41586.9
41838.4
41934.7
25804.2
25816
25824.8
25831
25835.4
25838.2
25840.1
25841.2
25841.8
25842.1
25842.3
25842.3
25842.4
25842.4
25842.4
25842.5
25842.7
25843.1
25843.6
25844.4
25845.5
25847
25848.8
25851.2
25854.1
25857.7
25861.7
25865.7
25871.8
25880.2
25891
25904.6
25921.4
25941.7
25965.4
25993.4
26028.1
26069.1
26114.9
26166.2
26227.3
26301.7
26383.7
26488
26612.6
26699.3
26734.8
26765.5
26882.2
27415.9
29242.7
32841.4
35375.9
37786.4
39875
41783.1
43544.3
45186.3
46729.5
48121.6
49346.2
50351.8
50840.5
51059.3
51142
50957.7
50876.2
50771.1
50609.2
50448.5
50231.5
49964.9
49604.6
49126.3
48464.2
47545.9
46184
44011
41067.7
38912.3
38347.3
38053.6
37762.7
37317.6
36932.8
36808.6
36810
36898.7
37175.2
37604.9
38127.9
38737.6
39360
39965.2
40514.8
40995.1
41381.3
41664.6
41838.3
41896.2
25846.3
25858.9
25867.9
25873.9
25877.7
25879.8
25880.9
25881.3
25881.3
25881.2
25880.7
25879.9
25878.8
25877.4
25875.9
25874.4
25873
25871.9
25871.1
25870.8
25870.7
25870.8
25871.2
25872.1
25873.5
25875.8
25878.8
25882.2
25887.9
25895.5
25905.4
25918.3
25933.6
25950.3
25968.5
25992.3
26024.7
26065.5
26109.5
26162.5
26233.6
26315.3
26390.4
26462.2
26534.1
26601.9
26682.8
26832.1
27204.1
28130.6
30069.3
32960.3
35403.7
37713.6
39760.2
41638.9
43395.1
45018.3
46562.2
47949.4
49173.8
50132.2
50632.2
50856.3
50884.4
50783.4
50741
50617.4
50475.9
50310.1
50098.3
49826.8
49458.3
48963.3
48277.6
47308.1
45851.2
43615.8
40872.8
39112.2
38604.4
38213
37794.1
37335.2
37004.8
36937.1
36949.1
37060.6
37343.1
37768.2
38299.4
38875.3
39465.9
40034.3
40563.8
41032
41412.8
41684.1
41840
41889.5
25895.4
25909.2
25918.4
25923.7
25926.4
25927.4
25927.5
25927.4
25926.7
25925.2
25923
25920.2
25916.9
25913.3
25909.7
25906.5
25903.8
25901.7
25900.3
25899.5
25899.1
25899
25899.1
25899.4
25900.1
25901.1
25902.4
25903.7
25905.8
25908.8
25914.4
25924.2
25937.9
25953.3
25971.4
25997.5
26034.5
26083.5
26132.3
26177.2
26220.2
26267.4
26322.8
26378.3
26432.9
26502.7
26631.4
26868.1
27415.5
28555.8
30501.6
33045.5
35300.1
37535.6
39494.7
41389.4
43111
44762.6
46290.2
47697.7
48909.4
49857.4
50377.6
50603.7
50616.6
50573
50540.6
50414
50288.8
50102.9
49878.1
49572.6
49170.8
48624.1
47871.3
46797.2
45218.2
43068.1
40916.5
39588.3
38931
38407.1
37961
37634.6
37506
37494.3
37524.2
37652.4
37909.8
38276
38735.8
39248.8
39779.3
40293.7
40764.3
41168.9
41489.6
41714.4
41845.5
41888.1
25944.1
25959.3
25968.9
25974.4
25976.9
25977.8
25977.9
25977.6
25976.7
25975.1
25972.6
25969.4
25965.6
25961.4
25956.8
25951.9
25947
25942
25937.2
25932.8
25928.8
25925.4
25922.7
25920.5
25919
25917.9
25917.4
25917.3
25917.8
25920.5
25927.2
25939.5
25958.4
25981
26004.2
26028.5
26052.7
26077.6
26108.3
26142.9
26183.4
26223.9
26265.4
26312.3
26375.5
26479.4
26658.8
27018.8
27721.6
28956.9
30808.8
33107
35259.3
37386.1
39316.4
41171.6
42884.6
44523.8
46049.6
47449.7
48645.5
49562.6
50087.3
50314.7
50341.1
50331.3
50301.6
50199.3
50085.9
49903.6
49681.3
49366.8
48952.9
48378.6
47584.6
46444.4
44823.3
42802.1
40994.2
39881.2
39160.2
38560.1
38122.9
37854.6
37782.4
37781.5
37824.4
37961.7
38216.2
38571
39001.4
39471
39957.5
40431.8
40872.8
41249.7
41539.7
41734.7
41847.6
41885
25995
26013.6
26025.7
26032.7
26036.2
26037.6
26037.8
26037.5
26036.3
26034
26030.4
26025.4
26019.2
26011.8
26003.5
25994.5
25985
25975.5
25966.6
25958.9
25953.1
25949.3
25947.6
25947.2
25947.8
25950.1
25953.7
25956.7
25959.8
25964.2
25968.7
25974.5
25981.4
25991.9
26006.9
26025.4
26045.3
26065.3
26087.7
26115.3
26144.1
26176.1
26215
26269.8
26354.5
26489
26735.9
27193.4
27993.2
29255.4
31003.3
33126.3
35187.4
37213.7
39098.1
40923.9
42618.2
44254.7
45770.4
47168.7
48346.1
49247.9
49774.9
50015.7
50064.8
50064.5
50036.8
49955.9
49843.4
49662.1
49431.1
49100.3
48662.5
48048.9
47201.3
46003.3
44410.2
42629.5
41129
40109.9
39353.6
38755.7
38375.3
38195.6
38159.9
38162
38212.3
38348.7
38583.5
38906
39297.6
39727.6
40173.4
40603.2
40994.8
41326.1
41579.4
41748.9
41848.1
41881.5
26052.9
26075
26089.2
26096.8
26100
26100.8
26100.6
26099.4
26096.7
26092.4
26086.7
26080
26072.6
26065.1
26057.9
26051
26044.5
26037.9
26031.1
26024.6
26018.3
26012.3
26006.4
26000.9
25995.8
25991.5
25988.8
25988.2
25988.2
25989.7
25992.1
25996.7
26002.4
26010
26018.7
26029.1
26041
26055.2
26071.7
26091.4
26115.5
26147.8
26193.4
26260.2
26363.6
26542.6
26855.4
27387.9
28239
29486.2
31132.2
33127
35100.7
37042.6
38886.5
40674.4
42355.6
43978.2
45488.1
46873
48033.2
48917.4
49449.9
49709.7
49785.6
49790.3
49770.8
49708.7
49601.5
49428.2
49194.1
48856.5
48401
47759.5
46875.2
45655.8
44128.7
42547.9
41246.9
40283.8
39525.7
38958.3
38627.2
38495.3
38472.9
38478.3
38533.4
38666
38886.9
39185.5
39545.3
39940.6
40346.9
40739.6
41095
41389.9
41612.1
41760.3
41848.1
41878.3
26113.9
26143.2
26164.5
26178.4
26186.9
26191.3
26193.1
26193.5
26193.3
26192.2
26189.8
26185.6
26179.6
26171.4
26161.3
26149.6
26137
26124.4
26112.1
26100.1
26088.6
26077.6
26067.2
26057.6
26048.8
26041.1
26035
26030.9
26027.6
26026.3
26025.6
26025.7
26026.1
26027.5
26030.1
26034.6
26041.1
26051.1
26064.2
26082
26106.1
26140.9
26192.2
26274.1
26408.3
26632
26998.7
27580.1
28450.1
29659.5
31212.7
33107.8
34993.6
36857.1
38658.3
40410
42075.8
43684.9
45186.2
46557.7
47702.1
48575.7
49117
49398.7
49497.6
49509.1
49496.7
49446.7
49344.2
49176.5
48937.4
48590.9
48115.1
47446
46534.5
45326.6
43909
42518.8
41354.7
40435.2
39706.2
39189.6
38908.9
38808.3
38791.4
38798.7
38852.9
38977.9
39181.4
39455.2
39783.2
40143
40511.7
40865.1
41182.1
41443.6
41639.2
41769.5
41847.7
41875.2
26206.8
26248.8
26281.4
26304.9
26320.9
26330.8
26336.2
26338.6
26339.3
26339.4
26338.6
26336.4
26332.4
26326.1
26317.5
26306.2
26292.5
26276.5
26258.5
26238.9
26218.3
26197
26175.5
26154.4
26134
26114.9
26098
26084.8
26072.5
26063
26055.9
26051.7
26049.3
26048.4
26048.3
26048.9
26051.3
26056.7
26066.6
26083.1
26109.2
26150.4
26215.4
26319.3
26485.2
26748
27154.8
27764.1
28630.3
29792.1
31260.5
33067.3
34869.1
36662.2
38418.7
40135.2
41783.9
43377.6
44868.9
46224.2
47355
48222
48777.2
49083.6
49206.4
49227.4
49221.5
49181.4
49086.2
48925
48684.3
48332.3
47841.3
47154.9
46235.1
45065.5
43761.1
42516
41452.4
40579.5
39893.9
39425.1
39180
39095.2
39081.6
39090.1
39142.4
39259.7
39447.1
39698.3
39997.5
40325
40658.4
40976.4
41258.6
41489.9
41662
41777.2
41847.1
41872.2
26329.2
26391.2
26442.4
26482.5
26512
26532.2
26544.7
26551.5
26554.3
26554.9
26554.7
26553.1
26548.9
26541.6
26530.5
26515.3
26496
26472.8
26446
26416.1
26383.7
26349.5
26314.4
26279
26244.1
26210.4
26179.5
26154.3
26130.2
26109.7
26094
26083
26075.9
26071.8
26070.3
26070.1
26071
26074.7
26083.8
26101.5
26132.4
26183.1
26264.3
26391.1
26586.1
26880.8
27315.8
27936.5
28785.7
29896.1
31286
33007.5
34727.2
36453.5
38163.5
39845.9
41475.5
43053.5
44532.7
45871.8
46991.1
47856
48428.2
48761.6
48910.1
48943.9
48942.4
48910.4
48823.3
48668.1
48426.8
48070
47567
46871.5
45961.2
44851.9
43662.8
42534.5
41550.7
40729.5
40092.9
39667.9
39449
39373.1
39360.5
39368.8
39417
39524.7
39695.4
39924
40195
40491.1
40790.9
41075.2
41325.5
41530
41681.7
41783.7
41846.4
41869.4
26466.8
26553.2
26628.4
26690.5
26738.8
26774.2
26797.9
26812.1
26819.1
26821.6
26821.8
26820.9
26817.3
26809.5
26796.3
26777.2
26751.8
26720.1
26682.7
26640.1
26593.3
26543.1
26490.7
26437.3
26383.9
26331.6
26282.7
26241.8
26202.5
26168.8
26142.3
26122.9
26109.6
26101.4
26097.6
26096.6
26097.1
26100.7
26111
26132.2
26170.3
26233
26331.5
26481
26702.5
27023.2
27476.4
28097.7
28922.7
29980.8
31296.8
32932.6
34570.4
36231.1
37892.5
39540.9
41149.7
42711.4
44176.9
45500
46609.7
47475.9
48068.1
48431.6
48609.5
48660
48661.7
48637.4
48559.4
48411
48171.9
47813.6
47305.3
46612.2
45727.4
44687.8
43603.3
42571.6
41656.9
40889.1
40299
39907.9
39705.7
39633.8
39621.2
39628.6
39672.1
39769.8
39924.1
40130.9
40375.2
40641.6
40909.9
41162.9
41384.5
41565
41698.9
41789.4
41845.8
41866.8
26604.8
26718
26821
26910.1
26983.2
27040
27081
27107.9
27123.3
27130.3
27132.3
27132.3
27130.2
27123.8
27110.8
27089.7
27059.8
27020.8
26972.5
26915.7
26852.5
26784.2
26711.5
26636.2
26559.8
26484.1
26412
26350.4
26291.1
26239.9
26198.9
26168.2
26146.7
26133.3
26126.6
26124.5
26124.8
26128.8
26141.1
26167.2
26214.2
26290.6
26408
26580.5
26826.7
27168.7
27633.4
28249.5
29046.7
30053.4
31298.8
32846.3
34400.6
35994
37604.2
39217.5
40803.9
42349
43799.8
45107.5
46209.2
47079.4
47693.7
48090
48301.7
48373.1
48379.8
48362.6
48294.5
48153.7
47919.4
47562.9
47056.5
46376.8
45530.6
44566
43576.1
42626.3
41775.7
41060.3
40511.3
40146
39953.2
39881.5
39867.4
39873.2
39911.1
39997.9
40135.7
40321.1
40539.8
40777.8
41016.6
41241
41436.6
41595.8
41714
41794.4
41845.2
41864.4
26726.6
26864.5
26995.4
27114.2
27217.4
27303
27369.9
27418.4
27450.3
27468.6
27476.8
27479
27478.8
27475.4
27465.4
27445.8
27414.8
27371.3
27314.3
27245
27165.8
27077.8
26981.5
26879.9
26775.3
26670.6
26569.9
26482.7
26399.3
26327
26268.6
26224
26192.2
26171.3
26160.2
26156.4
26156.3
26160.2
26173.8
26204.3
26260
26350.3
26486.2
26680.4
26949.6
27311.6
27785.7
28394.2
29163.2
30119.9
31296.9
32753
34220.5
35742.7
37297.9
38874
40436.4
41964.6
43400.3
44693.6
45788.6
46664.2
47301.9
47733.7
47984.3
48082.5
48097.8
48087.4
48029.9
47898.9
47672.7
47323.2
46826.8
46170.9
45372.6
44482.4
43574
42698.2
41908.7
41242.3
40727.8
40379.8
40190.2
40115.3
40098.3
40102
40133.7
40209.2
40330.8
40495.3
40689.6
40900.9
41112.3
41310.5
41483
41623.2
41727.6
41799.1
41844.7
41862.4
26829.5
26987.2
27142.3
27289.3
27424.3
27543.7
27644.5
27724.9
27784.4
27824.4
27847.4
27857.9
27860.5
27859.9
27854.3
27839.5
27812
27769.4
27710
27633.6
27540.5
27431.6
27309.4
27177.4
27039.7
26900.7
26766.7
26650.6
26535.8
26433.9
26349.6
26283.8
26236.1
26204.5
26187.6
26181.3
26180.8
26184.3
26198.8
26233
26296.7
26400.8
26557.1
26777.3
27071.3
27450.4
27930.3
28533.3
29276.9
30185.7
31294.1
32656
34032.7
35477.5
36972.2
38507
40043.7
41554.7
42975.3
44255.4
45345.5
46227.5
46888.9
47358.1
47653.1
47786.8
47816.8
47812.8
47766.7
47648.2
47434.1
47097.3
46619
45995.7
45250.7
44432.4
43595.3
42787.8
42056.4
41434.4
40947.8
40610.4
40418.4
40336.5
40314.6
40316
40341.1
40405
40510.4
40654.6
40825.8
41012.2
41198.3
41372.6
41524.3
41647.7
41739.9
41803.4
41844.5
41860.7
26915.1
27086.5
27259.6
27429.6
27592.6
27745.1
27882.9
28002.4
28100.5
28175.6
28227.6
28258.9
28273.6
28277.5
28277.1
28270.3
28251.6
28216.4
28160.7
28082.2
27979.5
27853.4
27706.3
27542.2
27366.9
27186.7
27009.9
26852.8
26697.9
26560.7
26446.9
26357.5
26292.2
26247.4
26221.6
26211
26209.6
26212.3
26226.4
26262
26329.8
26441.8
26610
26846.7
27162.9
27568.1
28069.4
28670.5
29391.2
30256.2
31294.6
32560.6
33842.5
35202.1
36628.6
38116
39624.6
41118.8
42526.2
43794.8
44880.8
45768.5
46452.4
46958.7
47303.2
47483.2
47538.9
47539.9
47506.5
47404.3
47206.6
46889
46436.4
45852.5
45163
44412.3
43640.5
42895.5
42217.8
41635.5
41171.1
40838.4
40639.6
40546.3
40516.5
40515.5
40533.7
40585.7
40675.2
40799.8
40949.1
41112.3
41275.4
41428.2
41561.3
41669.7
41751.1
41807.5
41844.5
41859.2
26988.6
27168.4
27352.9
27538.1
27721.2
27899.6
28069.4
28226.8
28367
28486.1
28580.9
28649.8
28693.6
28715.9
28723
28723
28716.2
28695
28652.5
28583.1
28482.8
28349.5
28183.7
27989.3
27773
27543.7
27313
27102.7
26895.3
26712.4
26561.3
26442.3
26355.8
26294.9
26257.9
26239.1
26234.8
26237.6
26251.7
26288.4
26359.6
26478.1
26656.1
26905.5
27236.7
27657.9
28175
28790.4
29505.8
30331.9
31303
32471.4
33652.8
34916.1
36263.2
37694.3
39170.6
40648
42042.7
43301.3
44386.6
45281.4
45988
46531.7
46929.3
47166.5
47262.1
47272.7
47252.5
47170.2
46993.6
46701.7
46281.5
45741.6
45107.5
44416.7
43706.9
43020.6
42392
41844.9
41398
41065.6
40855.2
40746.3
40705.3
40700.1
40711.5
40751.8
40825.9
40931.8
41060.6
41202.4
41344.5
41477.9
41594.4
41689.6
41761.4
41811.5
41844.7
41858.1
27054.7
27239
27429.8
27623.6
27818.4
28013
28206.4
28393.9
28570.4
28733.1
28877
28997.3
29090.1
29153.6
29189.3
29203.1
29204.5
29199.6
29178.1
29129.9
29046.1
28919.7
28746.7
28527.9
28269.4
27982.6
27684.5
27405.1
27130.5
26889.6
26691.9
26535
26421.4
26341.2
26292.8
26266.6
26257
26259.9
26275.1
26310.2
26382
26504.1
26689.5
26949.9
27295.2
27731.5
28262.4
28887.4
29605.4
30415.6
31325.4
32397.8
33477.2
34635.6
35889.5
37250.6
38687.5
40149.6
41539.1
42791.8
43876.8
44775.8
45500
46075.9
46525.1
46827.5
46980.9
47015.7
47008.8
46948.9
46798.9
46538.5
46155.8
45662.4
45082.4
44446.3
43793.2
43160.7
42576.5
42060.9
41628.4
41293.2
41066.7
40938.4
40882.3
40869.6
40874.6
40903.6
40962.7
41050.9
41160.7
41282.9
41406.3
41522.4
41624
41707.5
41770.8
41815.3
41845.2
41857.4
27116.1
27303.1
27497.4
27695.6
27896.2
28099.9
28307.1
28512.9
28712.8
28906
29089.6
29258.6
29407.1
29529
29619.4
29676.4
29703
29708.7
29706.8
29687.6
29635.9
29537.5
29379.6
29154.3
28861.3
28511.6
28129.2
27759.6
27399.5
27084.6
26831.9
26629.9
26485.9
26383.6
26322.6
26290.3
26279
26279.6
26291.4
26324.6
26395.9
26519.3
26709.3
26977.4
27334.1
27784.5
28330.4
28967.7
29689.9
30487.6
31357.3
32341.2
33310.3
34346.1
35486.6
36759.7
38146.3
39591
40974.2
42221.8
43314.6
44223.9
44970.9
45582.9
46086.1
46460.9
46691.2
46775.9
46779.2
46743.4
46626.3
46402.2
46061.2
45615.2
45084.9
44501.5
43900.8
43317.1
42773
42285.2
41864.6
41524.1
41277.7
41125.3
41048.9
41024.1
41023.4
41041.6
41086.2
41157.8
41250.1
41354.6
41461.2
41562
41650.6
41723.5
41779.3
41818.9
41845.8
41856.9
27173.5
27362.5
27559.3
27760.6
27965.1
28173.5
28385.5
28598.5
28809.9
29019.2
29225.8
29427.2
29619.6
29797.7
29954.7
30082.7
30174.6
30227.5
30246.4
30247
30234
30181.7
30064.8
29859.2
29548
29134
28648.6
28165.6
27704.5
27294.9
26979.9
26725.3
26547.2
26419.8
26343.8
26303.3
26290.2
26289.7
26298
26329.4
26399.6
26523.2
26715.4
26988.5
27354.1
27816.8
28377.1
29029.6
29762.8
30559.2
31401.2
32314.2
33194
34114.2
35124
36278.8
37589.5
39014.9
40416.7
41670.4
42768.8
43683.7
44440
45072.1
45612.2
46051.9
46372.7
46540.9
46572.8
46560.8
46479.3
46296
45999.3
45599.5
45114.1
44577.4
44022.4
43481.1
42972.2
42509.2
42099.7
41754.4
41488.8
41308.5
41207.2
41165.8
41157.8
41166.6
41198.1
41254.5
41331.1
41419.7
41511.4
41598.6
41675.5
41739
41787.7
41822.6
41846.7
41856.8
27227.3
27418.1
27617.4
27821.5
28029.5
28241
28455.1
28670.9
28887.7
29105
29322.4
29539.4
29754.7
29965.9
30169.3
30358.5
30524.4
30655.7
30742.2
30781.4
30787
30778.7
30722.8
30577.7
30299
29852.6
29252.3
28610.6
28036.8
27508.6
27121.4
26812.9
26601.2
26449.5
26360.1
26311.8
26295.2
26293.5
26299.7
26328.6
26396.7
26519.2
26712.3
26988.6
27358.6
27828.8
28399.8
29064.9
29809.7
30610
31435.5
32284.4
33054
33828.5
34685.8
35700.4
36914.8
38307
39714.2
40974.4
42098.1
43033.2
43814.8
44490.1
45083.7
45605.7
46031.3
46310.2
46407.5
46411.4
46366.5
46228.4
45974.6
45616.5
45175.6
44683.3
44172.1
43669.1
43191.1
42750.5
42352.3
42004.1
41708.9
41493.2
41359.3
41296.1
41277.2
41278.9
41299.7
41343.2
41405.7
41480.6
41559.4
41634.8
41701.3
41755.8
41797.5
41827.5
41848.5
41857.5
27276.5
27469.4
27671
27877.6
28088.2
28302.1
28518.5
28736.6
28956
29176.3
29397.2
29618.4
29839.6
30060.4
30280
30497
30708.8
30909.7
31089.7
31233.1
31323
31353.7
31353.3
31304.1
31115.7
30684.8
29933.6
29048
28356.8
27717.7
27261.9
26906.5
26661.3
26486.1
26383
26325.6
26304
26299.8
26304
26330.4
26395
26513.9
26704.3
26980.5
27352.1
27825.9
28403.5
29078.7
29836
30649
31480.8
32324.5
33068.4
33761.2
34478.1
35319.6
36363.7
37654.6
39120.6
40431.2
41550.5
42500.7
43287
43964.2
44567.1
45119.2
45618
46031.7
46246.4
46293.8
46281.7
46186.4
45970.6
45651
45244.9
44790.3
44311.2
43838.6
43386.8
42964.7
42574.1
42217.7
41918.6
41673.9
41502.4
41411.4
41380.3
41377.4
41389.2
41421.5
41472.8
41536.7
41605.5
41671.5
41729.5
41776.2
41811.1
41835.9
41853.3
41860.9
27320.9
27516.1
27719.9
27928.5
28141.1
28356.8
28575.1
28795.3
29017.2
29240.3
29464.5
29689.3
29915.1
30141.6
30369.4
30598.5
30829
31059.8
31288.5
31507.6
31699.5
31832.5
31882.5
31882.4
31803.6
31493.9
30721.9
29485
28691
27927.5
27378.9
26980.7
26698.9
26510.6
26392.4
26327.5
26299.9
26293.3
26294.4
26312.7
26368.7
26478.4
26662.5
26936.4
27307.8
27784.6
28368.6
29052.5
29820.7
30645.3
31482.9
32300.2
32972.4
33530
33990.5
34510.9
35344.5
36623.3
38133.5
39484.8
40630.8
41646.6
42467.4
43195.8
43867
44516.9
45171.5
45767.8
46148.3
46286.1
46295
46236.4
46070
45786
45418.3
44991.6
44539.7
44087.7
43650.1
43239.5
42863.7
42525.8
42194
41889.4
41650.8
41513
41461.8
41454.4
41460.3
41484.7
41528
41584.1
41646.1
41706.4
41759.2
41800.9
41830.9
41851.1
41864.8
41870.6
27359.4
27556.7
27762.4
27972.4
28186.7
28404.1
28624.7
28847.5
29072.4
29298.9
29526.8
29755.9
29985.7
30215.4
30444
30670.3
30894.2
31117
31340.6
31567.2
31797.6
32026.9
32235.9
32376.2
32405.9
32344.3
31718
29783.1
28867.9
28067.7
27446.1
27040.8
26730.1
26538
26408.7
26346.3
26319.1
26315.5
26316.8
26333.7
26382.9
26491
26679.7
26948.9
27312.7
27787.3
28371
29057.1
29827.9
30656.5
31501.8
32350.3
33063.4
33620.4
34062.5
34536.7
35243.4
36284.7
37600.6
39096
40319.6
41318.2
42136.5
42857.5
43499.8
44118.6
44741.7
45379.3
45967.5
46243.6
46277.7
46242.7
46083.5
45822.4
45468.1
45059.6
44625.3
44195.3
43785.8
43397.9
43030.4
42665.4
42338.8
42044.7
41786.4
41608.6
41527.7
41511.7
41512.9
41530.6
41567.5
41618.6
41676.6
41734
41785.3
41826.4
41855.5
41873.3
41884.6
41889.2
27391.5
27591.4
27799.7
28011.7
28227.9
28446.7
28668.6
28892.1
29117.9
29344.9
29574.1
29803.9
30034.6
30263.6
30491.1
30717.5
30946
31177.1
31412.2
31653
31904.9
32175
32450.1
32678.3
32762.2
32743.9
32318.7
30135.5
29089.7
28230.2
27544.2
27108.7
26773
26562.7
26418.6
26344.1
26309.5
26303
26303.9
26318.7
26363.3
26454.7
26612.2
26863
27222
27686.8
28262.7
28943.2
29710.4
30538.1
31379.3
32229
32976.7
33593.4
33967.8
34052.1
34042.4
34062.9
35555.8
37715.7
39125.7
40213.1
41078.7
41857.5
42554.4
43243.4
44051.8
44958.8
45959.4
46437.2
46521.8
46508.5
46378
46103.1
45749.3
45361.1
44938.4
44522.5
44123.4
43730.7
43377.9
43046.6
42717.2
42389.6
42037.2
41729.3
41571.8
41529.3
41527.8
41549.9
41589.4
41636.8
41689.9
41744.9
41795.1
41838.1
41871.7
41895.3
41908.2
41911.5
42057
42058.3
42057.1
42057.7
42057.6
42057.7
42057.8
42057.9
42058
42058.1
42058.2
42058.3
42058.4
42058.4
42058.5
42058.5
42058.5
42058.6
42058.6
42058.5
42056
42057.9
42056.8
42057.4
42057.3
42057.5
42057.7
42057.9
42058.1
42058.3
42058.5
42058.6
42058.7
42058.8
42058.9
42059
42059.1
42059.1
42059.1
42059.1
42055.7
42056.9
42055.9
42056.6
42056.6
42057
42057.4
42057.8
42058.3
42058.7
42059
42059.3
42059.6
42059.8
42060
42060.2
42060.3
42060.4
42060.4
42060.5
42055.4
42056
42055
42055.8
42056
42056.5
42057.1
42057.8
42058.5
42059
42059.5
42060
42060.4
42060.7
42061
42061.3
42061.5
42061.7
42061.8
42061.8
42054.6
42054.8
42054
42054.8
42055.2
42056
42056.8
42057.7
42058.7
42059.5
42060.2
42060.8
42061.4
42061.9
42062.4
42062.8
42063.1
42063.3
42063.5
42063.6
42053.2
42053.3
42052.5
42053.5
42054.1
42055.2
42056.4
42057.7
42058.9
42060
42061
42061.9
42062.8
42063.5
42064.1
42064.7
42065.1
42065.5
42065.7
42065.9
42051.2
42051.3
42050.7
42051.8
42052.8
42054.3
42055.9
42057.6
42059.2
42060.7
42062
42063.3
42064.4
42065.4
42066.3
42067.1
42067.7
42068.1
42068.4
42068.7
42048.5
42048.7
42048.5
42049.9
42051.3
42053.3
42055.4
42057.6
42059.6
42061.5
42063.3
42064.9
42066.4
42067.7
42068.9
42069.9
42070.7
42071.3
42071.6
42071.9
42045.1
42045.7
42045.8
42047.5
42049.5
42052
42054.7
42057.5
42060.1
42062.5
42064.7
42066.8
42068.7
42070.4
42071.9
42073.1
42074.1
42074.9
42075.4
42075.7
42041.1
42042
42042.6
42044.8
42047.4
42050.7
42054
42057.5
42060.7
42063.6
42066.4
42069
42071.4
42073.5
42075.3
42076.8
42078.1
42079
42079.6
42080
42036.5
42037.8
42038.9
42041.7
42045.1
42049.1
42053.3
42057.5
42061.4
42065
42068.4
42071.5
42074.4
42076.9
42079.2
42081
42082.5
42083.6
42084.3
42084.8
42031.2
42032.9
42034.6
42038.3
42042.5
42047.4
42052.5
42057.6
42062.2
42066.5
42070.6
42074.4
42077.8
42080.9
42083.5
42085.7
42087.5
42088.8
42089.6
42090.1
42025.1
42027.3
42029.7
42034.3
42039.6
42045.6
42051.8
42057.8
42063.2
42068.3
42073.2
42077.6
42081.6
42085.2
42088.3
42090.9
42093
42094.5
42095.4
42096
42018.2
42020.9
42024.2
42030
42036.4
42043.7
42051.1
42058
42064.4
42070.4
42076.1
42081.3
42085.9
42090.1
42093.7
42096.7
42099
42100.8
42101.9
42102.5
42010.2
42013.7
42018
42025.2
42033
42041.7
42050.4
42058.5
42065.9
42072.9
42079.4
42085.4
42090.8
42095.5
42099.6
42103
42105.7
42107.7
42109
42109.7
42001.1
42005.5
42011
42019.9
42029.3
42039.7
42049.9
42059.1
42067.6
42075.7
42083.2
42090.1
42096.2
42101.6
42106.3
42110.1
42113.2
42115.4
42116.8
42117.6
41990.3
41996.2
42003.2
42014.1
42025.5
42037.8
42049.5
42060
42069.8
42079.1
42087.6
42095.4
42102.3
42108.4
42113.6
42118
42121.4
42123.9
42125.4
42126.3
41977
41985.5
41994.3
42007.8
42021.4
42035.9
42049.3
42061.2
42072.5
42083
42092.7
42101.4
42109.2
42116
42121.9
42126.7
42130.5
42133.2
42134.9
42135.9
41961.3
41973.4
41984.2
42001.2
42017.1
42034.2
42049.4
42062.9
42075.8
42087.7
42098.5
42108.3
42117
42124.6
42131
42136.4
42140.5
42143.6
42145.4
42146.4
41942.7
41959.6
41972.8
41994.1
42012.8
42032.7
42049.7
42065.2
42079.7
42093.1
42105.3
42116.2
42125.8
42134.2
42141.3
42147.1
42151.7
42155.1
42157.1
42158.1
41919.9
41944
41959.8
41986.9
42008.6
42031.7
42050.6
42068.2
42084.6
42099.6
42113.1
42125.2
42135.8
42145
42152.8
42159.1
42164.1
42167.7
42169.9
42171.1
41890.1
41926.6
41945.2
41979.7
42004.5
42031.2
42052.1
42072.2
42090.5
42107.2
42122.2
42135.5
42147.1
42157.2
42165.6
42172.5
42177.9
42181.8
42184
42185.3
41849.5
41907.5
41928.6
41973
42000.8
42031.3
42054.5
42077.3
42097.8
42116.3
42132.7
42147.3
42159.9
42170.8
42179.9
42187.3
42193.1
42197.3
42199.7
42201
41794.8
41887.5
41910.1
41967.3
41997.6
42032
42058.2
42083.9
42106.6
42126.9
42144.9
42160.7
42174.4
42186.1
42195.9
42203.8
42209.9
42214.4
42216.9
42218.3
41727.4
41869
41890.3
41963.2
41995.2
42034.1
42063.5
42092.3
42117.2
42139.4
42159
42176
42190.8
42203.3
42213.7
42222.1
42228.5
42233.2
42235.8
42237.2
41667.4
41852.9
41871.2
41960.8
41993.9
42038
42070.7
42102.7
42129.9
42154.1
42175.1
42193.4
42209.1
42222.3
42233.3
42242.2
42248.9
42253.8
42256.4
42258
41629.1
41839.3
41856.3
41960
41993.8
42044.4
42080.3
42115.6
42144.9
42171
42193.5
42212.9
42229.5
42243.4
42255
42264.2
42271.2
42276.3
42278.9
42280.6
41609
41829.6
41848
41960.2
41995.7
42053.7
42092.7
42131.2
42162.6
42190.5
42214.3
42234.7
42252.1
42266.7
42278.7
42288.2
42295.5
42300.8
42303.4
42305.1
41600.9
41825.2
41845.2
41962.5
42001.2
42066.4
42108.6
42150
42183.2
42212.7
42237.6
42259
42277.1
42292.1
42304.5
42314.3
42321.8
42327.1
42329.8
42331.4
41599.9
41824.7
41845.5
41969.2
42011.9
42083.1
42128
42172.2
42207.1
42238
42263.8
42285.9
42304.5
42319.9
42332.6
42342.6
42350.1
42355.5
42358.2
42359.8
41602.5
41827.6
41851.2
41982.9
42029.2
42104.8
42151.6
42198.2
42234.4
42266.4
42293
42315.6
42334.5
42350.2
42362.9
42373
42380.6
42385.9
42388.6
42390.1
41618.5
41840.9
41867.6
42005.8
42053.9
42132.3
42180
42228.3
42265.3
42298.2
42325.2
42348.1
42367.1
42382.8
42395.6
42405.6
42413.1
42418.3
42421
42422.5
41656.7
41870.9
41898.8
42038.9
42087
42166.4
42213.7
42263
42300.1
42333.3
42360.4
42383.3
42402.3
42417.9
42430.5
42440.4
42447.7
42452.8
42455.3
42456.7
41718.2
41919.3
41945.9
42082.7
42129
42207.3
42253.3
42302.5
42339
42372
42398.7
42421.3
42440
42455.3
42467.6
42477.2
42484.3
42489.2
42491.5
42492.9
41798.1
41983.9
42007.6
42136.7
42180
42255.3
42298.9
42346.9
42382.1
42414.3
42440.1
42462.1
42480.2
42495
42506.8
42516
42522.8
42527.4
42529.5
42530.7
41891.6
42061.1
42081.2
42200.2
42239.3
42309.9
42350.3
42396.2
42429.4
42460.1
42484.6
42505.6
42522.7
42536.8
42548
42556.7
42563
42567.3
42569.1
42570.2
41994.8
42147.4
42164.1
42271.6
42306.2
42370.6
42407.4
42450.1
42480.7
42509.3
42532.1
42551.6
42567.6
42580.6
42591
42599
42604.8
42608.6
42610.2
42611
42104.6
42240.5
42254.1
42349.5
42379.3
42436.6
42469.3
42508
42535.5
42561.6
42582.3
42600.1
42614.5
42626.3
42635.7
42642.8
42648
42651.4
42652.5
42653.2
42219.3
42338.6
42349.3
42432.6
42457.6
42507.1
42535.5
42569.6
42593.6
42616.7
42634.9
42650.6
42663.3
42673.7
42681.8
42688
42692.4
42695.3
42696
42696.5
42337.8
42440.6
42448.5
42519.4
42539.8
42581.3
42605.2
42634.1
42654.4
42674
42689.5
42702.8
42713.6
42722.4
42729.2
42734.4
42737.9
42740.1
42740.4
42740.7
42459.7
42545.6
42550.7
42609.3
42625
42658.3
42677.5
42701
42717.3
42733.3
42745.8
42756.6
42765.2
42772.2
42777.6
42781.6
42784.2
42785.7
42785.6
42785.6
42584.3
42653.2
42655.2
42701.5
42712.2
42737.5
42751.9
42769.7
42781.9
42793.9
42803.3
42811.4
42817.7
42822.8
42826.7
42829.4
42831.1
42831.9
42831.2
42831
42711.2
42762.6
42761.1
42795.6
42800.8
42818.1
42827.6
42839.6
42847.6
42855.6
42861.6
42866.8
42870.8
42873.9
42876.1
42877.5
42878.2
42878.2
42877.1
42876.6
42839.8
42873.4
42867.8
42891
42890.2
42899.7
42904.1
42910.2
42913.9
42917.7
42920.4
42922.6
42924.2
42925.2
42925.7
42925.7
42925.3
42924.6
42922.9
42922.2
42969.6
42985.2
42975
42987.2
42979.7
42981.9
42980.7
42981
42980.3
42979.9
42979.2
42978.4
42977.4
42976.3
42975
42973.6
42972.1
42970.6
42968.4
42967.6
43100
43097.8
43082.4
43083.7
43068.8
43064.5
43056.5
43051.9
43046.2
43041.9
43037.5
43033.7
43030.1
43026.9
43023.8
43021
43018.4
43016.2
43013.5
43012.4
43230.8
43210.8
43189.3
43180
43157.1
43146.9
43131.8
43122
43111.3
43103
43095
43088.2
43082.1
43076.7
43071.9
43067.6
43063.9
43060.9
43057.7
43056.5
43363
43322.3
43295.1
43275.5
43244.7
43227.9
43206
43190.8
43175.3
43162.9
43151.4
43141.7
43133
43125.4
43118.9
43113.3
43108.5
43104.7
43101.1
43099.7
43495.1
43432.9
43400.7
43368.5
43331
43306.8
43278.6
43258.2
43237.9
43221.5
43206.6
43193.8
43182.6
43173
43164.7
43157.7
43151.9
43147.4
43143.3
43141.8
43628.5
43542.2
43504.7
43458.7
43415.5
43383.3
43349.5
43323.7
43298.9
43278.5
43260.2
43244.5
43230.9
43219.2
43209.2
43200.8
43193.9
43188.7
43184.2
43182.6
43760.3
43649.8
43606.6
43546.3
43497.7
43457.3
43418.1
43387.1
43357.9
43333.7
43312
43293.5
43277.5
43263.7
43252.1
43242.4
43234.5
43228.6
43223.7
43221.9
43890
43753.7
43705.6
43630.9
43577
43528.5
43484.3
43448.1
43414.7
43386.8
43361.9
43340.7
43322.3
43306.6
43293.4
43282.4
43273.5
43266.9
43261.6
43259.8
44011.7
43854
43800.7
43711.9
43653.2
43596.8
43547.9
43506.7
43469.3
43437.8
43409.9
43386
43365.3
43347.7
43332.9
43320.7
43310.8
43303.6
43297.8
43295.9
44106.2
43947.3
43888.3
43788.5
43725.5
43661.7
43608.6
43562.5
43521.5
43486.6
43455.7
43429.3
43406.4
43387
43370.6
43357.2
43346.4
43338.5
43332.4
43330.4
44176.2
44029.4
43965.6
43859.5
43792.7
43722.6
43665.9
43615.4
43571.1
43532.9
43499.3
43470.5
43445.6
43424.4
43406.6
43392
43380.3
43371.7
43365.2
43363.1
44230
44098.5
44031.9
43923.7
43854.2
43779.2
43719.5
43665.1
43617.8
43576.7
43540.6
43509.6
43482.7
43459.9
43440.7
43425
43412.3
43403.2
43396.3
43394
44272.2
44155.9
44088.1
43980.6
43909.2
43830.9
43768.8
43711.2
43661.4
43617.8
43579.4
43546.4
43517.7
43493.4
43472.8
43456.1
43442.6
43432.8
43425.5
43423.1
44305.8
44202.6
44134.8
44029.9
43957.6
43877.4
43813.7
43753.5
43701.7
43655.8
43615.6
43580.7
43550.5
43524.7
43503
43485.2
43470.9
43460.6
43452.9
43450.3
44332.4
44240.5
44173.4
44072
43999.5
43918.5
43853.8
43791.8
43738.5
43690.7
43648.9
43612.5
43580.9
43553.9
43531
43512.3
43497.2
43486.3
43478.4
43475.6
44352.3
44270.4
44204.5
44107.2
44035
43954.2
43889.1
43825.9
43771.6
43722.4
43679.3
43641.6
43608.8
43580.7
43556.8
43537.2
43521.5
43510.1
43501.8
43499
44368.1
44293.9
44229.1
44135.9
44064.7
43984.8
43919.6
43855.8
43800.9
43750.7
43706.7
43668
43634.2
43605.1
43580.3
43560
43543.7
43531.9
43523.3
43520.3
44380.3
44311.7
44248.2
44158.7
44088.9
44010.3
43945.5
43881.7
43826.5
43775.7
43731.1
43691.5
43656.9
43626.9
43601.5
43580.5
43563.8
43551.5
43542.8
43539.6
44389.3
44324.8
44262.2
44176.5
44107.9
44031
43967.1
43903.6
43848.4
43797.3
43752.4
43712.2
43676.9
43646.3
43620.2
43598.8
43581.6
43569.1
43560.2
43556.8
44395.1
44333.8
44271.7
44189.7
44122.1
44047.3
43984.4
43921.6
43866.8
43815.7
43770.6
43730
43694.3
43663.1
43636.7
43614.9
43597.4
43584.6
43575.6
43572
44398.5
44338.9
44277.5
44198.5
44132.3
44059.5
43997.7
43935.8
43881.6
43830.7
43785.7
43744.9
43708.8
43677.5
43650.7
43628.6
43610.9
43597.9
43588.9
43585.1
44399.6
44340.7
44280.2
44203.5
44138.7
44067.9
44007.3
43946.5
43893
43842.6
43797.8
43756.9
43720.8
43689.3
43662.4
43640.1
43622.2
43609.1
43600
43596.2
44398.9
44340.4
44280.5
44205.4
44141.9
44072.9
44013.6
43954
43901.3
43851.5
43806.9
43766.1
43730.1
43698.6
43671.6
43649.3
43631.3
43618.1
43609.1
43605.2
44394.2
44336.5
44278.8
44205.3
44142.6
44075.1
44016.9
43958.5
43906.7
43857.5
43813.3
43772.8
43737
43705.5