/*--------------------------------*- C++ -*----------------------------------*\
  =========                 |
  \\      /  F ield         | OpenFOAM: The Open Source CFD Toolbox
   \\    /   O peration     | Website:  https://openfoam.org
    \\  /    A nd           | Version:  7
     \\/     M anipulation  |
\*---------------------------------------------------------------------------*/
FoamFile
{
    version     2.0;
    format      ascii;
    class       volScalarField;
    location    "0.115";
    object      rho;
}
// * * * * * * * * * * * * * * * * * * * * * * * * * * * * * * * * * * * * * //

dimensions      [1 -3 0 0 0 0 0];

internalField   nonuniform List<scalar> 
48560
(
0.395762
0.395861
0.395929
0.395972
0.395995
0.396003
0.395998
0.395983
0.395961
0.395932
0.395898
0.395859
0.395816
0.395769
0.395718
0.395662
0.395603
0.395539
0.39547
0.395395
0.395314
0.395227
0.395131
0.395027
0.394915
0.394793
0.394655
0.394471
0.394201
0.393905
0.393567
0.393172
0.392696
0.392084
0.391251
0.390305
0.3892
0.388022
0.386815
0.385801
0.384657
0.383383
0.381873
0.379874
0.37731
0.374006
0.370669
0.369449
0.371651
0.377136
0.393969
0.456578
0.47882
0.504481
0.525056
0.544197
0.559968
0.576124
0.589022
0.602435
0.611734
0.621263
0.623464
0.624892
0.62469
0.622236
0.620683
0.619322
0.617188
0.61538
0.613316
0.610978
0.608007
0.604282
0.599226
0.59235
0.582754
0.567765
0.539769
0.501116
0.501343
0.512874
0.508141
0.50671
0.499977
0.496599
0.494405
0.496176
0.498695
0.505879
0.51455
0.523123
0.531221
0.538779
0.545492
0.551377
0.556286
0.560239
0.563025
0.564144
0.395713
0.395812
0.395869
0.395899
0.395901
0.395885
0.395851
0.395806
0.39575
0.395684
0.395612
0.395532
0.395445
0.39535
0.395245
0.39513
0.395004
0.394867
0.394718
0.394558
0.394384
0.394196
0.393992
0.39377
0.393526
0.393257
0.392953
0.39255
0.391889
0.391127
0.390269
0.389286
0.388212
0.387038
0.385876
0.384645
0.383421
0.382059
0.380624
0.37895
0.377035
0.374952
0.372659
0.370591
0.370046
0.372286
0.37549
0.379608
0.38274
0.391636
0.413437
0.458052
0.478985
0.506137
0.524846
0.545498
0.560704
0.577696
0.590566
0.604395
0.614127
0.623413
0.62602
0.628241
0.628055
0.625264
0.625263
0.624311
0.622797
0.621659
0.619786
0.617893
0.614942
0.611379
0.605988
0.598769
0.587536
0.569656
0.544784
0.526713
0.523834
0.520819
0.517751
0.514189
0.510577
0.510225
0.510312
0.511972
0.514684
0.519682
0.524893
0.531623
0.537883
0.544415
0.549895
0.554995
0.558783
0.561755
0.563569
0.564166
0.395062
0.395158
0.395188
0.395193
0.39515
0.395094
0.395005
0.394909
0.394792
0.394669
0.394525
0.394367
0.394187
0.393989
0.393766
0.393522
0.393249
0.392946
0.3926
0.392236
0.391833
0.391404
0.390933
0.390432
0.38989
0.389315
0.388701
0.387981
0.386962
0.386
0.384904
0.38382
0.382592
0.381313
0.379869
0.37829
0.37665
0.374876
0.373119
0.371305
0.370066
0.369868
0.371388
0.374119
0.37818
0.381165
0.384417
0.387192
0.392467
0.403493
0.426081
0.458981
0.482016
0.507834
0.526543
0.546614
0.562261
0.57877
0.592199
0.60573
0.616044
0.624706
0.627985
0.630095
0.629996
0.628038
0.629029
0.627671
0.62702
0.625701
0.624342
0.622246
0.619437
0.615447
0.6098
0.601645
0.589223
0.57001
0.546083
0.531063
0.527346
0.524079
0.519414
0.515323
0.51187
0.511864
0.511948
0.513724
0.516587
0.521471
0.52688
0.53315
0.539124
0.545188
0.550534
0.555491
0.559303
0.562118
0.563706
0.564183
0.393163
0.393243
0.3932
0.393142
0.392993
0.392843
0.392627
0.392418
0.39215
0.391876
0.391546
0.391203
0.390811
0.390407
0.389964
0.389512
0.389034
0.388554
0.388065
0.387558
0.387034
0.38649
0.385913
0.385311
0.384674
0.384009
0.383305
0.382535
0.381392
0.380178
0.378843
0.377462
0.375978
0.374515
0.372956
0.371494
0.370332
0.369676
0.370329
0.371275
0.373606
0.375975
0.378821
0.38152
0.383859
0.385469
0.387542
0.390686
0.397105
0.410349
0.432584
0.460846
0.483086
0.507356
0.526046
0.545844
0.561845
0.578387
0.592262
0.605877
0.616638
0.625232
0.629186
0.631232
0.63119
0.630009
0.631096
0.629378
0.629218
0.627296
0.626018
0.623167
0.62012
0.615231
0.608996
0.599608
0.586207
0.567546
0.548933
0.537347
0.531686
0.527093
0.522568
0.520002
0.518797
0.519139
0.519468
0.521178
0.523757
0.527767
0.532346
0.53777
0.543056
0.548406
0.553046
0.557173
0.560257
0.562494
0.563797
0.564189
0.389462
0.389473
0.389372
0.389232
0.389013
0.388779
0.388492
0.388201
0.387861
0.387509
0.387109
0.386695
0.386235
0.385761
0.385245
0.384712
0.38414
0.383547
0.382913
0.382252
0.38155
0.38081
0.380048
0.379272
0.378475
0.377664
0.376832
0.376006
0.374768
0.37357
0.37239
0.371413
0.370671
0.370534
0.370776
0.371574
0.372886
0.374568
0.376146
0.378307
0.380346
0.382206
0.383783
0.385048
0.386186
0.387602
0.389874
0.394085
0.402228
0.416393
0.437316
0.46266
0.48443
0.507164
0.526123
0.54523
0.561626
0.577875
0.592133
0.605605
0.616538
0.624882
0.629196
0.631205
0.631329
0.630765
0.631537
0.630088
0.629972
0.628002
0.62673
0.62367
0.620523
0.615263
0.60869
0.598574
0.584711
0.566804
0.551136
0.541201
0.534874
0.52933
0.525096
0.522859
0.522226
0.522501
0.522971
0.524589
0.527153
0.530918
0.535233
0.540102
0.544961
0.549827
0.554206
0.558012
0.5608
0.562706
0.563818
0.564156
0.385145
0.385109
0.384984
0.384772
0.384499
0.384174
0.38381
0.383415
0.382981
0.382513
0.381998
0.381451
0.380858
0.380236
0.379575
0.378891
0.378173
0.377438
0.376679
0.375925
0.375176
0.374466
0.37379
0.373167
0.372621
0.372209
0.37199
0.372299
0.372052
0.372494
0.372842
0.373715
0.374561
0.375572
0.376732
0.378102
0.379474
0.380788
0.381998
0.383189
0.384115
0.384943
0.385646
0.386449
0.387541
0.389174
0.392107
0.397401
0.406613
0.420936
0.440533
0.463838
0.484983
0.506464
0.525243
0.543955
0.560399
0.576611
0.590964
0.604457
0.615368
0.623676
0.628186
0.630327
0.630659
0.630384
0.63081
0.629737
0.629368
0.62748
0.625962
0.622783
0.619328
0.613726
0.606631
0.595983
0.582325
0.566493
0.553456
0.544179
0.537504
0.531954
0.528453
0.526858
0.526604
0.526735
0.527296
0.528786
0.531171
0.53451
0.538451
0.542844
0.547301
0.551637
0.555492
0.558774
0.5612
0.562839
0.563813
0.564116
0.380834
0.380682
0.380522
0.380192
0.379864
0.379435
0.379022
0.37854
0.378054
0.377512
0.376964
0.376387
0.37582
0.375264
0.374755
0.374312
0.373979
0.37377
0.373614
0.373597
0.373671
0.373893
0.374218
0.374681
0.375235
0.375877
0.376536
0.37743
0.377672
0.378762
0.379194
0.380293
0.380794
0.381788
0.382339
0.383206
0.383673
0.384357
0.384732
0.385279
0.385604
0.386141
0.38671
0.38758
0.388821
0.390968
0.39461
0.40076
0.41046
0.424522
0.442857
0.464695
0.485105
0.505617
0.524153
0.542434
0.5589
0.574975
0.589404
0.602788
0.613635
0.621842
0.626526
0.628858
0.629462
0.629343
0.629631
0.628886
0.628384
0.626697
0.625023
0.621888
0.618181
0.612396
0.604874
0.594012
0.580761
0.566631
0.555227
0.546371
0.539619
0.534314
0.531299
0.530062
0.529936
0.530024
0.530651
0.532039
0.534303
0.537355
0.540987
0.544988
0.549051
0.55299
0.556496
0.559395
0.561521
0.562943
0.563805
0.564079
0.378009
0.37791
0.377868
0.37765
0.377505
0.377259
0.377109
0.376921
0.376846
0.376772
0.376804
0.376853
0.377001
0.377176
0.377432
0.377707
0.378024
0.378338
0.378763
0.379197
0.379705
0.380214
0.38076
0.38129
0.381824
0.382325
0.382812
0.383465
0.383296
0.384053
0.38408
0.384642
0.384663
0.385102
0.385148
0.385496
0.385566
0.385875
0.386015
0.386346
0.386627
0.387139
0.387743
0.388796
0.390365
0.393027
0.397247
0.40392
0.413741
0.427312
0.444506
0.465215
0.484795
0.50445
0.522663
0.540567
0.556989
0.572951
0.587395
0.600679
0.611451
0.619612
0.624464
0.627017
0.627858
0.627866
0.628099
0.627559
0.626985
0.625429
0.623605
0.620445
0.616456
0.61045
0.602588
0.591833
0.579455
0.567006
0.556686
0.548217
0.541691
0.536869
0.53432
0.533378
0.533277
0.53337
0.533969
0.535258
0.537336
0.540111
0.543413
0.547035
0.550716
0.554239
0.557355
0.559913
0.561782
0.563027
0.563795
0.564045
0.378857
0.379304
0.37972
0.380053
0.38039
0.380676
0.381002
0.381309
0.38168
0.382053
0.382487
0.382907
0.383362
0.383782
0.384212
0.384592
0.384964
0.385282
0.385589
0.385834
0.386064
0.386231
0.386381
0.386476
0.386557
0.386594
0.386633
0.386748
0.386337
0.386587
0.386449
0.386602
0.386521
0.386671
0.386625
0.386771
0.386759
0.386945
0.387039
0.387345
0.387638
0.388225
0.388977
0.390276
0.392184
0.395278
0.399905
0.40684
0.416546
0.42952
0.445694
0.465404
0.484169
0.503073
0.520911
0.538468
0.554808
0.570644
0.585074
0.598232
0.608941
0.617085
0.622136
0.624941
0.626028
0.626158
0.626388
0.625995
0.625422
0.623972
0.62207
0.618892
0.614703
0.608552
0.600536
0.590094
0.578619
0.567433
0.557931
0.549899
0.54373
0.539357
0.53712
0.536335
0.536243
0.536355
0.536912
0.538122
0.54002
0.542566
0.545566
0.548859
0.552177
0.555341
0.558104
0.560359
0.562002
0.563097
0.563783
0.564013
0.383262
0.384273
0.38508
0.385878
0.386505
0.387112
0.387598
0.388072
0.388477
0.388882
0.389256
0.389616
0.389929
0.390195
0.390402
0.390543
0.390622
0.390629
0.390582
0.390467
0.390311
0.390103
0.389874
0.389612
0.38935
0.389076
0.388833
0.388668
0.388221
0.388205
0.387969
0.387981
0.38785
0.387921
0.387864
0.387971
0.387955
0.388103
0.388194
0.388495
0.388845
0.389517
0.390445
0.391973
0.394199
0.39761
0.402505
0.409514
0.418971
0.431312
0.446559
0.465305
0.483259
0.501462
0.518896
0.536124
0.552354
0.568067
0.582456
0.59549
0.606151
0.614316
0.619587
0.622663
0.624011
0.624277
0.624513
0.624224
0.623683
0.622308
0.620354
0.617138
0.612787
0.606545
0.598553
0.588632
0.578121
0.567954
0.559126
0.551584
0.545839
0.541885
0.539879
0.539183
0.539084
0.539197
0.539695
0.540809
0.542523
0.54484
0.547545
0.55052
0.553492
0.556314
0.558758
0.560745
0.56219
0.563157
0.563772
0.563982
0.388418
0.389715
0.390699
0.391705
0.39241
0.393102
0.393547
0.393985
0.394247
0.394526
0.394701
0.394908
0.395021
0.395117
0.395107
0.395051
0.394893
0.394679
0.39438
0.394032
0.393625
0.393184
0.392713
0.392233
0.391754
0.39129
0.390865
0.39055
0.390017
0.389807
0.38949
0.389379
0.389209
0.3892
0.389142
0.389204
0.389202
0.389313
0.389429
0.389733
0.390167
0.390935
0.392056
0.393801
0.396303
0.399946
0.405008
0.411965
0.421108
0.432812
0.447203
0.464981
0.482124
0.499638
0.516645
0.53355
0.549649
0.565236
0.579567
0.592481
0.603111
0.611327
0.616842
0.620218
0.62186
0.622291
0.622532
0.622329
0.621848
0.620543
0.618575
0.615341
0.610902
0.604664
0.59685
0.58753
0.577907
0.568589
0.560358
0.553316
0.547974
0.544343
0.542483
0.541827
0.54172
0.541822
0.542265
0.543275
0.544817
0.546913
0.549344
0.552018
0.55467
0.557176
0.559331
0.561082
0.562353
0.563209
0.563761
0.563955
0.392228
0.393686
0.394849
0.396012
0.39685
0.397638
0.398132
0.398578
0.3988
0.399017
0.399096
0.399219
0.399252
0.39929
0.399208
0.399087
0.398842
0.39854
0.398118
0.397639
0.397068
0.396451
0.39579
0.395107
0.394417
0.39374
0.393105
0.392605
0.391887
0.391462
0.391014
0.390753
0.390515
0.390421
0.390347
0.390369
0.390376
0.390464
0.390612
0.390945
0.391483
0.392376
0.393699
0.395658
0.398404
0.402231
0.407389
0.414234
0.423033
0.434116
0.447702
0.464486
0.480795
0.497605
0.514154
0.53073
0.546682
0.562145
0.576406
0.58921
0.599824
0.608116
0.61389
0.617593
0.619569
0.6202
0.620472
0.62034
0.619933
0.618696
0.616745
0.613515
0.609057
0.602918
0.595413
0.58675
0.577945
0.569349
0.561685
0.555127
0.550147
0.546759
0.544981
0.544327
0.544201
0.544283
0.544665
0.545561
0.546935
0.54881
0.550983
0.553368
0.555723
0.557939
0.559837
0.561376
0.562497
0.563256
0.563751
0.56393
0.394684
0.396304
0.397709
0.399095
0.4002
0.401211
0.40193
0.402538
0.402897
0.403182
0.403305
0.403423
0.403474
0.403541
0.403506
0.403411
0.403168
0.402829
0.402327
0.401719
0.400989
0.400205
0.399316
0.398393
0.397427
0.396475
0.395558
0.394815
0.393849
0.393197
0.392574
0.392158
0.391824
0.391635
0.391525
0.391512
0.391523
0.391593
0.39176
0.392124
0.392754
0.39377
0.395277
0.397432
0.400406
0.404411
0.409644
0.416359
0.424814
0.435301
0.448117
0.463872
0.479309
0.495376
0.511424
0.527654
0.543443
0.558786
0.572974
0.58568
0.59629
0.604673
0.610718
0.614775
0.617136
0.618018
0.618354
0.618286
0.617966
0.61681
0.614915
0.611731
0.607334
0.601388
0.594284
0.586276
0.578177
0.570244
0.563123
0.557016
0.552338
0.549113
0.547361
0.546675
0.54652
0.546576
0.546894
0.547671
0.548881
0.550542
0.552471
0.554582
0.556664
0.558615
0.560285
0.561637
0.562624
0.563297
0.563743
0.563907
0.396475
0.398262
0.399919
0.40157
0.403009
0.404348
0.405425
0.406343
0.406994
0.407491
0.407779
0.407982
0.408079
0.408179
0.408198
0.408141
0.407935
0.407587
0.407058
0.406375
0.405527
0.40453
0.40339
0.402159
0.400861
0.399557
0.3983
0.397266
0.395965
0.395
0.394112
0.393458
0.392973
0.392653
0.392505
0.392447
0.392468
0.392515
0.392699
0.393085
0.393806
0.394959
0.396689
0.399108
0.402334
0.406484
0.411744
0.41836
0.426505
0.436431
0.448476
0.463182
0.477696
0.492955
0.508439
0.524287
0.539895
0.555123
0.56924
0.581864
0.592486
0.600972
0.607293
0.611724
0.614527
0.615738
0.616193
0.616184
0.615965
0.614913
0.613115
0.610027
0.60577
0.600098
0.593454
0.586081
0.578602
0.571286
0.564683
0.558983
0.55455
0.551423
0.549644
0.54889
0.548688
0.548716
0.548964
0.549619
0.550668
0.55212
0.553818
0.555677
0.557506
0.559217
0.560682
0.561868
0.562739
0.563336
0.563737
0.563888
0.397954
0.399876
0.401739
0.403626
0.405375
0.407058
0.408535
0.409853
0.410909
0.411754
0.412335
0.412731
0.412943
0.413073
0.413152
0.413182
0.413078
0.412815
0.412335
0.41163
0.410675
0.409485
0.408078
0.406502
0.404807
0.403063
0.401348
0.399872
0.398171
0.396827
0.395656
0.394733
0.394093
0.393602
0.393382
0.39327
0.393288
0.393315
0.393494
0.393885
0.394646
0.395874
0.397732
0.40033
0.403806
0.408248
0.413733
0.420289
0.428149
0.437566
0.448825
0.462475
0.476015
0.490383
0.505215
0.520623
0.536027
0.551156
0.565227
0.577789
0.58843
0.59701
0.603594
0.608399
0.611695
0.613342
0.614018
0.614047
0.61395
0.613034
0.611382
0.608449
0.604409
0.599075
0.592919
0.586149
0.57924
0.572487
0.566362
0.561023
0.556785
0.553701
0.551853
0.550988
0.550711
0.550711
0.550885
0.551416
0.552304
0.553557
0.555036
0.556657
0.558257
0.559751
0.561034
0.562074
0.562842
0.563372
0.563733
0.563871
0.399258
0.40127
0.403268
0.405323
0.407303
0.409265
0.411095
0.412815
0.41432
0.415621
0.416643
0.417412
0.417909
0.418206
0.418348
0.418441
0.418449
0.418311
0.417944
0.417306
0.416344
0.41505
0.413423
0.411506
0.409361
0.40708
0.404775
0.40271
0.400515
0.398674
0.397145
0.395885
0.395066
0.394374
0.394044
0.393856
0.393849
0.393897
0.394069
0.394486
0.395281
0.396589
0.398552
0.401296
0.404935
0.409558
0.415222
0.421946
0.429731
0.438693
0.449203
0.461787
0.474283
0.487642
0.501696
0.516571
0.531732
0.546768
0.560798
0.57332
0.584019
0.592715
0.599572
0.604759
0.608594
0.610783
0.611818
0.611916
0.611951
0.611211
0.60975
0.607041
0.603282
0.598336
0.592669
0.586431
0.580074
0.573847
0.568159
0.563139
0.559055
0.555972
0.554008
0.552994
0.552608
0.552564
0.552663
0.553072
0.553802
0.554863
0.556136
0.55754
0.558929
0.560226
0.561346
0.562256
0.562934
0.563405
0.56373
0.563857
0.400417
0.402477
0.404553
0.406702
0.408818
0.410961
0.413052
0.4151
0.416998
0.418759
0.420293
0.421585
0.422568
0.423254
0.423647
0.423826
0.423882
0.423886
0.423697
0.42324
0.42241
0.421152
0.419415
0.417213
0.414598
0.411688
0.40864
0.405799
0.403029
0.400533
0.398585
0.396861
0.39581
0.394918
0.394485
0.394229
0.394164
0.394244
0.394434
0.394844
0.395653
0.397013
0.399067
0.401944
0.405748
0.410547
0.416369
0.423207
0.431031
0.439828
0.449653
0.461207
0.472657
0.484923
0.498048
0.512245
0.52709
0.542065
0.556154
0.568681
0.579433
0.588205
0.595278
0.60079
0.605154
0.607966
0.609542
0.609833
0.610002
0.609475
0.608252
0.605837
0.602411
0.597887
0.592703
0.586947
0.581093
0.575346
0.570055
0.565321
0.561366
0.558255
0.556134
0.554938
0.554406
0.554288
0.554314
0.554601
0.555175
0.556052
0.55713
0.558329
0.559526
0.560647
0.561619
0.562414
0.563014
0.563434
0.563728
0.563845
0.401417
0.403494
0.405607
0.407793
0.409969
0.412199
0.414441
0.416681
0.418826
0.420899
0.422848
0.424636
0.426183
0.427443
0.428355
0.42892
0.429177
0.429234
0.429223
0.429032
0.428491
0.427475
0.425844
0.423531
0.420512
0.4169
0.412908
0.409031
0.405663
0.402221
0.399926
0.397587
0.396319
0.395204
0.394668
0.394368
0.394302
0.394359
0.394534
0.394932
0.395749
0.397139
0.399255
0.402235
0.406175
0.411146
0.417138
0.424121
0.431989
0.440654
0.450056
0.460667
0.470983
0.481974
0.493959
0.507302
0.521716
0.536609
0.550724
0.56328
0.574191
0.583118
0.590495
0.596384
0.601335
0.604845
0.607168
0.60788
0.608128
0.607843
0.606928
0.604851
0.601813
0.597725
0.592989
0.587709
0.582323
0.577012
0.57208
0.567599
0.563749
0.560585
0.558271
0.556848
0.556123
0.55589
0.555857
0.556022
0.556443
0.557139
0.558032
0.559039
0.560058
0.561017
0.561857
0.56255
0.56308
0.563457
0.563725
0.563834
0.402218
0.404292
0.406428
0.408626
0.410836
0.4131
0.415373
0.417661
0.419908
0.422143
0.424317
0.426439
0.428436
0.430277
0.431866
0.433142
0.434019
0.434493
0.43462
0.434569
0.434368
0.433746
0.432459
0.430259
0.426964
0.422589
0.417405
0.412135
0.40837
0.403556
0.400908
0.398032
0.3965
0.395154
0.394503
0.394152
0.3941
0.394181
0.394318
0.394742
0.395549
0.396975
0.399119
0.402181
0.406229
0.411354
0.417515
0.424673
0.432662
0.441306
0.450398
0.460254
0.469703
0.479566
0.490257
0.502451
0.516193
0.531028
0.545478
0.558156
0.569203
0.578169
0.585716
0.591749
0.597126
0.601217
0.604465
0.605912
0.606423
0.606341
0.605799
0.604094
0.601495
0.597836
0.593505
0.588641
0.583658
0.578725
0.574107
0.56985
0.566099
0.56289
0.560406
0.558723
0.55777
0.557384
0.557283
0.557344
0.557627
0.558152
0.558867
0.559693
0.560547
0.561359
0.562079
0.562676
0.563138
0.563474
0.563719
0.563823
0.40278
0.404848
0.406999
0.409198
0.411425
0.413683
0.415951
0.418235
0.420512
0.422795
0.42506
0.427315
0.429528
0.431689
0.433738
0.435622
0.437227
0.43845
0.439177
0.439409
0.439296
0.439033
0.438238
0.436505
0.43338
0.428484
0.421851
0.414468
0.410443
0.404311
0.401204
0.397871
0.396108
0.394587
0.393876
0.393514
0.393486
0.393619
0.393771
0.394236
0.395056
0.396508
0.398697
0.401817
0.405941
0.411166
0.417468
0.424771
0.43289
0.441552
0.45041
0.459455
0.467596
0.475884
0.485101
0.496014
0.508965
0.523656
0.538293
0.550999
0.562566
0.571703
0.579736
0.586178
0.592277
0.597141
0.601529
0.603951
0.605106
0.605065
0.604931
0.603646
0.601483
0.598214
0.594302
0.589846
0.58527
0.580683
0.576347
0.572292
0.568644
0.565403
0.56262
0.560591
0.559333
0.558748
0.558556
0.558536
0.558697
0.559073
0.559625
0.560295
0.561009
0.561696
0.562309
0.562815
0.563209
0.563498
0.563716
0.563815
0.40293
0.404975
0.407137
0.409315
0.411548
0.413786
0.416056
0.418322
0.420599
0.422866
0.42513
0.42738
0.429613
0.431824
0.434001
0.436131
0.438175
0.440077
0.441715
0.442934
0.443547
0.443506
0.443085
0.442044
0.439469
0.434287
0.425597
0.414679
0.410995
0.403892
0.400465
0.39684
0.394904
0.393293
0.392569
0.392227
0.392266
0.392477
0.392703
0.393208
0.394143
0.395584
0.397851
0.401005
0.405222
0.410519
0.416941
0.424379
0.432665
0.441484
0.450438
0.459464
0.467342
0.474723
0.482356
0.491346
0.5025
0.516475
0.532227
0.545439
0.557211
0.566429
0.574729
0.581054
0.587375
0.592404
0.597584
0.60127
0.603635
0.60392
0.604112
0.603286
0.601497
0.598612
0.595006
0.590883
0.586577
0.58226
0.578157
0.574255
0.57065
0.567319
0.564583
0.562297
0.560707
0.559853
0.559563
0.559491
0.55955
0.559798
0.560237
0.560798
0.56142
0.562019
0.562553
0.562984
0.563314
0.563556
0.563741
0.563829
0.402107
0.404123
0.406302
0.408452
0.410695
0.412905
0.415178
0.417416
0.419692
0.421934
0.424194
0.426422
0.428655
0.430858
0.433059
0.435231
0.437383
0.439474
0.441467
0.443297
0.444738
0.445481
0.445247
0.44437
0.442416
0.437819
0.428269
0.41214
0.409734
0.401772
0.397645
0.393927
0.391827
0.390345
0.389649
0.389452
0.389585
0.389976
0.390337
0.390893
0.391859
0.393405
0.395688
0.398979
0.403282
0.408732
0.415302
0.422913
0.431369
0.440332
0.449314
0.457915
0.46477
0.470424
0.474971
0.480424
0.489473
0.503663
0.520311
0.533537
0.54598
0.555893
0.564898
0.571938
0.579324
0.585719
0.592731
0.598517
0.602679
0.603932
0.604059
0.603739
0.602416
0.599933
0.596703
0.592831
0.588759
0.584607
0.580605
0.5768
0.573338
0.570173
0.567047
0.564105
0.561838
0.560497
0.560036
0.55993
0.559966
0.560161
0.560561
0.561077
0.561672
0.562244
0.56276
0.563165
0.563466
0.563676
0.563834
0.563905
0.398286
0.400262
0.402432
0.404528
0.406752
0.408905
0.411155
0.413337
0.415588
0.417774
0.420004
0.422171
0.424354
0.426464
0.428547
0.43053
0.432457
0.434306
0.436142
0.437939
0.439737
0.441449
0.442831
0.443261
0.442208
0.439691
0.430449
0.40589
0.404494
0.396762
0.392138
0.388529
0.386484
0.385116
0.384656
0.384639
0.385114
0.385704
0.386404
0.38718
0.388293
0.389956
0.392626
0.395979
0.400477
0.406027
0.412809
0.420551
0.42921
0.438359
0.447667
0.456889
0.46451
0.470605
0.475427
0.480766
0.488417
0.499975
0.515113
0.529358
0.54266
0.552166
0.561142
0.567923
0.574886
0.580787
0.587361
0.593533
0.59997
0.602545
0.602625
0.602405
0.601049
0.598718
0.595579
0.591908
0.58801
0.584109
0.580377
0.576762
0.573329
0.569886
0.566973
0.564193
0.561856
0.560176
0.559572
0.559474
0.559572
0.5598
0.560254
0.560808
0.561466
0.562098
0.56269
0.563166
0.563535
0.563779
0.56396
0.564048
0.384681
0.386501
0.388448
0.390325
0.39228
0.394151
0.396083
0.397917
0.399797
0.401571
0.40338
0.405077
0.406781
0.408352
0.409897
0.411321
0.412751
0.4141
0.415452
0.416741
0.418121
0.419576
0.421039
0.422055
0.421555
0.420028
0.415224
0.397436
0.394793
0.386318
0.38148
0.377102
0.375361
0.37335
0.373313
0.372808
0.373774
0.374081
0.375352
0.375968
0.377635
0.379096
0.381889
0.385148
0.38996
0.395896
0.403006
0.411122
0.419845
0.429079
0.438179
0.447144
0.455119
0.46158
0.465506
0.465908
0.466529
0.468267
0.487653
0.512879
0.526956
0.538106
0.547105
0.555326
0.562674
0.569997
0.578642
0.588081
0.598287
0.602076
0.601074
0.601563
0.600114
0.597093
0.593556
0.589851
0.585837
0.581977
0.578287
0.574629
0.571408
0.56836
0.565354
0.562356
0.559082
0.556411
0.55545
0.555548
0.555906
0.556472
0.557378
0.558185
0.559054
0.559959
0.560822
0.561634
0.562356
0.562993
0.563527
0.563986
0.245935
0.24596
0.245955
0.245958
0.245957
0.245958
0.245958
0.245958
0.245959
0.245959
0.245959
0.24596
0.24596
0.24596
0.24596
0.24596
0.24596
0.24596
0.24596
0.24596
0.245921
0.245957
0.245953
0.245957
0.245956
0.245957
0.245957
0.245958
0.245959
0.24596
0.24596
0.245961
0.245961
0.245962
0.245962
0.245962
0.245963
0.245963
0.245963
0.245963
0.245902
0.24595
0.245949
0.245953
0.245953
0.245955
0.245956
0.245958
0.24596
0.245962
0.245963
0.245964
0.245965
0.245966
0.245967
0.245967
0.245968
0.245968
0.245968
0.245968
0.245883
0.245944
0.245945
0.24595
0.24595
0.245953
0.245955
0.245958
0.245961
0.245963
0.245965
0.245967
0.245968
0.24597
0.245971
0.245972
0.245973
0.245974
0.245974
0.245974
0.245863
0.245937
0.24594
0.245945
0.245947
0.24595
0.245954
0.245958
0.245962
0.245965
0.245968
0.24597
0.245973
0.245975
0.245977
0.245978
0.245979
0.24598
0.245981
0.245982
0.245839
0.245927
0.245933
0.24594
0.245942
0.245947
0.245952
0.245957
0.245963
0.245967
0.245971
0.245975
0.245978
0.245981
0.245984
0.245986
0.245988
0.245989
0.24599
0.245991
0.245815
0.245915
0.245924
0.245933
0.245937
0.245943
0.24595
0.245957
0.245964
0.24597
0.245976
0.245981
0.245985
0.245989
0.245993
0.245996
0.245999
0.246001
0.246002
0.246003
0.245786
0.245901
0.245914
0.245924
0.24593
0.245939
0.245948
0.245957
0.245966
0.245973
0.245981
0.245988
0.245994
0.245999
0.246004
0.246008
0.246011
0.246014
0.246015
0.246017
0.245756
0.245885
0.245901
0.245914
0.245923
0.245934
0.245945
0.245957
0.245968
0.245978
0.245987
0.245996
0.246003
0.24601
0.246017
0.246022
0.246026
0.246029
0.246031
0.246033
0.245722
0.245865
0.245887
0.245902
0.245914
0.245928
0.245942
0.245957
0.24597
0.245983
0.245994
0.246005
0.246015
0.246023
0.246031
0.246037
0.246043
0.246046
0.246049
0.246051
0.245687
0.245843
0.24587
0.245888
0.245904
0.245921
0.245939
0.245957
0.245973
0.245988
0.246002
0.246016
0.246027
0.246038
0.246047
0.246055
0.246061
0.246066
0.246069
0.246071
0.245648
0.245819
0.24585
0.245873
0.245893
0.245914
0.245936
0.245958
0.245977
0.245995
0.246012
0.246028
0.246042
0.246055
0.246066
0.246075
0.246082
0.246088
0.246091
0.246093
0.245607
0.245791
0.245828
0.245856
0.24588
0.245907
0.245933
0.245958
0.245981
0.246003
0.246023
0.246041
0.246058
0.246073
0.246086
0.246097
0.246106
0.246112
0.246116
0.246118
0.245561
0.24576
0.245803
0.245837
0.245867
0.245899
0.24593
0.24596
0.245986
0.246012
0.246035
0.246057
0.246076
0.246094
0.246109
0.246121
0.246131
0.246139
0.246143
0.246146
0.245512
0.245725
0.245775
0.245815
0.245852
0.24589
0.245928
0.245962
0.245993
0.246022
0.246049
0.246074
0.246097
0.246117
0.246134
0.246148
0.24616
0.246168
0.246173
0.246176
0.245457
0.245686
0.245743
0.245792
0.245836
0.245882
0.245925
0.245964
0.246
0.246034
0.246066
0.246094
0.24612
0.246143
0.246162
0.246178
0.246191
0.2462
0.246206
0.24621
0.245396
0.245641
0.245708
0.245767
0.245819
0.245874
0.245924
0.245968
0.24601
0.246049
0.246084
0.246117
0.246146
0.246171
0.246193
0.246211
0.246226
0.246236
0.246243
0.246246
0.245324
0.245592
0.245667
0.245739
0.245802
0.245866
0.245924
0.245974
0.246021
0.246065
0.246106
0.246142
0.246175
0.246204
0.246228
0.246248
0.246264
0.246276
0.246283
0.246287
0.245243
0.245535
0.245622
0.24571
0.245784
0.245859
0.245924
0.245981
0.246035
0.246085
0.246131
0.246172
0.246208
0.24624
0.246267
0.246289
0.246307
0.24632
0.246327
0.246332
0.245146
0.245472
0.245571
0.245679
0.245765
0.245853
0.245926
0.245991
0.246052
0.246108
0.246159
0.246205
0.246245
0.246281
0.24631
0.246335
0.246354
0.246368
0.246376
0.246381
0.245037
0.245401
0.245512
0.245648
0.245747
0.245849
0.24593
0.246004
0.246073
0.246136
0.246192
0.246243
0.246288
0.246326
0.246359
0.246385
0.246406
0.246421
0.24643
0.246436
0.244891
0.245322
0.245446
0.245617
0.245729
0.245848
0.245936
0.246021
0.246098
0.246168
0.246231
0.246287
0.246335
0.246377
0.246413
0.246442
0.246464
0.246481
0.24649
0.246496
0.244709
0.245236
0.245371
0.245588
0.245713
0.245849
0.245947
0.246043
0.246129
0.246206
0.246275
0.246336
0.246389
0.246435
0.246473
0.246504
0.246528
0.246546
0.246556
0.246562
0.244479
0.245147
0.245286
0.245564
0.245698
0.245852
0.245962
0.246071
0.246166
0.246251
0.246327
0.246393
0.24645
0.246499
0.24654
0.246574
0.246599
0.246618
0.246628
0.246635
0.244165
0.245065
0.245193
0.245548
0.245687
0.245861
0.245984
0.246106
0.246211
0.246304
0.246386
0.246458
0.246519
0.246572
0.246615
0.246651
0.246678
0.246697
0.246708
0.246715
0.243872
0.244995
0.245101
0.24554
0.24568
0.245878
0.246015
0.24615
0.246264
0.246366
0.246454
0.246531
0.246596
0.246652
0.246698
0.246735
0.246764
0.246784
0.246795
0.246802
0.243687
0.244934
0.245025
0.24554
0.245678
0.245905
0.246055
0.246205
0.246328
0.246437
0.246531
0.246613
0.246682
0.246741
0.246789
0.246828
0.246857
0.246879
0.246889
0.246897
0.243578
0.244889
0.244979
0.245542
0.245682
0.245945
0.246107
0.246271
0.246402
0.246519
0.246619
0.246705
0.246778
0.246839
0.246889
0.246929
0.246959
0.246982
0.246992
0.247
0.243522
0.244865
0.244956
0.245553
0.245703
0.245999
0.246173
0.24635
0.246489
0.246613
0.246717
0.246807
0.246882
0.246946
0.246997
0.247039
0.24707
0.247092
0.247103
0.247111
0.243494
0.244858
0.244948
0.245581
0.245746
0.24607
0.246255
0.246444
0.24659
0.246719
0.246827
0.24692
0.246998
0.247063
0.247115
0.247157
0.247189
0.247212
0.247222
0.24723
0.243484
0.244864
0.244961
0.245638
0.245816
0.246162
0.246354
0.246554
0.246705
0.24684
0.24695
0.247045
0.247124
0.247189
0.247243
0.247285
0.247317
0.247339
0.24735
0.247358
0.243527
0.244912
0.245021
0.245733
0.245919
0.246278
0.246473
0.246682
0.246836
0.246974
0.247087
0.247182
0.247261
0.247327
0.24738
0.247422
0.247453
0.247476
0.247486
0.247494
0.243665
0.24503
0.245143
0.245871
0.246057
0.246421
0.246615
0.246828
0.246982
0.247122
0.247235
0.247331
0.24741
0.247475
0.247527
0.247568
0.247599
0.24762
0.24763
0.247637
0.2439
0.245225
0.245332
0.246053
0.246232
0.246593
0.246781
0.246994
0.247146
0.247286
0.247397
0.247492
0.247569
0.247633
0.247684
0.247724
0.247753
0.247773
0.247782
0.247789
0.244214
0.245487
0.245584
0.246277
0.246444
0.246793
0.246972
0.247181
0.247327
0.247464
0.247571
0.247664
0.247739
0.2478
0.247849
0.247888
0.247916
0.247935
0.247943
0.247949
0.244582
0.245801
0.245886
0.24654
0.246692
0.247022
0.247187
0.247388
0.247526
0.247656
0.247759
0.247847
0.247918
0.247976
0.248023
0.248059
0.248085
0.248103
0.24811
0.248115
0.244994
0.246153
0.246228
0.246835
0.246972
0.247276
0.247425
0.247614
0.247741
0.247863
0.247958
0.24804
0.248107
0.248161
0.248204
0.248237
0.248261
0.248277
0.248283
0.248288
0.245431
0.246532
0.2466
0.247157
0.247277
0.247551
0.247684
0.247856
0.247971
0.248082
0.248169
0.248244
0.248304
0.248353
0.248392
0.248422
0.248443
0.248457
0.248461
0.248465
0.245892
0.246932
0.246995
0.2475
0.247604
0.247845
0.247961
0.248114
0.248214
0.248313
0.248389
0.248456
0.248509
0.248552
0.248586
0.248612
0.24863
0.248641
0.248644
0.248647
0.246367
0.247346
0.247406
0.247857
0.247947
0.248154
0.248252
0.248383
0.248468
0.248553
0.248618
0.248675
0.24872
0.248756
0.248785
0.248806
0.248821
0.24883
0.24883
0.248833
0.246858
0.247773
0.24783
0.248227
0.248302
0.248475
0.248554
0.248663
0.248731
0.248801
0.248854
0.2489
0.248936
0.248965
0.248988
0.249004
0.249015
0.249021
0.24902
0.249021
0.247358
0.248209
0.248262
0.248606
0.248665
0.248804
0.248864
0.248949
0.249001
0.249055
0.249094
0.249129
0.249156
0.249177
0.249193
0.249204
0.249211
0.249215
0.249211
0.249212
0.247871
0.248653
0.2487
0.248992
0.249033
0.249139
0.24918
0.249241
0.249275
0.249312
0.249338
0.249361
0.249378
0.249391
0.2494
0.249406
0.249409
0.249409
0.249403
0.249403
0.248388
0.2491
0.249141
0.249383
0.249404
0.249477
0.249499
0.249535
0.249552
0.249572
0.249584
0.249594
0.249601
0.249605
0.249608
0.249608
0.249606
0.249603
0.249595
0.249594
0.248913
0.249551
0.249585
0.249778
0.249775
0.249818
0.249818
0.24983
0.249829
0.249831
0.249829
0.249827
0.249824
0.249819
0.249814
0.249808