/*--------------------------------*- C++ -*----------------------------------*\
  =========                 |
  \\      /  F ield         | OpenFOAM: The Open Source CFD Toolbox
   \\    /   O peration     | Website:  https://openfoam.org
    \\  /    A nd           | Version:  7
     \\/     M anipulation  |
\*---------------------------------------------------------------------------*/
FoamFile
{
    version     2.0;
    format      ascii;
    class       volVectorField;
    location    "0.115";
    object      U;
}
// * * * * * * * * * * * * * * * * * * * * * * * * * * * * * * * * * * * * * //

dimensions      [0 1 -1 0 0 0 0];

internalField   nonuniform List<vector> 
48560
(
(221.943 -5.36765 -4.90816e-11)
(221.751 -6.19683 -5.89448e-11)
(221.582 -7.02822 -7.82072e-11)
(221.434 -7.84023 -1.00135e-10)
(221.302 -8.63314 -1.31214e-10)
(221.182 -9.40109 -1.65852e-10)
(221.071 -10.1469 -2.09051e-10)
(220.965 -10.8663 -2.55656e-10)
(220.863 -11.5637 -3.0926e-10)
(220.763 -12.2365 -3.65427e-10)
(220.663 -12.8901 -4.25945e-10)
(220.562 -13.5231 -4.87148e-10)
(220.459 -14.1406 -5.49407e-10)
(220.352 -14.741 -6.09687e-10)
(220.24 -15.3282 -6.66105e-10)
(220.121 -15.9004 -7.16885e-10)
(219.993 -16.4601 -7.58712e-10)
(219.854 -17.0059 -7.89691e-10)
(219.701 -17.5398 -8.06624e-10)
(219.532 -18.0607 -8.07653e-10)
(219.343 -18.5704 -7.8979e-10)
(219.131 -19.0682 -7.51029e-10)
(218.892 -19.5548 -6.89598e-10)
(218.619 -20.0295 -6.02787e-10)
(218.31 -20.4914 -4.92879e-10)
(217.956 -20.9394 -3.56804e-10)
(217.556 -21.3723 -1.98118e-10)
(217.038 -21.8647 1.68571e-11)
(216.284 -22.4137 3.11303e-10)
(215.391 -22.9119 5.95778e-10)
(214.304 -23.3846 8.81885e-10)
(212.961 -23.8068 1.1596e-09)
(211.279 -24.1917 1.37783e-09)
(209.079 -24.5152 1.53833e-09)
(206.056 -24.7616 1.44258e-09)
(202.49 -24.8964 1.19423e-09)
(198.252 -24.8759 5.65279e-10)
(193.601 -24.7462 -1.39964e-10)
(188.787 -24.4534 -1.37746e-09)
(184.853 -24.0507 -2.54006e-09)
(180.809 -23.2558 -4.16458e-09)
(176.732 -22.6201 -4.54941e-09)
(172.875 -21.4535 -5.9123e-09)
(169.146 -20.0224 -6.40365e-09)
(165.802 -18.7135 -7.0261e-09)
(165.079 -16.0975 -9.50305e-09)
(171.766 -12.2481 -1.25208e-08)
(191.385 -6.88505 -1.71147e-08)
(221.306 -4.08093 -2.21782e-08)
(250.053 -7.78908 -2.61565e-08)
(271.684 -31.468 -2.92558e-08)
(263.863 -74.1589 -3.08575e-08)
(229.269 -57.6498 -2.9722e-08)
(214.68 -60.7853 -2.98083e-08)
(195.662 -51.6233 -2.92028e-08)
(183.877 -51.0944 -2.92422e-08)
(165.482 -43.5363 -2.86396e-08)
(153.749 -41.3576 -2.86542e-08)
(133.696 -34.3429 -2.79968e-08)
(121.443 -31.2415 -2.80349e-08)
(99.3232 -24.1238 -2.7306e-08)
(85.6829 -20.4169 -2.73016e-08)
(66.0759 -11.0083 -2.64191e-08)
(66.3462 -8.54304 -2.67534e-08)
(55.7816 -5.57973 -2.62818e-08)
(52.6455 1.12771 -2.60681e-08)
(56.5749 2.22471 -2.63121e-08)
(58.8231 4.44238 -2.65297e-08)
(60.5569 6.50873 -2.67353e-08)
(63.5758 8.64365 -2.70195e-08)
(67.9238 11.4707 -2.74292e-08)
(73.4448 14.9745 -2.7878e-08)
(80.3088 19.2409 -2.83814e-08)
(88.7298 24.4694 -2.89221e-08)
(98.9289 30.8337 -2.95051e-08)
(111.36 38.4928 -3.01151e-08)
(127.426 48.2364 -3.07907e-08)
(149.438 61.6846 -3.1502e-08)
(182.284 78.9861 -3.22152e-08)
(220.44 84.7195 -3.28637e-08)
(259.688 66.4918 -3.37673e-08)
(254.786 60.4471 -3.40149e-08)
(246.368 53.3834 -3.43804e-08)
(251.803 56.0632 -3.43895e-08)
(256.211 56.6905 -3.4634e-08)
(267.566 53.7092 -3.53796e-08)
(271.759 43.0844 -3.55495e-08)
(275.782 36.6796 -3.59174e-08)
(275.789 26.9354 -3.60852e-08)
(275.43 19.8337 -3.63702e-08)
(273.263 14.3846 -3.64708e-08)
(270.017 8.44321 -3.66482e-08)
(266.521 3.74695 -3.67971e-08)
(263.136 -0.00116031 -3.69373e-08)
(260.008 -3.0481 -3.70438e-08)
(257.305 -5.5127 -3.71491e-08)
(255.074 -7.47893 -3.72291e-08)
(253.41 -8.90355 -3.72925e-08)
(252.353 -9.71775 -3.73382e-08)
(252.112 -9.95822 -3.73619e-08)
(221.188 -5.08782 -5.89611e-10)
(221.005 -5.94564 -6.17842e-10)
(220.838 -6.80019 -6.46724e-10)
(220.702 -7.64498 -6.7329e-10)
(220.574 -8.46245 -6.98936e-10)
(220.463 -9.26006 -7.18461e-10)
(220.352 -10.0282 -7.35613e-10)
(220.247 -10.7747 -7.42935e-10)
(220.137 -11.4971 -7.4551e-10)
(220.024 -12.2042 -7.34415e-10)
(219.905 -12.8956 -7.18364e-10)
(219.779 -13.5729 -6.87668e-10)
(219.643 -14.2348 -6.47477e-10)
(219.495 -14.8796 -5.90135e-10)
(219.332 -15.5069 -5.1975e-10)
(219.151 -16.1139 -4.31245e-10)
(218.95 -16.7019 -3.28229e-10)
(218.725 -17.2692 -2.0882e-10)
(218.474 -17.819 -7.69336e-11)
(218.195 -18.3514 6.59506e-11)
(217.88 -18.8696 2.22066e-10)
(217.526 -19.371 3.85731e-10)
(217.124 -19.8551 5.59687e-10)
(216.668 -20.3191 7.35173e-10)
(216.144 -20.7627 9.17117e-10)
(215.535 -21.184 1.09021e-09)
(214.824 -21.5813 1.2571e-09)
(213.846 -22.0214 1.41442e-09)
(212.232 -22.4904 1.51257e-09)
(210.276 -22.9014 1.40448e-09)
(208.017 -23.2593 1.20298e-09)
(205.366 -23.539 6.8493e-10)
(202.469 -23.7667 1.11574e-10)
(199.344 -23.9087 -9.01041e-10)
(196.47 -23.969 -1.93581e-09)
(193.654 -23.8486 -3.34072e-09)
(191.144 -23.768 -3.79435e-09)
(188.654 -23.5228 -5.07235e-09)
(186.65 -23.2637 -5.89681e-09)
(184.843 -22.727 -6.76873e-09)
(183.404 -22.2539 -7.20542e-09)
(183.038 -21.7388 -8.15303e-09)
(184.913 -20.8175 -1.09388e-08)
(190.622 -20.8878 -1.25616e-08)
(204.542 -21.4823 -1.69128e-08)
(229.83 -22.8106 -2.20562e-08)
(255.632 -23.8673 -2.6343e-08)
(277.804 -24.76 -2.96193e-08)
(288.942 -26.5146 -3.09935e-08)
(295.839 -34.6629 -3.2386e-08)
(287.448 -53.5421 -3.27471e-08)
(275.13 -72.0735 -3.32386e-08)
(246.996 -67.1274 -3.26775e-08)
(235.293 -67.3319 -3.25943e-08)
(216.33 -61.472 -3.22291e-08)
(206.915 -58.3937 -3.20924e-08)
(189.502 -52.6491 -3.17805e-08)
(179.974 -48.5888 -3.15755e-08)
(162.664 -42.4782 -3.12899e-08)
(152.775 -37.7517 -3.10294e-08)
(136.166 -31.2762 -3.07716e-08)
(125.728 -26.0559 -3.03871e-08)
(113.384 -16.8047 -3.00639e-08)
(111.847 -12.2643 -2.98443e-08)
(107.957 -6.68261 -2.98495e-08)
(105.468 1.30449 -2.93654e-08)
(111.121 3.49159 -2.98142e-08)
(113.938 8.65579 -2.98953e-08)
(116.835 11.7532 -3.01429e-08)
(121.023 15.5199 -3.03183e-08)
(124.798 18.9556 -3.06221e-08)
(130.436 23.1842 -3.08689e-08)
(135.908 27.5026 -3.12228e-08)
(143.594 32.9526 -3.15344e-08)
(151.845 39.109 -3.19402e-08)
(163.024 46.9509 -3.23202e-08)
(176.867 56.9036 -3.27993e-08)
(197.309 71.4787 -3.32696e-08)
(221.3 90.2729 -3.38464e-08)
(241.907 94.658 -3.44509e-08)
(258.387 73.9816 -3.50218e-08)
(263.721 63.9364 -3.54993e-08)
(266.057 61.5184 -3.56977e-08)
(270.263 62.6655 -3.61538e-08)
(272.857 63.4659 -3.59355e-08)
(275.839 59.6064 -3.69334e-08)
(277.532 51.035 -3.65053e-08)
(279.533 43.401 -3.72314e-08)
(278.85 33.3396 -3.68453e-08)
(278.004 24.7954 -3.75646e-08)
(274.971 16.7012 -3.71446e-08)
(272.278 10.845 -3.76877e-08)
(268.296 5.71673 -3.73595e-08)
(265.214 1.9854 -3.77526e-08)
(261.551 -1.19582 -3.74828e-08)
(258.96 -3.59793 -3.7756e-08)
(256.277 -5.67089 -3.75423e-08)
(254.711 -7.14223 -3.77025e-08)
(253.724 -7.74747 -3.75936e-08)
(253.359 -7.93815 -3.7616e-08)
(219.985 -4.79946 -1.82344e-10)
(219.79 -5.71113 -1.57237e-10)
(219.574 -6.62085 -1.04095e-10)
(219.421 -7.52517 -6.29259e-11)
(219.243 -8.3928 3.67461e-12)
(219.105 -9.24189 6.15656e-11)
(218.935 -10.0542 1.41583e-10)
(218.785 -10.8539 2.16286e-10)
(218.601 -11.6302 3.09072e-10)
(218.421 -12.3958 3.98732e-10)
(218.205 -13.1354 5.04383e-10)
(217.979 -13.8553 6.10311e-10)
(217.715 -14.5412 7.26203e-10)
(217.427 -15.1989 8.40722e-10)
(217.091 -15.819 9.56397e-10)
(216.711 -16.4094 1.06439e-09)
(216.26 -16.9671 1.15968e-09)
(215.73 -17.5019 1.2326e-09)
(215.085 -18.0148 1.26579e-09)
(214.395 -18.5117 1.28248e-09)
(213.609 -18.9918 1.25212e-09)
(212.767 -19.4573 1.18884e-09)
(211.832 -19.9045 1.06249e-09)
(210.827 -20.3305 9.20219e-10)
(209.728 -20.7365 6.76453e-10)
(208.558 -21.1165 4.14044e-10)
(207.314 -21.4731 2.75913e-11)
(205.831 -21.8558 -4.54741e-10)
(203.891 -22.2596 -1.32086e-09)
(202.307 -22.6013 -2.15578e-09)
(200.518 -22.8638 -3.27133e-09)
(199.022 -23.0901 -3.59744e-09)
(197.412 -23.2614 -4.62235e-09)
(196.135 -23.3988 -5.19666e-09)
(194.943 -23.4175 -5.95027e-09)
(193.886 -23.338 -6.42561e-09)
(193.27 -23.171 -7.12697e-09)
(193.113 -22.9856 -8.07432e-09)
(194.527 -22.8287 -1.00592e-08)
(197.55 -23.0409 -1.12197e-08)
(204.151 -23.6032 -1.37578e-08)
(215.878 -24.703 -1.69551e-08)
(233.739 -26.1255 -2.1253e-08)
(253.352 -27.6658 -2.46731e-08)
(273.408 -28.0499 -2.8624e-08)
(287.782 -27.1186 -3.033e-08)
(299.47 -26.4196 -3.21737e-08)
(305.306 -27.0865 -3.26686e-08)
(307.592 -31.1723 -3.32092e-08)
(303.597 -41.413 -3.3275e-08)
(292.417 -57.7443 -3.32395e-08)
(276.517 -68.0655 -3.30788e-08)
(256.591 -61.9596 -3.29016e-08)
(244.506 -65.3499 -3.26475e-08)
(227.862 -57.558 -3.24894e-08)
(217.675 -57.0995 -3.22011e-08)
(202.677 -49.8135 -3.20801e-08)
(192.626 -47.5255 -3.17689e-08)
(178.162 -40.7119 -3.16859e-08)
(168.183 -37.2399 -3.13531e-08)
(155.111 -30.7832 -3.13038e-08)
(145.973 -26.3742 -3.09522e-08)
(137.71 -18.2056 -3.09115e-08)
(136.059 -13.8374 -3.06404e-08)
(135.386 -5.90473 -3.07348e-08)
(132.908 0.995021 -3.04398e-08)
(138.64 4.5793 -3.07906e-08)
(139.529 10.9696 -3.07326e-08)
(143.233 14.6249 -3.10197e-08)
(145.455 19.6312 -3.10634e-08)
(149.132 23.9291 -3.13742e-08)
(152.45 28.994 -3.15027e-08)
(156.904 34.149 -3.18451e-08)
(162.028 40.1 -3.2057e-08)
(168.645 46.7088 -3.24477e-08)
(177.393 54.5427 -3.27539e-08)
(189.892 64.2625 -3.32241e-08)
(208.609 76.2669 -3.36544e-08)
(232.074 84.8541 -3.42084e-08)
(250.995 79.6588 -3.46616e-08)
(260.316 67.7102 -3.50117e-08)
(265.185 63.5583 -3.52806e-08)
(267.593 61.0894 -3.55768e-08)
(272.03 59.6338 -3.60968e-08)
(274.945 55.1726 -3.592e-08)
(277.792 48.5679 -3.67452e-08)
(278.732 41.195 -3.62494e-08)
(280.056 33.9935 -3.69604e-08)
(278.899 26.4906 -3.65702e-08)
(277.592 20.1403 -3.70937e-08)
(274.455 14.266 -3.68234e-08)
(271.703 9.30766 -3.71888e-08)
(267.974 5.10045 -3.69739e-08)
(264.962 1.73823 -3.72308e-08)
(261.556 -1.00203 -3.70516e-08)
(258.987 -3.07319 -3.72252e-08)
(256.461 -4.57347 -3.70755e-08)
(254.88 -5.47511 -3.71785e-08)
(253.926 -5.7758 -3.71035e-08)
(253.57 -5.88514 -3.71157e-08)
(216.94 -4.51597 6.0551e-10)
(216.665 -5.45244 6.62133e-10)
(216.268 -6.37363 6.72374e-10)
(216.009 -7.29282 7.05458e-10)
(215.629 -8.16723 7.03521e-10)
(215.34 -9.02742 7.07154e-10)
(214.926 -9.84945 6.85015e-10)
(214.566 -10.6651 6.52361e-10)
(214.09 -11.4556 5.99382e-10)
(213.655 -12.2356 5.21132e-10)
(213.121 -12.9852 4.23593e-10)
(212.615 -13.7171 2.87736e-10)
(212.026 -14.4178 1.30035e-10)
(211.451 -15.0983 -7.59637e-11)
(210.808 -15.7498 -3.07705e-10)
(210.177 -16.3813 -5.93387e-10)
(209.502 -16.9858 -9.05087e-10)
(208.856 -17.5685 -1.26614e-09)
(208.22 -18.1217 -1.6394e-09)
(207.581 -18.6475 -2.07109e-09)
(206.949 -19.1412 -2.52527e-09)
(206.336 -19.6068 -3.03073e-09)
(205.71 -20.0194 -3.163e-09)
(205.101 -20.4333 -3.64036e-09)
(204.49 -20.8071 -3.87578e-09)
(203.907 -21.1732 -4.33646e-09)
(203.34 -21.5008 -4.63787e-09)
(202.734 -21.8597 -5.14521e-09)
(202.041 -22.2178 -5.65228e-09)
(201.511 -22.5039 -6.11609e-09)
(200.989 -22.6712 -6.40127e-09)
(200.715 -22.7676 -6.94112e-09)
(200.617 -22.8608 -7.6985e-09)
(201.331 -23.0651 -9.163e-09)
(202.714 -23.2559 -9.88852e-09)
(205.357 -23.7414 -1.1456e-08)
(209.951 -24.5068 -1.31879e-08)
(217.055 -25.7163 -1.558e-08)
(229.124 -27.4873 -1.8737e-08)
(242.029 -29.375 -2.15333e-08)
(258.04 -31.3144 -2.50883e-08)
(272.297 -32.6023 -2.75499e-08)
(285.716 -33.2323 -2.9989e-08)
(296.949 -33.4723 -3.14309e-08)
(305.752 -33.1016 -3.28214e-08)
(311.078 -32.9135 -3.30258e-08)
(314.258 -33.5229 -3.36136e-08)
(315.307 -35.9816 -3.34109e-08)
(312.887 -41.2708 -3.35907e-08)
(306.175 -50.7482 -3.32249e-08)
(294.205 -61.8915 -3.31074e-08)
(279.335 -67.2207 -3.25907e-08)
(262.274 -65.1721 -3.28039e-08)
(249.867 -65.1663 -3.22572e-08)
(235.469 -59.8277 -3.24032e-08)
(224.748 -57.4533 -3.19064e-08)
(211.732 -51.421 -3.20256e-08)
(201.411 -47.8926 -3.15862e-08)
(189.023 -41.7754 -3.17008e-08)
(179.179 -37.4836 -3.12926e-08)
(168.459 -31.2252 -3.13963e-08)
(160.276 -25.9413 -3.10438e-08)
(154.009 -18.3002 -3.11532e-08)
(152.301 -12.9599 -3.08626e-08)
(152.213 -5.03762 -3.10138e-08)
(150.306 0.596228 -3.08183e-08)
(154.921 5.91015 -3.10544e-08)
(154.343 11.8018 -3.09743e-08)
(158.262 16.0943 -3.12316e-08)
(158.94 21.0267 -3.12402e-08)
(162.825 25.4655 -3.15231e-08)
(164.794 30.3337 -3.16155e-08)
(169.395 35.4427 -3.19304e-08)
(173.53 41.0822 -3.21098e-08)
(180.515 47.6157 -3.24733e-08)
(189.029 55.3922 -3.27514e-08)
(202.267 65.3121 -3.31878e-08)
(219.259 76.253 -3.35716e-08)
(237.754 81.7573 -3.40709e-08)
(252.198 74.5073 -3.44129e-08)
(260.429 66.6994 -3.46152e-08)
(265.765 64.3271 -3.48161e-08)
(269.16 61.9004 -3.53263e-08)
(272.983 59.8102 -3.54039e-08)
(274.784 54.6561 -3.56351e-08)
(276.835 47.8172 -3.59731e-08)
(277.627 41.2825 -3.58897e-08)
(278.354 34.4167 -3.62048e-08)
(277.297 27.5109 -3.61193e-08)
(275.953 21.1935 -3.63685e-08)
(273.186 15.3352 -3.62395e-08)
(270.511 10.5055 -3.64916e-08)
(267.077 6.3556 -3.63509e-08)
(264.133 3.06836 -3.65252e-08)
(260.949 0.376969 -3.64002e-08)
(258.488 -1.65743 -3.65181e-08)
(256.192 -3.03842 -3.64091e-08)
(254.762 -3.74219 -3.64743e-08)
(253.938 -3.90569 -3.64145e-08)
(253.624 -3.94777 -3.64293e-08)
(212.156 -3.91958 -2.46537e-09)
(211.784 -4.8567 -2.47411e-09)
(211.382 -5.76174 -2.76083e-09)
(211.089 -6.73343 -2.68491e-09)
(210.749 -7.63216 -2.94845e-09)
(210.485 -8.56913 -2.94852e-09)
(210.156 -9.44501 -3.20308e-09)
(209.884 -10.3466 -3.2679e-09)
(209.557 -11.1985 -3.52308e-09)
(209.29 -12.0652 -3.64305e-09)
(208.98 -12.8885 -3.90472e-09)
(208.73 -13.7157 -4.07033e-09)
(208.446 -14.5007 -4.33893e-09)
(208.218 -15.2775 -4.5386e-09)
(207.965 -16.0083 -4.80934e-09)
(207.762 -16.7153 -5.02761e-09)
(207.543 -17.3659 -5.28912e-09)
(207.366 -17.9733 -5.50598e-09)
(207.173 -18.5127 -5.74145e-09)
(207.006 -18.9998 -5.93353e-09)
(206.818 -19.423 -6.1172e-09)
(206.636 -19.8027 -6.24779e-09)
(206.511 -20.1634 -6.73512e-09)
(206.483 -20.488 -7.04578e-09)
(206.549 -20.7975 -7.51054e-09)
(206.752 -21.0909 -7.94175e-09)
(207.097 -21.3864 -8.43253e-09)
(207.713 -21.7475 -9.04324e-09)
(208.71 -22.1502 -9.80958e-09)
(210.379 -22.6403 -1.0729e-08)
(212.687 -23.2254 -1.1835e-08)
(216.159 -24.0192 -1.32828e-08)
(220.881 -25.0409 -1.49502e-08)
(227.909 -26.4071 -1.70852e-08)
(236.375 -28.0215 -1.92004e-08)
(246.394 -29.9167 -2.18072e-08)
(257.464 -31.8509 -2.41514e-08)
(268.775 -33.6123 -2.65974e-08)
(278.799 -34.7608 -2.83477e-08)
(289.192 -35.8191 -3.0225e-08)
(298.052 -36.4029 -3.15714e-08)
(305.608 -36.7811 -3.25762e-08)
(311.612 -36.7862 -3.33071e-08)
(315.955 -36.6584 -3.35928e-08)
(318.796 -36.5521 -3.38463e-08)
(320.296 -37.0866 -3.36818e-08)
(320.67 -38.504 -3.3765e-08)
(319.1 -41.5329 -3.33904e-08)
(314.898 -47.3943 -3.33829e-08)
(307.006 -55.6095 -3.28749e-08)
(295.351 -63.4394 -3.26855e-08)
(281.701 -66.2216 -3.2015e-08)
(266.446 -64.8272 -3.23807e-08)
(254.173 -64.1399 -3.1739e-08)
(241.132 -59.1636 -3.20047e-08)
(230.155 -56.7095 -3.14532e-08)
(218.416 -50.6663 -3.16631e-08)
(207.93 -47.1977 -3.12141e-08)
(196.803 -40.9442 -3.14001e-08)
(187.068 -36.6866 -3.10039e-08)
(177.685 -30.2191 -3.11517e-08)
(170.217 -24.9366 -3.08528e-08)
(165.121 -17.4567 -3.10115e-08)
(163.387 -11.6318 -3.07537e-08)
(163.21 -4.12555 -3.09061e-08)
(162.016 1.01011 -3.0793e-08)
(165.116 7.60495 -3.09004e-08)
(164.316 12.9173 -3.0869e-08)
(167.5 18.063 -3.10319e-08)
(167.695 23.0784 -3.1063e-08)
(171.112 27.9677 -3.12723e-08)
(172.538 33.0225 -3.13771e-08)
(176.9 38.3654 -3.16426e-08)
(180.617 44.1486 -3.18312e-08)
(187.629 50.8064 -3.21606e-08)
(196.041 58.4526 -3.24423e-08)
(209.38 67.3723 -3.28524e-08)
(225.222 75.0109 -3.32267e-08)
(241.656 76.2749 -3.36427e-08)
(252.951 70.3995 -3.38896e-08)
(260.63 65.5228 -3.40109e-08)
(266.073 62.6766 -3.40839e-08)
(269.843 59.9257 -3.49566e-08)
(273.194 55.7458 -3.47262e-08)
(274.783 49.937 -3.51897e-08)
(276.233 43.6947 -3.53593e-08)
(276.769 37.6641 -3.53539e-08)
(276.969 31.1404 -3.5429e-08)
(275.795 25.2207 -3.54768e-08)
(274.214 19.5076 -3.5592e-08)
(271.655 14.5162 -3.55146e-08)
(269.065 10.0867 -3.56924e-08)
(265.979 6.44387 -3.56083e-08)
(263.178 3.43753 -3.57276e-08)
(260.286 1.14875 -3.5639e-08)
(257.947 -0.526145 -3.57087e-08)
(255.908 -1.57927 -3.56292e-08)
(254.633 -2.11048 -3.56691e-08)
(253.925 -2.22351 -3.56254e-08)
(253.651 -2.25171 -3.56418e-08)
(212.22 -3.32306 -5.77322e-09)
(211.791 -4.3098 -5.80845e-09)
(211.47 -5.33792 -5.79896e-09)
(211.193 -6.35639 -5.96922e-09)
(210.983 -7.37007 -6.05146e-09)
(210.799 -8.36655 -6.21187e-09)
(210.644 -9.33731 -6.36146e-09)
(210.516 -10.2985 -6.53256e-09)
(210.41 -11.2225 -6.7353e-09)
(210.357 -12.1289 -6.93051e-09)
(210.336 -12.9858 -7.17841e-09)
(210.391 -13.8154 -7.40728e-09)
(210.49 -14.5883 -7.69738e-09)
(210.683 -15.3296 -7.96821e-09)
(210.939 -16.0176 -8.30254e-09)
(211.308 -16.6797 -8.62449e-09)
(211.76 -17.3017 -9.0109e-09)
(212.347 -17.9083 -9.39764e-09)
(213.043 -18.4854 -9.85389e-09)
(213.917 -19.0595 -1.03378e-08)
(214.966 -19.627 -1.09119e-08)
(216.289 -20.2147 -1.1559e-08)
(217.891 -20.8257 -1.2315e-08)
(219.854 -21.4754 -1.30786e-08)
(222.265 -22.1795 -1.40053e-08)
(225.25 -22.9598 -1.4987e-08)
(228.953 -23.849 -1.61742e-08)
(234.322 -25.0544 -1.77077e-08)
(239.471 -26.2798 -1.91834e-08)
(246.6 -27.8677 -2.10389e-08)
(253.436 -29.4134 -2.27489e-08)
(261.419 -31.1289 -2.46123e-08)
(269.001 -32.7205 -2.62553e-08)
(276.477 -34.1686 -2.77756e-08)
(283.809 -35.4974 -2.91553e-08)
(291.067 -36.6868 -3.0479e-08)
(297.833 -37.6766 -3.15281e-08)
(303.976 -38.4627 -3.24785e-08)
(309.349 -39.064 -3.30952e-08)
(314.004 -39.4961 -3.36801e-08)
(317.651 -39.7209 -3.38978e-08)
(320.568 -39.7989 -3.41091e-08)
(322.601 -39.8211 -3.40598e-08)
(323.957 -39.9845 -3.40035e-08)
(324.644 -40.4558 -3.38346e-08)
(324.611 -41.5099 -3.36251e-08)
(323.562 -43.486 -3.3435e-08)
(320.757 -47.1881 -3.31054e-08)
(315.551 -52.7774 -3.28942e-08)
(307.17 -59.4737 -3.24023e-08)
(296.054 -64.9363 -3.20952e-08)
(283.196 -66.6852 -3.14095e-08)
(269.205 -65.3299 -3.17927e-08)
(257.357 -63.9533 -3.11624e-08)
(245.12 -59.4788 -3.14406e-08)
(234.335 -56.3246 -3.09143e-08)
(223.217 -50.6289 -3.11371e-08)
(212.947 -46.5935 -3.07337e-08)
(202.441 -40.4926 -3.09318e-08)
(193.062 -35.7298 -3.05755e-08)
(184.39 -29.1379 -3.07255e-08)
(177.554 -23.4467 -3.04837e-08)
(173.002 -16.144 -3.0658e-08)
(171.225 -10.0297 -3.04427e-08)
(170.781 -3.05353 -3.05866e-08)
(170.086 1.94695 -3.05275e-08)
(171.929 8.8614 -3.05446e-08)
(171.411 13.8274 -3.0563e-08)
(173.663 19.3879 -3.06422e-08)
(174.019 24.2364 -3.07065e-08)
(176.894 29.2859 -3.08498e-08)
(178.493 34.2403 -3.09817e-08)
(182.679 39.573 -3.12021e-08)
(186.688 45.274 -3.14086e-08)
(193.906 51.8486 -3.17058e-08)
(202.676 59.2859 -3.19983e-08)
(215.655 67.3319 -3.23733e-08)
(229.616 72.9247 -3.27336e-08)
(243.462 72.4296 -3.30892e-08)
(253.075 67.8682 -3.3284e-08)
(260.509 64.432 -3.33771e-08)
(265.841 61.2142 -3.33735e-08)
(269.456 58.3606 -3.4144e-08)
(271.889 53.3211 -3.4168e-08)
(273.242 47.8194 -3.44004e-08)
(274.316 41.8415 -3.4649e-08)
(274.81 36.1822 -3.44906e-08)
(274.785 30.1199 -3.46288e-08)
(273.787 24.6457 -3.46516e-08)
(272.263 19.2628 -3.4769e-08)
(270.005 14.7102 -3.47245e-08)
(267.548 10.5605 -3.48337e-08)
(264.763 7.1985 -3.47938e-08)
(262.126 4.35519 -3.487e-08)
(259.548 2.23241 -3.48106e-08)
(257.419 0.699574 -3.48485e-08)
(255.656 -0.170949 -3.4791e-08)
(254.53 -0.600807 -3.48128e-08)
(253.913 -0.688073 -3.47825e-08)
(253.672 -0.711081 -3.47902e-08)
(218.378 -2.39073 -1.0134e-08)
(217.827 -3.40159 -1.01158e-08)
(217.742 -4.42387 -1.03033e-08)
(217.56 -5.50709 -1.04006e-08)
(217.724 -6.56636 -1.06294e-08)
(217.836 -7.64761 -1.08219e-08)
(218.196 -8.69249 -1.11076e-08)
(218.559 -9.73699 -1.13839e-08)
(219.148 -10.7425 -1.17371e-08)
(219.821 -11.7525 -1.20972e-08)
(220.726 -12.7414 -1.25325e-08)
(221.788 -13.7442 -1.29898e-08)
(223.114 -14.741 -1.35304e-08)
(224.682 -15.7622 -1.4113e-08)
(226.583 -16.7938 -1.47962e-08)
(228.852 -17.8652 -1.55508e-08)
(231.597 -18.9729 -1.64363e-08)
(234.838 -20.1427 -1.74148e-08)
(238.33 -21.3339 -1.84501e-08)
(242.276 -22.5853 -1.95585e-08)
(246.495 -23.859 -2.07179e-08)
(251.1 -25.171 -2.19205e-08)
(255.923 -26.4828 -2.31433e-08)
(261.012 -27.7992 -2.43687e-08)
(266.197 -29.09 -2.55865e-08)
(271.431 -30.3491 -2.67469e-08)
(276.496 -31.5358 -2.78416e-08)
(281.873 -32.7974 -2.89241e-08)
(285.999 -33.8529 -2.97273e-08)
(291.783 -35.1752 -3.07999e-08)
(295.874 -36.175 -3.14834e-08)
(301.102 -37.3516 -3.23448e-08)
(304.792 -38.2308 -3.28452e-08)
(309.208 -39.2079 -3.34603e-08)
(312.466 -39.9357 -3.37972e-08)
(316.086 -40.6619 -3.41887e-08)
(318.647 -41.1462 -3.43292e-08)
(321.344 -41.6147 -3.45077e-08)
(323.154 -41.923 -3.44715e-08)
(324.986 -42.2218 -3.44823e-08)
(326.059 -42.3781 -3.43008e-08)
(327.086 -42.5997 -3.42025e-08)
(327.595 -42.8715 -3.39286e-08)
(327.884 -43.3563 -3.37633e-08)
(327.663 -44.1661 -3.3457e-08)
(326.852 -45.5841 -3.32377e-08)
(324.905 -48.0607 -3.29187e-08)
(321.355 -51.8981 -3.26203e-08)
(315.523 -56.9776 -3.2269e-08)
(307.161 -62.2505 -3.18284e-08)
(296.621 -66.1266 -3.14001e-08)
(284.466 -67.1611 -3.07749e-08)
(271.435 -65.654 -3.11037e-08)
(260.081 -63.7117 -3.05378e-08)
(248.426 -59.3752 -3.07778e-08)
(237.904 -55.8015 -3.03135e-08)
(227.219 -50.1568 -3.05136e-08)
(217.161 -45.7939 -3.0174e-08)
(207.084 -39.635 -3.03642e-08)
(197.995 -34.5527 -3.00551e-08)
(189.819 -27.7669 -3.01936e-08)
(183.399 -21.8492 -3.0004e-08)
(179.156 -14.5953 -3.01781e-08)
(177.254 -8.41462 -3.00034e-08)
(176.594 -1.71458 -3.01342e-08)
(176.13 3.37493 -3.011e-08)
(177.208 10.2514 -3.0073e-08)
(176.89 15.1669 -3.01172e-08)
(178.457 20.9976 -3.01405e-08)
(179.007 25.8185 -3.02211e-08)
(181.385 31.0636 -3.03149e-08)
(183.2 36.0228 -3.04629e-08)
(187.104 41.428 -3.06466e-08)
(191.373 47.1251 -3.08672e-08)
(198.512 53.5572 -3.11372e-08)
(207.437 60.4397 -3.14401e-08)
(219.773 66.9485 -3.17857e-08)
(232.429 70.3369 -3.21256e-08)
(244.363 69.0948 -3.2412e-08)
(252.934 65.7132 -3.25651e-08)
(260.126 62.6198 -3.26279e-08)
(265.225 58.8997 -3.27785e-08)
(268.566 55.6923 -3.32932e-08)
(270.583 50.187 -3.35507e-08)
(271.735 45.2234 -3.36064e-08)
(272.61 39.4471 -3.38232e-08)
(273.04 34.272 -3.36871e-08)
(272.882 28.5951 -3.38482e-08)
(271.969 23.6549 -3.37886e-08)
(270.49 18.6671 -3.39379e-08)
(268.446 14.5368 -3.38767e-08)
(266.143 10.6729 -3.39757e-08)
(263.632 7.64464 -3.39456e-08)
(261.204 5.06235 -3.40009e-08)
(258.896 3.23522 -3.3957e-08)
(256.975 1.89501 -3.39776e-08)
(255.442 1.17732 -3.39358e-08)
(254.444 0.809601 -3.39431e-08)
(253.9 0.740278 -3.39231e-08)
(253.686 0.720375 -3.39253e-08)
(237.347 -1.01989 -1.73457e-08)
(237.22 -2.14009 -1.74675e-08)
(237.792 -3.32657 -1.77934e-08)
(238.317 -4.6334 -1.80544e-08)
(239.452 -5.97131 -1.84948e-08)
(240.616 -7.38455 -1.89022e-08)
(242.314 -8.80136 -1.94653e-08)
(244.098 -10.2524 -2.00189e-08)
(246.348 -11.7008 -2.0704e-08)
(248.728 -13.1874 -2.13915e-08)
(251.528 -14.6956 -2.21851e-08)
(254.488 -16.2529 -2.29835e-08)
(257.807 -17.8367 -2.38609e-08)
(261.272 -19.456 -2.47338e-08)
(264.996 -21.0808 -2.56511e-08)
(268.78 -22.7054 -2.65387e-08)
(272.648 -24.2945 -2.74224e-08)
(276.447 -25.8434 -2.82471e-08)
(280.434 -27.3627 -2.91003e-08)
(284.342 -28.8282 -2.98919e-08)
(288.316 -30.2403 -3.06798e-08)
(292.175 -31.5862 -3.13993e-08)
(295.995 -32.8639 -3.20901e-08)
(299.654 -34.07 -3.27067e-08)
(303.191 -35.203 -3.32782e-08)
(306.529 -36.2652 -3.37716e-08)
(309.69 -37.2548 -3.42135e-08)
(313.011 -38.3084 -3.46267e-08)
(314.43 -38.9682 -3.47065e-08)
(317.501 -39.9328 -3.50332e-08)
(318.998 -40.6043 -3.50458e-08)
(321.395 -41.3658 -3.52312e-08)
(322.616 -41.9439 -3.51461e-08)
(324.491 -42.5526 -3.522e-08)
(325.483 -43.0421 -3.5058e-08)
(326.905 -43.5121 -3.50411e-08)
(327.641 -43.9002 -3.48104e-08)
(328.641 -44.2417 -3.47218e-08)
(329.138 -44.551 -3.44355e-08)
(329.775 -44.8107 -3.42987e-08)
(330.042 -45.1158 -3.39686e-08)
(330.353 -45.4448 -3.37977e-08)
(330.276 -45.9166 -3.34521e-08)
(330.1 -46.6006 -3.32528e-08)
(329.315 -47.7136 -3.28982e-08)
(327.962 -49.5091 -3.26662e-08)
(325.394 -52.2425 -3.22914e-08)
(321.344 -56.0129 -3.19954e-08)
(315.231 -60.4104 -3.15713e-08)
(307.108 -64.5993 -3.11616e-08)
(297.089 -67.4305 -3.06589e-08)
(285.514 -68.0527 -3.01076e-08)
(273.314 -66.1855 -3.03636e-08)
(262.447 -63.8997 -2.98697e-08)
(251.303 -59.4768 -3.00581e-08)
(241.082 -55.5222 -2.9662e-08)
(230.744 -49.8382 -2.98306e-08)
(220.923 -45.0868 -2.95567e-08)
(211.178 -38.8391 -2.97342e-08)
(202.372 -33.333 -2.94685e-08)
(194.561 -26.3599 -2.95932e-08)
(188.421 -20.1497 -2.94466e-08)
(184.308 -12.9555 -2.96187e-08)
(182.245 -6.74022 -2.94753e-08)
(181.403 -0.235379 -2.95958e-08)
(181.002 4.92906 -2.95944e-08)
(181.619 11.6001 -2.95267e-08)
(181.381 16.5628 -2.95813e-08)
(182.499 22.4551 -2.95706e-08)
(183.138 27.2373 -2.96542e-08)
(185.175 32.5479 -2.97153e-08)
(187.154 37.4158 -2.98703e-08)
(190.904 42.7937 -3.003e-08)
(195.461 48.3362 -3.02605e-08)
(202.597 54.5003 -3.05123e-08)
(211.553 60.7101 -3.08192e-08)
(222.992 65.9066 -3.11366e-08)
(234.305 67.8766 -3.145e-08)
(244.773 66.5143 -3.16883e-08)
(252.777 63.8006 -3.18313e-08)
(259.642 60.703 -3.189e-08)
(264.421 56.7394 -3.20586e-08)
(267.37 53.3142 -3.26142e-08)
(269.121 47.8472 -3.25839e-08)
(270.098 43.2519 -3.30049e-08)
(270.897 37.7109 -3.27439e-08)
(271.243 32.9231 -3.30317e-08)
(271.061 27.5763 -3.29413e-08)
(270.208 23.0284 -3.30085e-08)
(268.832 18.3666 -3.30812e-08)
(266.969 14.5701 -3.3049e-08)
(264.86 10.9693 -3.31215e-08)
(262.582 8.21681 -3.31022e-08)
(260.377 5.83524 -3.31418e-08)
(258.314 4.22167 -3.31093e-08)
(256.6 3.04658 -3.311e-08)
(255.255 2.44728 -3.30868e-08)
(254.369 2.12521 -3.308e-08)
(253.886 2.06956 -3.30701e-08)
(253.693 2.05184 -3.30665e-08)
(268.092 -0.223136 -2.62496e-08)
(268.883 -1.59332 -2.65863e-08)
(270.053 -3.10172 -2.69937e-08)
(271.409 -4.76335 -2.74084e-08)
(273.117 -6.49603 -2.78898e-08)
(274.972 -8.31321 -2.83715e-08)
(277.13 -10.1491 -2.89124e-08)
(279.378 -12.0131 -2.94435e-08)
(281.858 -13.8599 -3.00195e-08)
(284.367 -15.7023 -3.05736e-08)
(287.042 -17.5207 -3.11555e-08)
(289.708 -19.3378 -3.17034e-08)
(292.49 -21.1361 -3.22631e-08)
(295.228 -22.9269 -3.27783e-08)
(298.03 -24.6917 -3.32908e-08)
(300.755 -26.4349 -3.37508e-08)
(303.495 -28.138 -3.41965e-08)
(306.137 -29.799 -3.45875e-08)
(308.758 -31.3963 -3.49582e-08)
(311.241 -32.9248 -3.52677e-08)
(313.667 -34.3715 -3.55515e-08)
(315.928 -35.7326 -3.57721e-08)
(318.1 -37.0018 -3.59649e-08)
(320.093 -38.1781 -3.60954e-08)
(321.977 -39.2605 -3.61973e-08)
(323.679 -40.2504 -3.62426e-08)
(325.257 -41.1501 -3.62602e-08)
(326.795 -42.0695 -3.62206e-08)
(327.009 -42.5528 -3.60507e-08)
(328.314 -43.284 -3.59829e-08)
(328.765 -43.857 -3.5738e-08)
(329.644 -44.3269 -3.56433e-08)
(329.967 -44.8193 -3.53533e-08)
(330.644 -45.1952 -3.52308e-08)
(330.88 -45.645 -3.49125e-08)
(331.431 -45.9864 -3.47653e-08)
(331.587 -46.3983 -3.44276e-08)
(332.007 -46.6977 -3.42619e-08)
(332.077 -47.0674 -3.3908e-08)
(332.341 -47.3548 -3.37237e-08)
(332.258 -47.7479 -3.33666e-08)
(332.276 -48.1709 -3.31647e-08)
(331.873 -48.819 -3.2806e-08)
(331.354 -49.7338 -3.25853e-08)
(330.159 -51.1374 -3.22209e-08)
(328.384 -53.1815 -3.19684e-08)
(325.362 -56.0311 -3.15778e-08)
(321.018 -59.541 -3.12701e-08)
(314.862 -63.3277 -3.08261e-08)
(307.045 -66.7144 -3.04264e-08)
(297.525 -68.8539 -2.99017e-08)
(286.489 -69.1641 -2.94059e-08)
(275.047 -66.8607 -2.96003e-08)
(264.64 -64.2934 -2.91636e-08)
(253.98 -59.6652 -2.93069e-08)
(244.061 -55.3762 -2.8967e-08)
(234.041 -49.5431 -2.91083e-08)
(224.451 -44.4373 -2.88914e-08)
(214.999 -38.0171 -2.90594e-08)
(206.454 -32.1189 -2.88303e-08)
(198.935 -24.9273 -2.89433e-08)
(192.979 -18.444 -2.88301e-08)
(188.897 -11.2325 -2.89987e-08)
(186.642 -4.95885 -2.8883e-08)
(185.605 1.45407 -2.89945e-08)
(185.163 6.63189 -2.90104e-08)
(185.494 13.1276 -2.89239e-08)
(185.25 18.1801 -2.89825e-08)
(186.056 24.0661 -2.89504e-08)
(186.696 28.8656 -2.90314e-08)
(188.504 34.2121 -2.90717e-08)
(190.567 39.0194 -2.92303e-08)
(194.232 44.3622 -2.93754e-08)
(198.96 49.7068 -2.96125e-08)
(206.019 55.4743 -2.98531e-08)
(214.783 60.7951 -3.01612e-08)
(225.356 64.6672 -3.04532e-08)
(235.624 65.6197 -3.07471e-08)
(245.023 64.3444 -3.09605e-08)
(252.601 61.8379 -3.10996e-08)
(259.062 58.5644 -3.11575e-08)
(263.509 54.3917 -3.13193e-08)
(266.148 50.8362 -3.18353e-08)
(267.724 45.5751 -3.1677e-08)
(268.565 41.2758 -3.23842e-08)
(269.303 36.0339 -3.17778e-08)
(269.563 31.5861 -3.23272e-08)
(269.388 26.5825 -3.19612e-08)
(268.574 22.392 -3.23265e-08)
(267.319 18.0625 -3.21414e-08)
(265.606 14.5821 -3.23117e-08)
(263.692 11.263 -3.2242e-08)
(261.622 8.76869 -3.23098e-08)
(259.639 6.61221 -3.22733e-08)
(257.794 5.19044 -3.22956e-08)
(256.274 4.15092 -3.22552e-08)
(255.088 3.64014 -3.22585e-08)
(254.301 3.35389 -3.22431e-08)
(253.869 3.30823 -3.22364e-08)
(253.695 3.29226 -3.22333e-08)
(296.214 0.022933 -3.31178e-08)
(297.107 -1.45625 -3.34361e-08)
(297.948 -3.1101 -3.37163e-08)
(299.16 -4.93843 -3.40404e-08)
(300.367 -6.86495 -3.43347e-08)
(301.846 -8.88989 -3.46542e-08)
(303.331 -10.9467 -3.49493e-08)
(304.982 -13.0323 -3.52522e-08)
(306.62 -15.0988 -3.55323e-08)
(308.325 -17.1501 -3.58047e-08)
(309.99 -19.1589 -3.60535e-08)
(311.659 -21.1451 -3.62826e-08)
(313.294 -23.0983 -3.64871e-08)
(314.908 -25.0271 -3.66641e-08)
(316.492 -26.9161 -3.68152e-08)
(318.032 -28.7659 -3.6933e-08)
(319.542 -30.5595 -3.70266e-08)
(320.99 -32.2948 -3.70828e-08)
(322.4 -33.9556 -3.71148e-08)
(323.732 -35.5406 -3.71097e-08)
(325.018 -37.0366 -3.70819e-08)
(326.213 -38.4438 -3.70181e-08)
(327.358 -39.7524 -3.69333e-08)
(328.403 -40.9661 -3.68152e-08)
(329.394 -42.0784 -3.668e-08)
(330.284 -43.0964 -3.65124e-08)
(331.111 -44.0164 -3.63321e-08)
(331.868 -44.9472 -3.60976e-08)
(331.88 -45.3688 -3.58957e-08)
(332.53 -46.0988 -3.56612e-08)
(332.64 -46.5742 -3.53691e-08)
(333.07 -47.0425 -3.51586e-08)
(333.111 -47.4284 -3.48425e-08)
(333.432 -47.7895 -3.46271e-08)
(333.434 -48.1326 -3.4304e-08)