/*--------------------------------*- C++ -*----------------------------------*\
  =========                 |
  \\      /  F ield         | OpenFOAM: The Open Source CFD Toolbox
   \\    /   O peration     | Website:  https://openfoam.org
    \\  /    A nd           | Version:  7
     \\/     M anipulation  |
\*---------------------------------------------------------------------------*/
FoamFile
{
    version     2.0;
    format      ascii;
    class       labelField;
    location    "0.1275/lagrangian/reactingCloud1";
    object      cellId;
}
// * * * * * * * * * * * * * * * * * * * * * * * * * * * * * * * * * * * * * //


1153
(
61
55
22
16
14
53
53
191
80
117
152
298
176
185
260
218
223
218
295
288
328
289
325
324
365
362
394
398
544
470
466
504
540
497
538
536
540
611
610
610
569
641
723
642
640
678
678
816
779
768
813
809
811
804
813
837
868
867
891
916
943
949
951
977
973
1005
1020
880
940
840
1045
1047
1021
1007
982
961
941
942
928
923
904
861
680
853
846
824
806
790
766
762
742
721
702
691
667
320
641
624
618
582
582
460
545
549
260
510
506
490
468
443
424
428
401
382
363
372
300
220
313
303
240
292
267
241
227
205
212
185
167
164
141
132
80
85
82
61
40
53
34
4
855
515
1000
979
1049
1002
939
1007
919
988
944
971
858
880
860
909
716
799
778
758
829
806
656
739
740
769
742
720
699
680
659
639
618
577
536
565
559
569
516
518
523
522
505
498
482
482
460
417
419
396
401
520
922
1029
985
1031
923
885
926
300
913
831
742
790
682
737
732
622
604
674
613
616
543
589
441
577
530
340
536
518
468
430
341
445
341
371
347
346
351
352
336
288
244
208
230
204
189
190
191
127
130
95
90
62
92
72
44
25
33
29
446
428
490
488
490
490
513
539
538
599
591
651
652
703
735
725
756
787
813
813
844
843
813
926
919
947
944
941
946
976
976
1027
359
352
303
287
240
202
22
100
38
5
15
115
56
18
114
85
153
77
328
108
320
196
194
150
147
147
276
192
143
140
231
185
188
186
229
224
231
271
271
314
268
269
227
264
312
269
307
309
306
352
395
351
394
305
353
435
349
478
347
348
520
347
521
560
390
473
428
470
424
515
556
597
509
508
505
552
554
550
548
547
551
545
771
593
591
632
586
587
584
630
628
674
631
629
671
669
890
669
705
704
705
752
755
790
786
789
882
830
832
831
835
917
991
870
871
875
870
868
874
904
909
904
1015
957
912
908
955
1038
952
954
950
1011
949
948
26
23
43
8
135
9
8
6
19
18
169
32
36
38
36
39
36
164
31
93
130
128
57
90
90
127
124
197
125
122
266
158
158
156
194
156
190
189
195
260
192
299
256
260
260
291
295
293
297
367
332
326
328
321
359
359
435
360
397
433
505
396
431
428
427
429
503
570
606
566
636
570
565
604
600
631
633
627
662
663
663
725
656
658
660
658
658
688
718
749
747
749
747
748
740
744
746
775
779
774
808
803
803
804
826
865
864
862
863
863
863
926
896
923
921
958
952
942
952
955
951
973
981
977
1008
1009
1006
1010
1031
1032
1030
1052
1054
1058
1049
680
533
589
868
470
10
10
43
22
57
51
50
50
53
81
19
82
24
47
44
16
138
15
111
113
108
76
170
44
44
300
20
171
44
106
199
74
137
73
73
111
105
104
105
144
109
102
164
135
102
226
165
196
227
198
135
189
160
193
284
160
200
291
221
240
222
255
278
280
227
250
217
287
290
275
260
337
247
305
245
245
246
382
335
337
313
273
273
395
283
301
303
364
304
363
410
331
301
282
330
331
451
358
330
279
358
359
391
329
329
357
358
451
388
357
385
448
370
357
364
450
359
357
385
388
450
479
417
414
413
423
475
504
457
444
502
501
532
532
469
469
531
526
500
560
531
498
590
530
499
530
588
512
559
526
478
561
526
559
555
583
527
509
526
525
553
592
588
504
540
606
553
586
507
581
584
582
537
581
600
611
565
581
612
644
611
700
637
668
665
670
665
665
697
698
665
728
665
726
757
725
647
755
693
756
752
721
753
749
754
782
785
713
749
812
751
749
813
777
777
777
813
735
841
809
806
839
836
833
833
836
861
788
826
897
787
889
895
917
919
923
815
917
898
857
896
949
979
978
979
875
974
974
979
976
973
1004
1006
912
873
1007
1002
1020
1007
1003
1014
1020
1014
902
1020
1016
906
1012
1018
1030
1018
1030
934
1029
1029
927
939
935
1022
1022
1038
1035
1033
1036
1039
1036
1032
1032
1043
957
1042
957
1047
987
985
984
1055
1053
31
3
34
0
24
83
24
79
25
121
2
24
24
76
279
48
96
75
99
102
48
102
148
122
128
97
121
121
147
125
255
72
202
239
225
145
326
144
168
174
193
144
201
246
336
198
269
299
221
192
216
218
296
144
265
273
240
346
337
265
346
318
264
288
340
288
312
316
443
316
314
470
413
336
441
449
360
362
364
414
386
438
361
363
384
360
466
384
417
412
411
504
411
411
408
516
488
464
462
506
432
460
433
432
412
488
461
456
460
458
537
482
481
482
457
510
511
507
481
504
530
553
505
589
531
531
558
512
528
532
505
529
552
530
552
592
552
610
552
610
584
552
605
661
579
638
605
577
600
603
655
600
628
629
681
626
684
654
649
729
624
681
679
651
706
648
651
655
653
675
648
648
676
675
672
698
695
672
734
696
698
700
696
696
747
719
722
748
718
772
718
743
798
743
742
744
798
807
741
742
764
764
765
764
766
764
790
792
787
821
787
810
849
810
837
870
833
833
856
892
856
869
856
857
859
860
883
856
891
879
879
879
901
911
879
910
913
901
900
901
900
905
922
930
902
926
926
923
926
930
956
924
955
928
928
945
980
944
944
947
945
970
969
946
944
966
966
968
969
975
969
975
977
966
975
969
1002
996
988
996
997
1015
1012
1020
1018
1022
1010
1010
1032
1042
1034
1037
1034
1036
581
686
788
917
988
)


// ************************************************************************* //
