/*--------------------------------*- C++ -*----------------------------------*\
  =========                 |
  \\      /  F ield         | OpenFOAM: The Open Source CFD Toolbox
   \\    /   O peration     | Website:  https://openfoam.org
    \\  /    A nd           | Version:  7
     \\/     M anipulation  |
\*---------------------------------------------------------------------------*/
FoamFile
{
    version     2.0;
    format      ascii;
    class       vectorField;
    location    "0.1275/lagrangian/reactingCloud1";
    object      coordinates;
}
// * * * * * * * * * * * * * * * * * * * * * * * * * * * * * * * * * * * * * //


1153
(
(1.78874 0.114268 -8.15788e-08)
(1.79413 0.0859383 -1.90908e-07)
(1.80928 0.0753764 -2.21969e-07)
(1.80279 0.033311 -1.71707e-13)
(1.80107 0.0207609 -4.86984e-14)
(1.76797 0.0729731 8.25845e-07)
(1.77197 0.0700237 -4.03662e-08)
(1.68682 0.0939339 1.99111e-07)
(1.75068 0.0336965 -7.61071e-14)
(1.73757 0.0697345 1.33322e-07)
(1.71617 0.0704484 -2.65351e-07)
(1.6112 0.10478 -5.75579e-08)
(1.69113 0.00397893 -8.00829e-16)
(1.66913 0.0540277 -6.18715e-09)
(1.64146 0.0857795 1.06861e-08)
(1.66171 0.0378699 -1.05094e-13)
(1.65477 0.0759829 -4.15169e-07)
(1.65093 0.0363106 -2.6599e-13)
(1.61869 0.0896312 -4.11384e-08)
(1.61176 0.0400385 -1.80695e-07)
(1.59062 0.0766436 -2.99026e-07)
(1.6026 0.0453516 -1.62348e-06)
(1.59244 0.0497418 5.05797e-07)
(1.58836 0.0459369 -4.23683e-13)
(1.55578 0.0890153 1.29981e-07)
(1.56461 0.0647674 -6.46032e-08)
(1.54602 0.0451126 -4.11551e-13)
(1.53338 0.0742033 -2.6625e-08)
(1.46685 0.107784 4.82178e-07)
(1.49119 0.0848175 5.18994e-07)
(1.5075 0.0632779 -1.67491e-07)
(1.47536 0.0784043 -6.82644e-08)
(1.45686 0.0893065 -9.96484e-07)
(1.47634 0.0335282 -2.19665e-12)
(1.46484 0.0715777 -1.65501e-08)
(1.46163 0.0605345 2.10658e-07)
(1.44897 0.0852795 6.48113e-08)
(1.42656 0.0913237 3.76605e-07)
(1.42371 0.0855316 -1.02768e-07)
(1.42117 0.0857254 4.96191e-07)
(1.43641 0.041289 -6.84277e-12)
(1.40349 0.0560064 3.08534e-07)
(1.36503 0.128683 7.60244e-08)
(1.39537 0.0655372 -3.08932e-07)
(1.38953 0.0502144 -3.20919e-12)
(1.37381 0.0789526 -5.48193e-07)
(1.37365 0.0770521 2.46361e-07)
(1.31658 0.0925954 3.70718e-07)
(1.32263 0.0712099 -1.11482e-07)
(1.31935 0.00704671 -3.94496e-13)
(1.3153 0.0720413 1.1438e-07)
(1.31521 0.0436594 -7.14471e-13)
(1.31059 0.0602197 -1.36288e-07)
(1.30741 0.0138023 -1.92482e-12)
(1.30325 0.0717626 -6.03974e-07)
(1.29009 0.053741 -1.21682e-11)
(1.27301 0.0798607 -2.13475e-07)
(1.27479 0.0726453 -7.92598e-08)
(1.25635 0.0491643 -2.59074e-13)
(1.24008 0.0372314 -2.19557e-13)
(1.23282 0.034992 -4.45639e-14)
(1.22901 0.0778856 -4.83078e-08)
(1.234 0.0889636 -2.21633e-09)
(1.21706 0.085358 -1.20957e-07)
(1.21667 0.0581737 -7.92091e-13)
(1.20102 0.0897145 -2.93848e-09)
(0.423102 0.147844 -2.79048e-07)
(0.395622 0.141914 -1.03271e-06)
(0.409809 0.145613 -1.2202e-08)
(0.387848 0.139977 -9.5747e-08)
(0.43028 0.111548 -8.04769e-11)
(0.426721 0.0977346 -4.0796e-11)
(0.423346 0.138291 1.19656e-07)
(0.420606 0.0924215 3.80466e-11)
(0.418421 0.129678 -6.76826e-11)
(0.413175 0.139105 -1.27573e-07)
(0.406727 0.138074 1.51418e-09)
(0.409789 0.129083 -2.07096e-10)
(0.404922 0.0871089 -5.89191e-12)
(0.403728 0.122296 3.00143e-11)
(0.399861 0.111425 3.1229e-12)
(0.390273 0.133569 1.46692e-08)
(0.352912 0.127092 -1.55709e-08)
(0.385552 0.0460819 -2.84248e-12)
(0.385424 0.0958455 -4.64682e-11)
(0.382623 0.108638 -6.41967e-12)
(0.378261 0.0940519 -9.11123e-12)
(0.373244 0.067238 -2.02455e-11)
(0.370757 0.0919182 -1.04703e-10)
(0.369591 0.117834 -6.27392e-11)
(0.365534 0.116894 -1.11885e-10)
(0.362278 0.122746 -4.47397e-11)
(0.358034 0.117817 -1.89614e-10)
(0.350839 0.055148 -1.95634e-11)
(0.34809 0.0854434 -2.81083e-11)
(0.264838 0.127631 -1.57829e-07)
(0.341677 0.122899 -3.13506e-11)
(0.337326 0.10258 -1.46976e-11)
(0.330834 0.0124608 -1.11292e-11)
(0.32973 0.113823 -2.39145e-11)
(0.329611 0.112008 -1.41123e-10)
(0.299368 0.126418 -2.63073e-08)
(0.321609 0.0924263 1.18232e-11)
(0.316805 0.0670753 4.30622e-12)
(0.250501 0.128073 5.29428e-08)
(0.308248 0.0617745 3.01674e-12)
(0.309353 0.0901714 -9.45868e-11)
(0.304629 0.0641659 -6.7625e-11)
(0.300946 0.0754602 -2.73523e-14)
(0.297438 0.106393 7.17287e-11)
(0.293048 0.0988071 3.68063e-11)
(0.289722 0.0766762 -3.51271e-11)
(0.285633 0.117593 -2.28687e-11)
(0.281848 0.110845 -3.31581e-11)
(0.278091 0.10438 9.24993e-12)
(0.273634 0.0514679 -9.92728e-12)
(0.26026 0.125089 5.32088e-12)
(0.241957 0.126943 -2.18794e-13)
(0.260726 0.0426105 -3.02398e-14)
(0.261794 0.108928 -1.86948e-11)
(0.2476 0.125481 1.78023e-12)
(0.253377 0.0509026 0)
(0.249536 0.0792227 -7.45111e-13)
(0.246001 0.116272 -1.30664e-11)
(0.241652 0.079936 6.60077e-12)
(0.237261 0.0905779 -2.68648e-12)
(0.234041 0.0508149 -5.62562e-12)
(0.230084 0.0932984 -8.09068e-13)
(0.226178 0.0810008 1.06599e-11)
(0.222237 0.101272 1.71924e-11)
(0.21795 0.120099 1.08368e-11)
(0.213391 0.0511292 -3.77307e-12)
(0.203953 0.126336 -1.92447e-12)
(0.205684 0.0932135 2.52607e-11)
(0.202284 0.109893 -9.72272e-13)
(0.197731 0.118665 6.08931e-14)
(0.190455 0.126706 -2.28676e-12)
(0.189562 0.0439267 6.07207e-13)
(0.185603 0.0372191 -9.17043e-14)
(0.182246 0.09717 4.53142e-15)
(0.528204 0.157421 -9.46468e-09)
(0.457052 0.162958 -8.21963e-08)
(0.558929 0.107629 4.35488e-11)
(0.552859 0.118029 -1.13268e-12)
(0.563209 0.0406731 -8.47033e-13)
(0.557102 0.0963756 2.00181e-12)
(0.545435 0.122707 9.705e-11)
(0.555582 0.0553727 8.86013e-12)
(0.542709 0.123195 -1.97345e-12)
(0.553788 0.046079 2.04243e-11)
(0.54538 0.0848279 7.25558e-11)
(0.546109 0.0244915 -2.19043e-14)
(0.52787 0.132569 3.90276e-12)
(0.53113 0.114243 1.58772e-12)
(0.529509 0.111616 4.07707e-11)
(0.533651 0.042492 4.96878e-13)
(0.501529 0.149614 2.8554e-08)
(0.516347 0.128426 1.82075e-10)
(0.511059 0.134067 1.47335e-11)
(0.509259 0.133677 3.15955e-11)
(0.518709 0.0477392 8.18381e-11)
(0.514582 0.0672699 5.70714e-12)
(0.488804 0.149729 1.41448e-07)
(0.502175 0.128934 7.5231e-12)
(0.50282 0.116696 1.64288e-11)
(0.504781 0.0461511 1.17879e-12)
(0.503153 0.100231 7.67879e-11)
(0.497533 0.119344 4.21117e-11)
(0.493795 0.123221 8.67985e-11)
(0.489776 0.119898 2.25207e-11)
(0.485479 0.127067 5.1663e-11)
(0.483283 0.127641 2.98365e-11)
(0.476982 0.132955 1.146e-11)
(0.468971 0.140063 3.32849e-07)
(0.461361 0.148738 5.80489e-09)
(0.466535 0.0787666 -3.8775e-12)
(0.466298 0.127397 2.09172e-11)
(0.464291 0.0442472 1.89348e-12)
(0.456944 0.147955 5.99027e-07)
(0.456434 0.13634 1.50391e-12)
(0.45549 0.0927724 -1.40116e-11)
(0.457943 0.104697 6.46651e-11)
(0.452762 0.0755953 4.33673e-11)
(0.451707 0.137052 2.86223e-11)
(0.449339 0.103638 8.84758e-11)
(0.447065 0.103602 -4.25357e-12)
(0.444126 0.113767 8.97413e-11)
(0.438648 0.137111 8.11146e-11)
(0.435754 0.119878 6.26434e-11)
(0.432592 0.147357 -2.46233e-07)
(0.432431 0.105071 2.07217e-11)
(0.681885 0.115971 -1.19849e-07)
(0.787718 0.0908096 4.96113e-08)
(0.818187 0.0566923 -3.24649e-11)
(0.804719 0.0770139 -2.04025e-08)
(0.818828 0.0432938 2.53144e-11)
(0.784187 0.0862994 -3.13155e-07)
(0.773115 0.076855 3.65569e-07)
(0.787 0.0684219 2.72702e-07)
(0.633587 0.133079 -1.23032e-08)
(0.779164 0.0319877 8.50779e-12)
(0.756524 0.0436749 -2.87802e-11)
(0.736093 0.0868763 1.0297e-07)
(0.745187 0.0503154 -1.6572e-10)
(0.718319 0.0942654 2.66437e-08)
(0.732056 0.0109178 -1.3588e-12)
(0.728033 0.0395473 3.20976e-11)
(0.703989 0.0961466 8.89074e-08)
(0.703683 0.0844212 4.38469e-11)
(0.714703 0.030986 -7.9007e-13)
(0.701871 0.0378302 8.45266e-12)
(0.701616 0.0198948 5.84256e-13)
(0.685838 0.0950202 -3.09728e-07)
(0.694739 0.0601866 3.36069e-11)
(0.663971 0.116225 3.09401e-08)
(0.692818 0.0120733 4.72511e-12)
(0.684062 0.0556652 2.13478e-11)
(0.645411 0.127565 1.91172e-07)
(0.681585 0.0213633 -1.34485e-13)
(0.677163 0.00963152 -2.39573e-12)
(0.668544 0.068478 6.31437e-11)
(0.66007 0.0593592 3.20974e-13)
(0.644198 0.117786 4.42452e-09)
(0.664354 0.0870178 -5.33554e-08)
(0.644725 0.117909 2.7114e-07)
(0.646473 0.0525021 8.69722e-11)
(0.64186 0.0823035 -1.34362e-12)
(0.640896 0.0892245 8.25282e-12)
(0.642327 0.0543647 2.67605e-11)
(0.640724 0.046157 3.10577e-11)
(0.637174 0.0246645 2.8028e-11)
(0.627673 0.0746471 9.79713e-12)
(0.620762 0.108918 1.5318e-10)
(0.613631 0.0763501 4.89191e-11)
(0.614128 0.0634878 -1.1107e-12)
(0.611963 0.111042 -3.94486e-07)
(0.608604 0.0726241 -1.14534e-12)
(0.607046 0.0641644 7.48302e-11)
(0.605689 0.0578643 -1.39133e-12)
(0.593684 0.0892007 -9.50956e-12)
(0.593126 0.0700962 -3.51874e-12)
(0.586766 0.0314859 -5.83133e-13)
(0.586894 0.0693285 -8.70717e-13)
(0.584412 0.126978 -4.36946e-08)
(0.585662 0.0575705 4.9838e-11)
(0.580136 0.057663 -1.58408e-12)
(0.578882 0.116086 9.43236e-12)
(0.575885 0.111946 7.32271e-11)
(0.574746 0.0477322 -1.7975e-12)
(0.57283 0.076636 1.42473e-11)
(1.15362 0.117126 6.03449e-07)
(1.14988 0.0186018 -2.93853e-13)
(1.13034 0.0676227 1.59278e-07)
(1.12961 0.0547075 -1.6376e-12)
(1.1265 0.067799 2.10568e-07)
(1.12646 0.0691012 1.18369e-07)
(1.11066 0.0398994 -1.25247e-14)
(1.10706 0.0344377 -5.09578e-14)
(1.09923 0.0303225 -7.77635e-14)
(1.08382 0.0744407 -2.65842e-08)
(1.08112 0.0264471 3.56513e-12)
(1.05294 0.0651105 1.16772e-08)
(1.05319 0.067357 -2.23369e-07)
(1.03218 0.0517156 2.8574e-11)
(1.02257 0.0803778 -1.00166e-07)
(1.01667 0.017985 2.49613e-13)
(1.00897 0.0384643 2.53892e-11)
(1.00223 0.0671805 1.27857e-07)
(0.989375 0.0610546 9.42184e-08)
(0.984435 0.0610115 -1.01856e-07)
(0.976012 0.0866316 9.33751e-09)
(0.976611 0.0823376 2.33449e-07)
(0.985909 0.0618456 -3.35856e-07)
(0.954172 0.0892632 -2.51344e-08)
(0.947421 0.0483678 -1.90852e-12)
(0.94118 0.0567125 6.96227e-07)
(0.941898 0.037485 1.17493e-11)
(0.945552 0.0179024 -3.1319e-13)
(0.937186 0.0500066 -3.48095e-12)
(0.934428 0.0713431 6.77564e-08)
(0.928208 0.0652006 1.19214e-07)
(0.91146 0.0469763 2.95369e-11)
(0.888777 0.085966 7.22598e-08)
(0.881077 0.0105663 2.10328e-13)
(0.870748 0.0607013 4.09701e-11)
(0.859186 0.0369868 1.32282e-11)
(0.845421 0.0789622 -6.39613e-08)
(0.83384 0.0678746 6.19396e-08)
(4.62018 0.1451 -4.90985e-07)
(4.4202 0.269506 -3.79294e-07)
(4.57477 0.149451 3.97834e-07)
(4.67198 0.133118 6.57102e-07)
(4.65522 0.0989886 3.41841e-07)
(4.39515 0.137079 -7.29507e-08)
(4.52182 0.163757 1.79953e-07)
(4.62974 0.122398 -1.68866e-07)
(4.39865 0.129563 -1.95349e-08)
(4.42338 0.148452 -2.59246e-08)
(4.30196 0.110583 1.01841e-07)
(4.42756 0.0978519 -4.04264e-08)
(4.08393 0.173193 -2.80008e-07)
(4.4045 0.0834772 1.29343e-08)
(4.09173 0.130732 -2.59084e-07)
(4.25721 0.117773 4.56771e-07)
(4.24502 0.103 -5.06307e-07)
(4.317 0.0797167 -1.63854e-07)
(4.28732 0.0580045 5.71051e-07)
(4.30827 0.0516139 7.30874e-07)
(4.12933 0.102371 -9.77487e-08)
(4.24991 0.0799645 4.80642e-07)
(4.31534 0.0214334 -4.06975e-09)
(4.32981 0.00333556 -3.74321e-08)
(4.22169 0.0595291 -8.50116e-07)
(4.2757 0.0206555 -7.52288e-08)
(4.26254 0.0440427 -6.8355e-08)
(4.26135 0.0309956 -1.01197e-09)
(4.19916 0.0369092 7.36264e-07)
(4.22065 5.3165e-11 -3.87062e-13)
(4.17987 0.0534586 2.51171e-08)
(4.15861 0.0508209 -8.17838e-08)
(4.1282 0.0589871 2.15661e-07)
(4.05804 0.083863 -5.12883e-08)
(4.11264 0.0332777 -1.10706e-09)
(4.15135 0.0357814 4.40042e-08)
(4.17698 0.0208858 -3.31604e-07)
(4.14453 0.00534124 -6.97848e-08)
(4.08826 0.0598356 -3.46831e-08)
(4.1185 0.039246 1.46415e-09)
(4.09419 0.0205864 -3.31265e-08)
(4.08702 0.0378194 -1.23619e-07)
(4.09065 0.0182719 1.41399e-07)
(4.03603 0.0634663 -4.31107e-07)
(3.93214 0.0877117 5.73354e-07)
(4.03574 0.0537104 2.57477e-07)
(3.97303 0.0781458 -3.55609e-08)
(4.0569 0.00788643 -4.8846e-09)
(3.99858 0.0717715 1.09062e-07)
(3.91748 0.0933211 8.7494e-08)
(4.01429 0.0374276 6.04747e-08)
(3.84303 0.109373 -2.17069e-07)
(4.01548 0.0195992 -7.72686e-09)
(4.00929 0.0288381 4.523e-08)
(3.77752 0.127886 1.44089e-07)
(3.9877 0.0246978 1.77528e-07)
(3.78283 0.131986 1.04869e-06)
(3.72701 0.125694 -1.05935e-06)
(3.93836 0.0446332 -1.05665e-07)
(3.8588 0.074555 3.58528e-08)
(3.91129 0.0292491 3.60457e-07)
(3.86417 0.0415158 1.60288e-07)
(3.87649 1.08467e-10 7.00534e-14)
(3.79094 0.0843223 1.7284e-07)
(3.70653 0.0925514 7.02872e-07)
(3.65554 0.0999164 -1.95336e-07)
(3.78669 0.0381452 -7.10692e-09)
(3.78333 0.0255477 2.16921e-07)
(3.75847 0.00913635 -8.42153e-08)
(3.72731 0.0602856 1.57528e-07)
(3.70413 0.08052 -5.13202e-08)
(3.73807 0.0446158 6.13791e-08)
(3.73404 0.0267493 3.49181e-07)
(3.73751 0.0189981 -3.72804e-07)
(3.70017 0.0532788 1.44198e-07)
(3.70199 0.0103947 5.11589e-07)
(3.43022 0.186814 6.48749e-09)
(3.66366 0.0707269 -7.14154e-08)
(3.64873 0.0524619 5.23509e-07)
(3.62272 0.0631965 5.05581e-07)
(3.65981 0.0172757 -1.33382e-07)
(3.64696 0.0246655 -1.7494e-07)
(3.64523 0.000162173 -2.47601e-10)
(3.60818 0.0432282 3.88363e-07)
(3.62066 0.0266707 -2.54812e-07)
(3.58184 0.0761906 -6.59153e-08)
(3.59908 0.0515014 6.23753e-07)
(3.59333 0.036771 7.81427e-08)
(3.57078 0.0537802 5.09893e-07)
(3.57047 0.0317489 -2.10743e-07)
(3.32081 0.177914 9.31376e-08)
(3.5503 0.0344163 -6.40089e-08)
(3.53418 0.00639981 1.33231e-06)
(3.50605 0.000605418 7.25438e-08)
(3.49416 0.00747425 3.67679e-13)
(3.46124 0.0576387 -2.80735e-07)
(3.44598 0.0818503 -3.00178e-07)
(3.41544 0.0415899 1.48043e-08)
(3.39708 0.0176221 -3.48061e-07)
(3.39697 0.0380012 1.74403e-07)
(3.29944 0.130912 3.05273e-07)
(3.37733 0.044543 2.15789e-07)
(3.37158 0.0584331 -1.12789e-06)
(3.35259 0.0519037 -2.2257e-08)
(3.34146 0.0808925 -7.88062e-07)
(3.26652 0.09546 -5.85555e-08)
(3.15374 0.135608 1.23668e-07)
(3.32334 0.040766 5.57198e-08)
(3.31365 0.046552 -1.82383e-07)
(3.29571 0.0804634 -8.38992e-09)
(3.30587 0.0401521 7.31017e-08)
(3.29299 0.0249125 1.7114e-07)
(3.28206 0.0766697 -9.16531e-08)
(3.27069 2.65016e-11 -6.85939e-14)
(3.26661 0.0344835 -1.10488e-08)
(3.2624 0.000343282 -6.97476e-08)
(3.09635 0.145656 -2.27337e-07)
(3.19415 0.0998707 2.38094e-07)
(3.25098 0.0615749 3.14342e-07)
(3.24072 0.0269264 -2.93913e-08)
(3.22147 0.0820769 2.84007e-07)
(3.06337 0.147908 -3.39049e-07)
(3.20941 0.0573017 5.16598e-07)
(3.20367 0.0738587 -1.37106e-07)
(3.20547 0.0445507 9.58411e-09)
(3.10252 0.125074 -1.65517e-07)
(3.19166 0.0351567 1.51035e-07)
(3.18861 0.0259977 2.13386e-07)
(3.10199 0.0995228 2.317e-07)
(3.09021 0.0713513 1.25352e-07)
(3.04155 0.0921827 -2.4459e-07)
(3.16011 0.0611661 4.23059e-07)
(2.9327 0.125016 -1.71391e-07)
(3.17094 0.0688032 -2.80393e-07)
(3.15166 0.054793 -1.28211e-07)
(3.13374 0.0379698 4.52612e-08)
(3.12593 0.0438771 3.19515e-07)
(3.11294 0.0348704 -2.60734e-07)
(2.86894 0.122138 -1.45451e-07)
(3.07185 0.00679669 -3.52679e-08)
(3.06682 0.034662 -1.6861e-08)
(3.05945 0.0443516 -1.88101e-10)
(3.05851 0.0349234 -3.43432e-08)
(3.03569 0.0557832 1.6925e-07)
(3.04444 0.0317611 -5.67539e-08)
(2.88137 0.0982621 -3.79726e-08)
(3.04315 0.000954033 -1.03209e-07)
(2.9658 0.0763524 -2.29712e-08)
(2.896 0.0938555 -4.47461e-07)
(2.91192 0.0809587 1.30627e-07)
(2.99221 0.0521545 2.90483e-07)
(2.96743 0.0481993 5.29153e-08)
(2.98214 0.0511628 1.48574e-07)
(2.90491 0.0682956 3.40657e-09)
(2.93472 0.0437533 1.53884e-10)
(2.82342 0.0850396 -5.60494e-08)
(2.90694 0.0576272 -1.29542e-07)
(2.90409 0.0342498 -7.6352e-08)
(2.7321 0.0935522 -6.02184e-08)
(2.88202 0.0473114 -7.04644e-08)
(2.87144 0.0479754 1.58904e-07)
(2.85854 0.0289754 9.5427e-08)
(2.84048 0.0606394 2.6827e-08)
(2.85958 0.0326654 8.50485e-08)
(2.84319 0.0314446 2.47408e-07)
(2.83821 0.0260553 -1.04095e-12)
(2.80759 0.0682773 -5.07123e-08)
(2.75402 0.043186 -3.73857e-08)
(2.80603 0.0469374 -1.65823e-08)
(2.71348 0.0823822 -2.04395e-08)
(2.75633 0.0190768 -7.25132e-13)
(2.7481 0.0486489 9.71021e-08)
(2.75805 0.0425556 1.65208e-07)
(2.69126 0.0252491 -3.36223e-08)
(2.70386 0.0554863 -1.75209e-07)
(2.70127 0.0348216 1.75711e-08)
(2.67869 0.0671145 -1.96985e-07)
(2.62908 0.0829491 -1.48944e-07)
(2.64333 0.0768674 1.04152e-08)
(2.67444 0.032496 -1.11574e-12)
(2.66729 0.0446225 -9.01824e-09)
(2.6579 0.000472461 -7.41843e-07)
(2.62959 0.0216636 -1.21496e-13)
(2.61543 0.0236836 -1.65124e-13)
(2.53047 0.0864484 4.92627e-07)
(2.59804 0.0339303 -1.13497e-08)
(2.57322 0.0538619 -2.24567e-07)
(2.54394 0.0712451 -1.87535e-07)
(2.45428 0.0983753 1.06033e-08)
(2.55403 0.0478743 1.31445e-07)
(2.54528 0.0528631 7.72458e-08)
(2.54716 0.0309354 -1.49391e-12)
(2.54326 0.0213321 -1.86084e-13)
(2.51849 0.0380271 1.53737e-07)
(2.45551 0.0864665 -1.97957e-07)
(2.37679 0.0782953 1.21688e-07)
(2.34363 0.0895648 2.9534e-08)
(2.38672 0.0409834 -1.68704e-07)
(2.30204 0.0958678 9.48357e-07)
(2.37046 0.0745526 2.71768e-07)
(2.36453 0.0352073 -1.40965e-12)
(2.33386 0.0708537 5.98922e-09)
(2.33496 0.0410814 9.00206e-08)
(2.31402 0.0608362 -5.55869e-08)
(2.29484 0.0715538 -1.02618e-07)
(2.30416 0.0304579 -5.63585e-14)
(2.28006 0.0760547 -3.68395e-07)
(2.26237 0.0838987 4.75319e-10)
(2.26349 0.0806186 -1.74818e-07)
(2.21476 0.104607 6.25485e-07)
(2.28495 0.0284396 3.8218e-07)
(2.28929 0.0435455 1.50912e-07)
(2.27488 0.0553004 2.53441e-07)
(2.27943 0.0425733 7.9997e-08)
(2.2592 0.0436558 3.82377e-08)
(2.23899 0.048044 -3.16974e-09)
(2.21326 0.0580959 2.53429e-07)
(2.17871 0.074243 -4.0213e-09)
(2.18254 0.0566453 1.10909e-08)
(2.16702 0.0706967 3.46022e-09)
(2.16812 0.0597046 3.75812e-07)
(2.16849 0.0625185 4.52718e-07)
(2.17591 0.0138583 -1.20928e-07)
(2.16224 0.0335038 2.10345e-14)
(2.16149 0.0496532 -1.85896e-07)
(2.14707 0.0519307 7.58161e-08)
(2.11966 0.0818259 8.3099e-08)
(2.13862 0.0448775 1.46622e-08)
(2.11319 0.0827356 -7.56107e-08)
(2.11403 0.0441087 -1.8419e-07)
(2.09662 0.043855 -8.2812e-14)
(2.08788 0.0492887 4.02301e-07)
(2.0812 0.00601438 -2.13799e-14)
(2.04918 0.0755825 1.69808e-07)
(2.05492 0.0615107 3.56758e-07)
(2.05512 0.0499194 -5.05217e-09)
(2.03868 0.0551315 4.03124e-07)
(2.03651 0.0572419 9.19697e-08)
(2.03605 0.0585336 -9.13132e-08)
(1.9882 0.0928995 2.03998e-07)
(1.99683 0.0862534 9.9399e-09)
(1.99213 0.0742833 3.79637e-07)
(1.98598 0.0545015 2.73815e-08)
(1.94911 0.110035 -2.35526e-07)
(1.95995 0.0743844 2.67178e-07)
(1.95423 0.00687642 -3.75532e-14)
(1.94536 0.0719473 -1.26308e-07)
(1.93792 0.0895624 3.93862e-07)
(1.94337 0.0605838 1.18243e-07)
(1.93243 0.0148093 -2.48487e-14)
(1.93073 0.0689257 7.33599e-08)
(1.91963 0.0419042 7.66097e-13)
(1.90132 0.0681498 -1.22724e-07)
(1.89636 0.0789526 -6.57105e-08)
(1.89093 0.0523006 4.6122e-08)
(1.87787 0.0844408 7.51773e-09)
(1.86168 0.0457175 -5.85297e-13)
(1.85617 0.058216 1.05651e-07)
(1.8489 0.0401477 -1.72743e-12)
(1.83096 0.0460047 -2.96648e-14)
(1.82635 0.0637997 -1.11055e-07)
(1.82198 0.0884163 -1.70689e-07)
(1.82171 0.024896 -5.17399e-14)
(6.49992 0.623029 4.40195e-08)
(6.72091 0.305553 5.55436e-07)
(6.49765 0.392924 4.17224e-08)
(5.21819 0.261852 -5.6742e-07)
(7.0266 0.283422 -6.37548e-07)
(7.23151 0.215371 1.38255e-06)
(7.26214 0.216793 5.59309e-08)
(7.13201 0.254574 2.05167e-07)
(7.14846 0.0708073 -4.18042e-07)
(7.08254 0.135483 1.00578e-06)
(7.05657 0.0762634 -6.6655e-08)
(7.08926 0.0661272 6.69989e-07)
(7.07384 0.0678608 -1.45065e-07)
(7.11891 0.0936489 -9.40443e-07)
(6.98811 0.0845748 -9.27197e-08)
(7.17679 0.0441991 -1.42347e-08)
(6.99038 0.0968631 -3.15805e-07)
(7.17631 0.0970202 -2.60569e-07)
(7.08288 0.030544 -5.16058e-08)
(7.10648 0.00088439 8.70458e-07)
(7.12905 0.0121414 1.27622e-07)
(6.88651 0.067816 3.2527e-08)
(7.14882 0.00400185 9.5148e-08)
(6.91708 0.0961045 2.87715e-08)
(6.95806 0.12115 1.7165e-07)
(6.92902 0.0647947 -6.73366e-08)
(7.00481 0.0349312 -4.14781e-07)
(6.78871 0.10887 6.49081e-07)
(7.08773 3.19718e-11 1.09098e-13)
(7.09494 1.30818e-10 -1.1256e-12)
(6.4962 0.239973 -5.4735e-07)
(7.1638 0.046806 8.2019e-08)
(6.79159 0.121049 2.11116e-07)
(7.07222 2.9063e-08 -1.23726e-10)
(6.95278 0.0370036 -1.10694e-08)
(6.72774 0.101333 2.32917e-09)
(7.01939 0.0150277 -1.1046e-08)
(6.85691 0.0601954 -1.13427e-06)
(7.028 0.00632968 6.15925e-07)
(7.0147 8.14963e-12 -3.99716e-14)
(6.97623 0.0999892 -7.04636e-07)
(6.91358 0.0298105 -2.50096e-08)
(6.94682 0.022457 1.15406e-08)
(6.91279 0.0289301 -5.14156e-08)
(6.86864 0.134652 -2.09399e-07)
(6.95587 0.077516 3.08868e-08)
(6.91431 7.99625e-12 -3.5862e-15)
(6.809 0.0373583 -3.3814e-07)
(6.8813 0.0379398 -1.16998e-07)
(6.92079 0.000380915 -7.91816e-09)
(6.63906 0.0913026 -1.44536e-07)
(6.78611 0.0458592 7.29471e-07)
(6.72835 0.0766244 -3.33072e-07)
(6.62609 0.104755 -4.78789e-08)
(6.74965 0.0911127 -8.4917e-08)
(6.86481 0.0388027 3.01935e-07)
(6.73309 0.000304461 -4.16475e-07)
(6.8276 1.58253e-10 -8.58421e-13)
(6.71523 0.0388942 -1.68142e-07)
(6.50811 0.110276 5.95968e-07)
(6.82722 0.00366921 1.05716e-07)
(6.71729 0.119249 3.51784e-08)
(6.53355 0.171691 -1.14933e-07)
(6.68454 0.043175 -8.15443e-08)
(6.63467 0.204568 -8.57735e-07)
(6.62516 0.0507741 2.60527e-07)
(6.56856 0.10673 1.28068e-06)
(6.50218 0.0496641 5.54229e-07)
(6.51881 0.0702693 4.00462e-07)
(6.62 0.106735 -7.96517e-08)
(6.57764 0.0462284 -4.68733e-07)
(6.66753 0.00308223 9.43719e-09)
(6.48635 0.14396 1.16767e-07)
(6.53868 0.167108 -9.39878e-08)
(6.51589 0.0244475 6.51877e-07)
(6.57036 0.151688 5.06089e-07)
(6.3819 0.0812314 -1.20492e-07)
(6.5511 0.0228418 -8.66873e-08)
(6.42851 0.0383159 -2.16408e-07)
(6.58076 0.0048055 -7.26734e-08)
(6.60378 0.000166443 2.31858e-07)
(6.57791 0.0144731 4.01591e-08)
(6.28 0.210133 -1.27135e-07)
(6.35345 0.0567676 1.20538e-07)
(6.36679 0.0789418 2.00297e-07)
(6.42133 0.12108 2.49621e-07)
(6.5171 0.00104103 2.69561e-09)
(6.50982 1.69692e-10 -1.96643e-13)
(6.25534 0.101462 -3.36093e-07)
(6.5143 0.105768 -6.28538e-07)
(6.44755 0.00528367 -4.62782e-07)
(6.4322 0.0221182 3.8736e-08)
(6.27704 0.0718525 3.67079e-07)
(6.40981 0.0319997 2.43885e-07)
(6.31156 0.0535903 -4.09203e-07)
(6.22306 0.212389 -8.44718e-07)
(6.40011 0.0179707 -5.67605e-08)
(6.41642 1.74465e-10 7.62596e-13)
(6.49421 0.086678 3.49291e-07)
(6.40051 0.0143189 -2.68447e-07)
(6.35081 0.0212441 4.7047e-07)
(6.11203 0.0991758 -1.19355e-07)
(6.29528 0.0126959 -2.55195e-07)
(6.36404 0.0115031 2.76933e-08)
(6.52601 0.0610826 -4.93873e-07)
(6.26038 0.0136221 7.92507e-08)
(6.30758 0.0177786 -6.55061e-09)
(6.20821 0.0555618 -8.13632e-09)
(6.34806 2.74213e-11 1.72173e-13)
(6.34259 2.81342e-10 1.03843e-12)
(6.30326 2.61233e-10 1.23772e-13)
(6.30237 0.00931644 -1.44589e-07)
(6.05539 0.0950833 -2.97664e-07)
(6.25087 0.0268145 -1.78482e-07)
(6.30074 0.0051538 -3.68382e-08)
(6.19024 0.000153468 -3.56226e-10)
(6.10909 0.0708456 1.07799e-07)
(6.30578 0.134366 3.31505e-07)
(6.2979 0.00149498 -3.38825e-08)
(6.32103 0.0678226 -2.89558e-07)
(6.06989 0.088505 -2.83718e-07)
(6.27792 0.0226069 -5.8434e-07)
(6.26167 0.000888063 4.93076e-08)
(6.22662 1.40324e-11 -1.6612e-15)
(6.1996 0.0308351 -5.49614e-07)
(6.1133 0.0870582 -7.32712e-08)
(6.02302 0.10105 5.38033e-07)
(6.13085 0.0366247 6.59385e-09)
(6.15715 0.013028 2.37848e-07)
(6.15236 0.00359014 -7.73356e-07)
(6.18464 0.0981878 -6.42805e-07)
(5.99258 0.0566586 6.59286e-09)
(5.9574 0.0656093 6.32788e-07)
(6.08931 0.150797 -8.70968e-07)
(6.06969 0.0281582 -9.39017e-08)
(5.94753 0.0452338 -9.47337e-07)
(5.95175 0.0410028 2.55024e-07)
(5.86004 0.0671582 -1.75806e-07)
(5.87804 0.0616843 -1.958e-07)
(6.02047 0.0027764 -2.57463e-07)
(5.97184 0.00427917 3.53999e-07)
(5.87452 0.0605976 6.04557e-07)
(5.87424 0.0099166 4.40577e-07)
(5.93118 0.0264382 2.97431e-07)
(5.81316 0.0673732 2.95588e-08)
(5.87281 0.0520817 4.30912e-07)
(5.96636 0.00934734 -7.98991e-08)
(5.742 0.0890235 4.71822e-07)
(5.86213 0.0410732 2.1562e-08)
(5.90263 0.0203385 6.42246e-07)
(5.87839 0.0415343 -2.52653e-09)
(5.75118 0.0657081 3.48201e-08)
(5.94644 0.146235 3.14021e-07)
(5.76575 0.058186 8.13595e-07)
(5.88177 0.0109087 5.38898e-07)
(6.03624 0.0894334 3.20425e-08)
(5.75743 0.0777125 -3.72969e-07)
(5.87888 0.0135954 4.87854e-07)
(5.75868 0.0551575 -1.17685e-07)
(5.76876 0.0211516 -1.36872e-07)
(5.73783 0.0172279 -2.94481e-07)
(5.87827 0.0151742 4.1593e-07)
(5.93937 0.121708 1.41713e-07)
(5.85993 0.00734035 -1.2938e-07)
(5.84996 0.00365759 -4.3887e-08)
(5.82523 2.25731e-11 -3.59797e-14)
(5.7315 0.107155 -3.20795e-07)
(5.70464 0.0678618 -8.79754e-07)
(5.94732 0.062699 -6.50168e-07)
(5.84655 0.145313 1.22556e-07)
(5.72798 0.200696 -9.51248e-09)
(5.77976 0.00030268 -7.88961e-09)
(5.73485 0.040483 6.47769e-08)
(5.90965 0.0980521 -3.30893e-07)
(5.7213 2.09183e-11 -5.74086e-14)
(5.69326 0.0241018 -1.836e-07)
(5.69476 0.00932367 -4.43309e-08)
(5.83847 0.120218 3.17932e-08)
(5.70964 6.44925e-11 2.44113e-13)
(5.72446 0.165318 4.86714e-07)
(5.63352 0.0153069 1.75039e-07)
(5.78871 0.114983 2.20851e-07)
(5.69199 1.06207e-11 7.14513e-14)
(5.62002 0.0268984 1.84629e-07)
(5.58806 0.0595793 4.82877e-07)
(5.6499 0.0158327 1.7962e-07)
(5.43408 0.0662571 -8.90429e-07)
(5.60439 0.000351729 1.51573e-07)
(5.52511 0.0269179 -2.81872e-08)
(5.54377 0.000878529 7.01318e-08)
(5.52548 0.0421121 1.15618e-07)
(5.53854 1.24865e-11 5.73863e-14)
(5.52138 0.00618769 1.44427e-07)
(5.46665 0.032804 -4.95073e-08)
(5.4361 0.0455921 1.04176e-08)
(5.48634 3.04648e-11 -6.03542e-15)
(5.37831 0.0664576 3.34348e-07)
(5.48023 0.00406758 4.67175e-08)
(5.35244 0.0433403 -2.90379e-07)
(5.29511 0.0736478 5.48583e-09)
(5.39163 0.0379394 5.2479e-08)
(5.61279 0.0924501 -1.1236e-07)
(5.33574 0.056947 -3.48242e-07)
(5.40932 0.00292805 2.04035e-07)
(5.28373 0.0669018 1.32699e-07)
(5.33505 0.0297713 1.25469e-07)
(5.3606 0.000439531 3.88241e-08)
(5.3 0.0318294 1.58656e-07)
(5.3341 1.97649e-10 -3.19411e-13)
(5.28281 0.0403682 1.01551e-08)
(5.2646 0.043712 1.39055e-07)
(5.20271 0.075118 1.52479e-08)
(5.41489 0.165318 -1.38625e-07)
(5.28905 1.47169e-11 1.24305e-13)
(5.19755 0.0643682 -3.18495e-08)
(5.27187 0.0158801 -7.93372e-08)
(5.27755 0.00492413 7.32007e-08)
(5.17181 0.069767 -6.57473e-08)
(5.24984 4.32211e-07 -7.36444e-10)
(5.23185 9.66369e-11 5.51501e-13)
(5.23444 0.00530133 -6.05509e-08)
(5.13895 0.0710789 4.31821e-08)
(5.40227 0.129547 7.92989e-07)
(5.11691 0.0693938 1.52911e-07)
(5.15262 0.0297224 1.87524e-07)
(5.18075 0.0138137 -2.51259e-07)
(5.0867 0.0508165 1.9045e-07)
(5.12499 0.021679 1.83043e-07)
(5.10843 0.00406908 -1.08141e-07)
(5.09784 1.79786e-11 -8.80323e-14)
(5.09042 0.025184 -2.55889e-08)
(5.04938 6.43966e-12 1.70893e-14)
(5.26137 0.0993641 3.74046e-07)
(5.19336 0.168281 -1.0805e-06)
(4.94601 0.0678355 -6.18481e-08)
(5.22408 0.0872526 1.06999e-07)
(4.97869 0.00112687 -2.16322e-07)
(4.93997 0.0493708 1.51862e-08)
(4.91036 3.19248e-10 -7.3017e-13)
(4.90118 0.0172572 -9.17468e-08)
(4.86383 0.0526284 -1.3346e-07)
(5.14128 0.0898857 -3.25751e-07)
(4.89525 1.89822e-09 -1.2636e-11)
(4.95276 0.0807561 -1.42398e-07)
(5.09383 0.185958 2.03712e-07)
(4.9376 0.0639567 9.48017e-07)
(4.83852 0.0331506 3.13791e-08)
(4.78855 0.0495998 -8.36188e-08)
(4.79098 0.0409168 2.25607e-08)
(4.7477 0.0460745 -1.19564e-07)
(5.05526 0.126613 -6.30857e-07)
(4.76852 0.00889773 1.79966e-07)
(4.75052 0.0109967 1.0907e-07)
(4.73358 0.0535371 -4.17467e-07)
(4.74434 0.0276756 -3.04833e-07)
(4.74526 1.85321e-05 -1.82815e-22)
(4.7195 0.0211074 5.6727e-08)
(4.69032 0.0431739 6.06028e-08)
(4.97974 0.178755 3.40869e-07)
(5.01014 0.112435 -2.96545e-07)
(4.68471 0.046735 -9.80717e-07)
(4.69142 0.00697602 -2.12007e-07)
(4.6606 0.0724163 -1.22359e-07)
(4.67868 0.0459554 -1.0387e-07)
(4.68002 0.0203468 3.65134e-07)
(4.65726 0.0194974 6.79192e-08)
(4.63046 0.0689255 -4.23911e-07)
(4.63799 0.0175061 -2.20368e-07)
(4.9761 0.121127 -1.82511e-07)
(4.60431 0.0660325 -2.96927e-07)
(4.61698 0.0314064 -1.53193e-07)
(4.93974 0.143185 1.79477e-07)
(4.62112 0.00278022 -3.9403e-09)
(4.60751 0.0483394 -1.6021e-07)
(4.59001 0.0709182 -4.31845e-08)
(4.60586 0.049421 -4.09889e-08)
(4.59597 0.0686023 1.63015e-06)
(4.92681 0.143746 -4.44039e-07)
(4.59211 0.0578196 2.99128e-07)
(4.58751 0.0573741 -7.46626e-08)
(4.87803 0.0909844 -4.18483e-07)
(4.90152 0.169612 -2.51578e-08)
(4.90242 0.151194 -2.40803e-07)
(4.56351 3.26431e-09 -7.66163e-12)
(4.55441 0.00606866 3.39268e-09)
(4.53621 0.0508225 -1.43606e-08)
(4.51924 0.0272259 -9.65254e-08)
(4.50338 0.0129447 9.52633e-08)
(4.49595 0.0333383 9.32894e-08)
(4.48521 0.0545127 1.56096e-07)
(4.48334 0.0349362 -2.18349e-08)
(4.48693 0.00115179 -4.41137e-07)
(4.48563 0.000467036 -2.40841e-09)
(4.47352 0.00790317 -1.55229e-07)
(4.82587 0.10855 -2.19264e-07)
(4.45725 1.31677e-11 -1.33464e-14)
(4.81478 0.102756 -2.69081e-07)
(4.4138 0.0366439 -3.80843e-07)
(4.76134 0.124776 -1.80846e-07)
(4.76094 0.10414 5.25686e-08)
(4.74896 0.099985 -2.00523e-07)
(4.36416 0.0257185 -5.66777e-09)
(4.35912 0.00816094 3.24039e-07)
(9.92855 0.0940912 -1.80879e-06)
(10.0024 0.0379564 -6.63671e-07)
(9.92742 0.133286 1.79065e-07)
(9.97805 3.82634e-09 -8.15968e-12)
(9.91976 2.45263e-08 1.37707e-10)
(9.8152 0.142232 1.47187e-07)
(9.94994 0.008289 -3.96828e-07)
(9.84331 0.0939165 1.28524e-06)
(9.93492 0.0176314 7.5164e-08)
(9.72746 0.0109291 -1.81541e-06)
(9.9986 0.0218217 -6.16029e-07)
(9.91777 7.08625e-08 -6.17093e-10)
(9.95054 7.07629e-09 -1.11884e-11)
(9.83224 0.0478871 1.02534e-06)
(9.39871 0.185573 9.35842e-09)
(9.87767 1.03676e-08 -3.46494e-13)
(9.80264 1.095e-08 5.5601e-11)
(9.83131 0.0329427 1.36056e-07)
(9.75391 0.0433373 7.43767e-07)
(9.79466 0.0730775 3.44799e-07)
(9.86904 6.03045e-08 1.31137e-10)
(9.79269 0.0729384 3.80395e-07)
(9.69821 0.046061 -4.99056e-07)
(9.74779 0.0251733 5.02894e-07)
(9.70864 0.0973404 1.2754e-07)
(9.75779 0.0125189 -1.96549e-07)
(9.7497 0.0135307 2.84147e-07)
(9.73149 0.0136395 4.56998e-07)
(9.69595 0.036057 2.05543e-08)
(9.74669 0.066247 4.01696e-07)
(9.46968 0.186705 2.52171e-07)
(9.82678 0.000595477 9.58146e-08)
(9.58915 0.124027 -3.03796e-07)
(9.52303 0.242577 -1.30558e-06)
(9.47965 0.109798 2.66363e-09)
(9.66261 0.0149284 -2.99368e-09)
(9.2756 0.176178 -1.35407e-07)
(9.66344 0.00295306 1.06949e-07)
(9.61206 3.29248e-08 7.14159e-11)
(9.61484 0.0828616 2.65711e-07)
(9.55513 0.012493 3.37987e-07)
(9.69255 2.05216e-08 1.49015e-10)
(9.56929 0.117448 -2.77149e-07)
(9.4497 0.0765985 1.59448e-07)
(9.21571 1.84415e-08 1.07666e-10)
(9.53924 0.0696341 6.52885e-07)
(9.37135 0.0575583 -1.12846e-06)
(9.33333 0.136465 -2.60285e-07)
(9.48356 0.0600373 5.40505e-08)
(9.55224 0.00206056 -5.39081e-07)
(9.48094 0.00218058 3.83751e-07)
(9.49429 0.0236153 -1.33284e-06)