/*--------------------------------*- C++ -*----------------------------------*\
  =========                 |
  \\      /  F ield         | OpenFOAM: The Open Source CFD Toolbox
   \\    /   O peration     | Website:  https://openfoam.org
    \\  /    A nd           | Version:  7
     \\/     M anipulation  |
\*---------------------------------------------------------------------------*/
FoamFile
{
    version     2.0;
    format      ascii;
    class       scalarField;
    location    "0.1275/lagrangian/reactingCloud1";
    object      d;
}
// * * * * * * * * * * * * * * * * * * * * * * * * * * * * * * * * * * * * * //


1153
(
1.07195e-06
2e-07
2e-07
2e-07
2e-07
2e-07
2e-07
2e-07
2e-07
2e-07
2e-07
1.28889e-06
2e-07
2e-07
2e-07
2e-07
2e-07
2e-07
2e-07
2e-07
2e-07
2e-07
2e-07
2e-07
2e-07
2e-07
2e-07
2e-07
1.33445e-06
2e-07
2e-07
2e-07
2e-07
2e-07
2e-07
2e-07
2e-07
2e-07
2e-07
2e-07
2e-07
2e-07
5.35378e-07
2e-07
2e-07
2e-07
2e-07
2e-07
2e-07
2e-07
2e-07
2e-07
2e-07
2e-07
2e-07
2e-07
2e-07
2e-07
2e-07
2e-07
2e-07
2e-07
2e-07
2e-07
2e-07
2e-07
2e-07
2e-07
2e-07
2e-07
2e-07
2e-07
2e-07
2e-07
2e-07
2e-07
2e-07
2e-07
2e-07
2e-07
2e-07
2e-07
2e-07
2e-07
2e-07
2e-07
2e-07
2e-07
2e-07
2e-07
2e-07
2e-07
2e-07
2e-07
2e-07
2e-07
2e-07
2e-07
2e-07
2e-07
2e-07
2e-07
2e-07
2e-07
2e-07
2e-07
2e-07
2e-07
2e-07
2e-07
2e-07
2e-07
2e-07
2e-07
2e-07
2e-07
2e-07
2e-07
2e-07
2e-07
2e-07
2e-07
2e-07
2e-07
2e-07
2e-07
2e-07
2e-07
2e-07
2e-07
2e-07
2e-07
2e-07
2e-07
2e-07
2e-07
2e-07
2e-07
2e-07
2e-07
2e-07
2e-07
2e-07
2e-07
2e-07
2e-07
2e-07
2e-07
2e-07
2e-07
2e-07
2e-07
2e-07
2e-07
2e-07
2e-07
2e-07
2e-07
2e-07
2e-07
2e-07
2e-07
2e-07
2e-07
2e-07
2e-07
2e-07
2e-07
2e-07
2e-07
2e-07
2e-07
2e-07
2e-07
2e-07
2e-07
2e-07
2e-07
2e-07
2e-07
2e-07
2e-07
2e-07
2e-07
2e-07
2e-07
2e-07
2e-07
2e-07
2e-07
2e-07
2e-07
2e-07
2e-07
2e-07
2e-07
2e-07
2e-07
2e-07
2e-07
2e-07
2e-07
2e-07
2e-07
2e-07
2e-07
2e-07
2e-07
2e-07
2e-07
2e-07
2e-07
2e-07
2e-07
2e-07
2e-07
2e-07
2e-07
2e-07
2e-07
2e-07
2e-07
2e-07
2e-07
2e-07
2e-07
2e-07
2e-07
2e-07
2e-07
2e-07
2e-07
2e-07
2e-07
2e-07
2e-07
2e-07
2e-07
2e-07
2e-07
2e-07
2e-07
2e-07
2e-07
2e-07
2e-07
2e-07
2e-07
2e-07
2e-07
5.96293e-07
2e-07
2e-07
2e-07
2e-07
2e-07
2e-07
2e-07
2e-07
2e-07
2e-07
2e-07
2e-07
2e-07
2e-07
2e-07
2e-07
2e-07
2e-07
2e-07
2e-07
2e-07
2e-07
2e-07
2e-07
2e-07
2e-07
2e-07
2e-07
2e-07
2e-07
2e-07
2e-07
2e-07
2e-07
2e-07
2e-07
2e-07
1.05834e-06
7.36631e-07
1.03735e-06
2.61317e-06
2.77687e-06
1.15656e-06
1.31958e-06
1.91937e-06
1.46783e-06
1.43986e-06
2.11149e-06
1.42299e-06
9.64902e-07
2.07659e-06
1.05747e-06
1.60264e-06
2.06433e-06
2e-07
2e-07
2e-07
2.01591e-06
2e-07
2e-07
2e-07
2e-07
2e-07
2e-07
2e-07
2e-07
2e-07
2e-07
2e-07
2e-07
1.02795e-06
2e-07
2e-07
2e-07
2e-07
2e-07
2e-07
2e-07
2e-07
2e-07
2e-07
2.62557e-06
2e-07
2e-07
2e-07
2e-07
1.45551e-06
2e-07
1.6833e-06
2e-07
2e-07
2.00066e-06
2e-07
1.53248e-06
1.62498e-06
2e-07
2e-07
2e-07
2e-07
2e-07
2e-07
1.23277e-06
2.06392e-06
2e-07
2e-07
3.99243e-06
2e-07
2e-07
2e-07
2e-07
2e-07
2e-07
2e-07
1.16958e-06
2e-07
2e-07
2.65753e-06
2e-07
2e-07
2e-07
2e-07
2e-07
2e-07
2e-07
2e-07
2e-07
2e-07
7.8047e-07
2e-07
2e-07
2e-07
2e-07
2e-07
2e-07
2e-07
2e-07
2e-07
1.19906e-06
2e-07
2e-07
2e-07
2e-07
1.44709e-06
1.10939e-06
2e-07
2e-07
2e-07
2e-07
2e-07
2e-07
2e-07
2e-07
2e-07
1.36275e-06
1.73486e-06
2e-07
2e-07
2e-07
7.6455e-07
2e-07
2e-07
2e-07
1.17129e-06
2e-07
2e-07
2.47856e-06
2.77189e-06
2.8395e-06
2e-07
1.2298e-06
2e-07
2e-07
2e-07
2e-07
2e-07
1.49603e-06
2e-07
2e-07
2e-07
2e-07
2e-07
2e-07
1.48299e-06
2e-07
2e-07
8.01877e-07
2e-07
2e-07
2e-07
2e-07
2e-07
2e-07
2e-07
2e-07
2e-07
2.16134e-06
2e-07
2e-07
2e-07
2e-07
2e-07
2e-07
2e-07
2e-07
2e-07
2e-07
2e-07
2e-07
2e-07
2e-07
2e-07
2e-07
2e-07
2e-07
2e-07
2e-07
2e-07
2e-07
2e-07
2e-07
2e-07
2e-07
2e-07
2e-07
2e-07
1.76331e-06
2e-07
2e-07
2e-07
2e-07
2e-07
2e-07
2e-07
2e-07
2e-07
1.384e-06
2e-07
2e-07
2e-07
2e-07
2e-07
2e-07
2e-07
2e-07
2e-07
2e-07
9.08871e-07
2e-07
2e-07
2e-07
2e-07
2e-07
2e-07
2e-07
2e-07
2e-07
2e-07
2e-07
2e-07
2e-07
2e-07
2e-07
2e-07
2e-07
2e-07
2e-07
2e-07
2e-07
2e-07
2e-07
2e-07
2e-07
2e-07
2e-07
2e-07
2e-07
2e-07
2e-07
2e-07
2e-07
1.14349e-06
2e-07
2e-07
2e-07
2e-07
2e-07
2e-07
2e-07
2e-07
2e-07
2e-07
2e-07
2e-07
2e-07
2e-07
2e-07
2e-07
2e-07
2e-07
2e-07
7.05013e-07
9.88978e-07
8.78948e-07
1.09226e-06
2.17869e-06
1.45682e-06
1.71856e-06
1.97188e-06
2.72756e-06
1.55805e-06
2.17886e-06
3.60101e-06
2.27166e-06
1.66204e-06
2.5096e-06
2e-07
1.6979e-06
2.75703e-06
2e-07
2e-07
2e-07
2.56403e-06
2e-07
1.95925e-06
2.17791e-06
1.17043e-06
2e-07
2.26041e-06
2e-07
2e-07
1.11293e-06
3.68178e-06
1.70351e-06
2e-07
2e-07
2.23847e-06
2e-07
1.04528e-06
2e-07
2e-07
3.05801e-06
2e-07
2e-07
2e-07
2.62756e-06
3.44383e-06
2e-07
2e-07
2e-07
2e-07
1.84877e-06
2e-07
2.11213e-06
1.75248e-06
1.67364e-06
2e-07
2e-07
2e-07
2e-07
1.58733e-06
2e-07
2.84992e-06
1.26357e-06
2e-07
1.36493e-06
2e-07
1.19325e-06
2e-07
1.28039e-06
2.4714e-06
2e-07
2e-07
1.71421e-06
1.51831e-06
2e-07
1.92139e-06
1.64365e-06
2e-07
2e-07
5.72317e-06
2e-07
2e-07
2.07097e-06
2e-07
1.05614e-06
2.20884e-06
2e-07
2e-07
1.54691e-06
2.86179e-06
2e-07
2e-07
9.24471e-07
2e-07
2e-07
1.47558e-06
2e-07
2e-07
2.6231e-06
6.58445e-06
2e-07
1.90422e-06
3.99535e-06
2e-07
2.50123e-06
2e-07
2e-07
2e-07
2e-07
2e-07
2e-07
2e-07
1.80942e-06
2e-07
2e-07
2e-07
1.4738e-06
4.18024e-06
2e-07
2.97697e-06
1.30476e-06
2e-07
2e-07
2e-07
2e-07
3.21078e-06
1.29142e-06
2e-07
2e-07
2e-07
2.63409e-06
2e-07
2e-07
1.8542e-06
2e-07
2e-07
2e-07
2e-07
2e-07
2e-07
2e-07
2e-07
2e-07
2e-07
2e-07
2e-07
2e-07
1.2537e-06
2e-07
2e-07
2e-07
2e-07
2.78486e-06
2e-07
2e-07
2.25247e-06
8.72215e-07
2e-07
2e-07
2e-07
2e-07
2e-07
2.00813e-06
2e-07
2e-07
2e-07
1.09809e-06
2e-07
2.28999e-06
1.08324e-06
1.14254e-06
2e-07
2e-07
1.92746e-06
2e-07
2e-07
2e-07
2.1877e-06
2e-07
1.70598e-06
2e-07
1.48626e-06
2e-07
2e-07
2e-07
2e-07
2e-07
2e-07
2e-07
2e-07
2e-07
2e-07
2e-07
2e-07
2e-07
2e-07
2e-07
2e-07
2e-07
2e-07
2e-07
2.45495e-06
2e-07
2e-07
2e-07
2e-07
2e-07
2e-07
2e-07
2e-07
2e-07
2e-07
7.30231e-07
2e-07
2e-07
2e-07
2e-07
2e-07
2e-07
2e-07
2e-07
2e-07
1.12081e-06
2e-07
2e-07
2e-07
2e-07
2e-07
2e-07
2e-07
2e-07
2e-07
1.59208e-06
1.34952e-06
2e-07
2.17677e-06
2e-07
2e-07
2e-07
2e-07
2e-07
1.49001e-06
2e-07
1.45955e-06
1.79554e-06
2.81174e-06
2e-07
2e-07
2e-07
2e-07
1.18165e-06
2e-07
2e-07
2e-07
2e-07
2e-07
2e-07
2e-07
1.06923e-06
1.86027e-06
2e-07
2e-07
2e-07
2e-07
2e-07
2e-07
2e-07
2e-07
2.08482e-06
2e-07
2e-07
1.17217e-06
2e-07
2e-07
2e-07
2e-07
2e-07
1.13183e-06
3.72029e-06
2e-07
1.2473e-06
8.21304e-07
2.14279e-06
2e-07
2e-07
2e-07
2e-07
2e-07
2e-07
2e-07
2e-07
2e-07
2e-07
2e-07
1.21068e-06
2e-07
2.051e-06
2e-07
1.43161e-06
2.99679e-06
1.54877e-06
2e-07
2e-07
2.67056e-06
2.5001e-06
2.25154e-06
2.48633e-06
2.48178e-06
2.30082e-06
2.47027e-06
2.44417e-06
2.45951e-06
2.47573e-06
2.45122e-06
2.45529e-06
2.46123e-06
2.41875e-06
2.16345e-06
2.4462e-06
2.5359e-06
2.50857e-06
2.6964e-06
2.86035e-06
2.433e-06
2.56806e-06
2.40041e-06
2.41445e-06
2.37123e-06
2.55493e-06
2.3825e-06
2.38795e-06
2.35508e-06
2.36884e-06
2.36348e-06
3.09788e-06
2.32746e-06
1.82046e-06
2.96502e-06
2.34363e-06
3.15636e-06
2.34367e-06
3.35008e-06
2.40582e-06
2.80636e-06
2.50315e-06
2.39175e-06
2.33749e-06
2.30299e-06
2.27472e-06
2.25728e-06
2.24203e-06
2.28324e-06
2.28023e-06
2.28089e-06
3.3993e-06
2.19462e-06
2.26587e-06
2.24193e-06
2.15879e-06
2.22329e-06
2.11207e-06
2.99621e-06
2.21449e-06
2.29976e-06
3.04874e-06
4.87878e-06
2.19959e-06
2.60183e-06
2.18889e-06
4.36378e-06
3.17372e-06
3.01272e-06
2.27852e-06
2.24676e-06
2.75487e-06
2.36618e-06
2.12661e-06
2.89138e-06
1.86439e-06
3.30284e-06
2.08714e-06
2.78542e-06
3.77609e-06
3.73905e-06
2.5077e-06
2.07619e-06
2.05018e-06
3.61645e-06
2.06644e-06
2.33025e-06
2.06106e-06
2.089e-06
2.10749e-06
2.50753e-06
2.13668e-06
1.99067e-06
1.991e-06
2.01155e-06
2.60047e-06
2.63443e-06
3.02373e-06
3.09309e-06
2.50544e-06
1.9885e-06
2.26746e-06
1.96658e-06
1.97111e-06
1.93671e-06
3.84272e-06
5.21305e-06
1.96123e-06
4.17123e-06
2.13825e-06
2.5129e-06
1.88183e-06
1.8995e-06
1.88715e-06
2.00695e-06
3.07166e-06
2.23743e-06
2.06098e-06
1.98299e-06
1.85618e-06
2.61723e-06
1.96098e-06
3.05147e-06
2.84521e-06
2.20808e-06
3.15178e-06
4.85676e-06
2.48637e-06
1.81757e-06
1.88357e-06
1.80218e-06
1.79618e-06
1.79418e-06
2.15811e-06
3.74804e-06
2.11458e-06
1.75873e-06
1.83087e-06
1.86652e-06
1.8184e-06
1.90439e-06
1.72495e-06
2.22294e-06
3.24881e-06
3.82349e-06
2.15061e-06
2.00818e-06
1.67745e-06
1.67605e-06
1.75216e-06
2.48435e-06
1.63513e-06
1.82895e-06
1.97459e-06
2.72164e-06
1.57564e-06
2.49001e-06
2.89516e-06
1.56431e-06
2.41621e-06
1.57421e-06
3.15053e-06
1.85541e-06
1.78908e-06
3.19804e-06
1.54761e-06
1.77558e-06
1.96633e-06
2.75193e-06
1.64574e-06
1.50518e-06
1.50488e-06
2.11877e-06
1.91119e-06
1.45518e-06
1.89542e-06
1.58865e-06
1.44365e-06
1.99109e-06
1.40851e-06
1.68016e-06
2.03528e-06
1.38578e-06
1.38566e-06
2.4554e-06
4.67574e-06
1.59237e-06
2.47229e-06
1.29126e-06
1.84659e-06
1.29461e-06
1.24216e-06
2.24453e-06
1.78408e-06
1.2195e-06
1.38773e-06
2.90063e-06
1.20608e-06
1.23523e-06
1.19729e-06
1.34199e-06
1.15705e-06
1.14118e-06
1.12864e-06
1.32115e-06
1.1171e-06
1.40054e-06
1.36449e-06
1.03026e-06
1.78539e-06
1.00184e-06
9.38843e-07
2.15969e-06
8.9173e-07
1.51111e-06
1.80553e-06
7.89318e-07
7.66631e-07
6.94787e-07
2.83861e-06
7.11238e-07
2.05665e-06
4.00233e-06
6.15017e-07
1.13519e-06
1.39164e-06
1.67351e-06
2.08306e-06
1.98552e-06
4.55232e-07
4.43691e-07
3.88626e-06
4.10229e-06
3.19468e-06
7.38963e-07
2.27585e-06
1.81732e-06
2e-07
2e-07
2e-07
2e-07
1.54976e-06
3.06996e-06
2.82003e-06
5.61165e-07
1.19368e-06
1.18365e-06
2e-07
1.53298e-06
3.11819e-06
1.99604e-06
3.33261e-07
2.47161e-06
2.26009e-06
1.81916e-06
2e-07
1.75337e-06
2e-07
2e-07
6.14758e-07
2.63288e-06
1.01875e-06
3.34514e-06
2e-07
2e-07
2e-07
2e-07
2e-07
4.20462e-07
3.29542e-06
4.05204e-07
2.26585e-06
2.91807e-06
2e-07
1.54314e-06
8.86845e-07
1.89058e-06
1.18432e-06
2e-07
3.22281e-06
3.52946e-06
1.22493e-06
2e-07
3.15117e-06
3.52383e-06
2.56511e-06
2e-07
2e-07
2e-07
3.40397e-06
2e-07
1.50788e-06
2e-07
2.04794e-06
1.06679e-06
1.05376e-06
2.71143e-06
2.9019e-06
2.03744e-06
)


// ************************************************************************* //
