/*--------------------------------*- C++ -*----------------------------------*\
  =========                 |
  \\      /  F ield         | OpenFOAM: The Open Source CFD Toolbox
   \\    /   O peration     | Website:  https://openfoam.org
    \\  /    A nd           | Version:  7
     \\/     M anipulation  |
\*---------------------------------------------------------------------------*/
FoamFile
{
    version     2.0;
    format      ascii;
    class       labelField;
    location    "0.1275/lagrangian/reactingCloud1";
    object      origId;
}
// * * * * * * * * * * * * * * * * * * * * * * * * * * * * * * * * * * * * * //


1153
(
751
849
876
895
897
889
844
783
901
896
899
676
908
906
893
909
898
910
885
911
903
879
914
916
907
912
921
913
630
902
920
922
919
929
923
926
915
892
918
904
932
930
900
925
935
917
927
931
936
945
937
943
941
946
924
944
933
938
948
951
952
942
934
928
950
828
1072
1076
1077
1079
1098
1099
1100
1101
1102
1103
1104
1105
1106
1107
1108
1109
1110
1111
1112
1113
1114
1115
1116
1117
1118
1119
1120
1121
1122
1123
1124
1125
1126
1127
1128
1129
1130
1131
1132
1133
1134
1135
1136
1137
1138
1139
1140
1141
1142
1143
1144
1145
1146
1147
1148
1149
1150
1151
1152
1153
1154
1155
1156
1157
1158
1159
1160
1161
1162
1163
1164
1165
1166
1167
947
1006
1045
1046
1049
1047
1048
1051
1050
1052
1053
1055
1054
1056
1057
1059
1058
1060
1061
1062
1064
1065
1063
1066
1067
1069
1068
1070
1071
1073
1074
1075
1078
1080
1081
1084
1083
1085
1082
1086
1089
1087
1090
1088
1091
1092
1093
1094
1096
1095
1097
806
976
992
988
994
986
987
993
991
1000
1002
996
1003
995
1008
1007
999
1004
1010
1012
1013
1005
1011
1001
1015
1014
939
1017
1018
1016
1019
998
997
1009
1023
1021
1020
1024
1025
1027
1026
1022
1030
1031
1028
1032
1033
1034
1035
1037
1041
1039
1029
1040
1042
1036
1038
1044
1043
905
961
954
959
955
956
963
964
965
958
967
949
962
969
960
974
973
968
971
972
940
953
984
880
979
966
981
982
980
975
978
983
970
989
985
990
977
957
507
568
559
563
496
548
580
586
565
585
562
616
588
582
547
618
628
634
632
648
626
643
647
645
601
656
655
659
660
652
658
664
662
646
657
669
663
672
640
671
670
675
673
668
639
654
661
680
674
666
679
653
683
682
611
684
649
642
686
641
691
695
689
698
687
665
704
701
685
707
700
709
711
697
708
702
681
688
696
581
718
710
705
694
721
690
713
692
720
678
667
727
693
715
734
726
714
739
731
735
717
736
741
742
728
723
706
743
747
725
749
752
730
745
750
733
699
716
746
757
748
740
754
738
758
722
760
756
712
719
703
755
744
759
761
765
766
769
732
764
773
772
774
771
775
753
724
770
729
763
776
780
779
777
784
767
768
789
737
782
790
794
792
788
795
796
793
791
797
785
804
802
786
781
805
808
801
803
799
811
810
787
816
817
798
818
819
812
591
821
778
823
824
825
813
814
820
837
807
836
840
833
842
841
829
847
834
827
831
832
830
846
839
848
850
851
845
843
856
853
800
852
809
861
858
859
838
862
835
863
866
865
870
822
864
869
855
854
871
857
826
873
875
762
868
882
874
860
872
884
878
883
881
877
677
867
888
887
890
891
886
815
894
234
187
321
447
232
228
261
272
327
347
338
242
298
356
332
322
355
63
371
354
339
359
319
370
276
358
362
346
274
342
373
277
372
383
382
343
369
379
368
384
311
374
394
376
48
299
395
380
390
386
349
360
291
387
230
406
392
375
404
378
391
331
341
413
363
409
414
399
410
361
417
419
348
353
430
367
385
411
401
398
434
428
300
408
412
366
443
365
439
357
435
442
422
446
444
364
425
326
377
350
450
432
420
393
400
436
451
457
431
461
424
462
423
458
437
415
452
183
456
389
445
465
469
448
470
403
466
468
475
481
402
464
474
388
482
485
473
455
476
453
487
440
490
471
467
489
479
491
495
463
500
488
405
494
486
429
493
506
501
477
498
484
438
492
508
510
505
499
449
320
381
441
502
407
518
516
514
433
521
418
480
421
526
509
517
530
513
535
536
520
529
524
525
511
537
527
532
541
528
522
549
427
545
550
345
553
554
551
519
556
552
534
397
540
533
564
561
546
566
555
558
459
460
512
426
570
573
577
578
575
557
579
544
497
560
503
583
587
590
598
569
543
593
531
246
504
596
606
599
597
454
595
612
592
607
610
615
594
472
523
609
603
589
613
620
621
574
608
539
605
622
478
627
604
600
624
584
515
576
619
538
396
483
602
633
625
614
629
636
623
637
638
617
631
571
635
542
644
572
416
567
650
651
1
33
24
32
38
42
10
40
37
23
46
39
47
15
30
62
45
49
44
29
43
34
52
6
60
36
72
68
74
69
41
2
66
64
5
80
25
76
55
57
21
82
81
79
67
73
97
91
83
96
54
70
88
87
89
77
51
117
14
123
65
28
50
120
84
101
18
75
27
110
114
71
90
93
58
122
102
107
105
13
59
98
145
134
104
136
95
155
118
133
126
115
131
152
144
85
119
78
19
116
147
143
140
158
166
100
106
130
108
148
129
159
142
149
172
127
137
176
135
177
154
139
128
121
151
103
99
156
157
188
164
195
162
163
160
161
138
169
196
185
178
181
192
132
92
125
191
171
209
170
186
206
180
203
165
217
111
184
221
167
205
141
168
202
112
182
218
233
198
124
197
237
216
175
200
222
189
244
150
225
226
231
248
235
219
204
238
220
257
229
208
227
210
249
259
256
174
86
245
213
247
264
253
271
263
267
270
278
279
215
266
236
201
282
269
252
283
293
289
241
240
194
207
297
211
290
250
268
146
301
287
212
224
214
307
153
9
310
281
295
286
262
109
190
306
303
296
312
280
223
285
315
265
258
273
328
275
329
317
324
284
316
243
318
325
334
309
305
336
193
302
294
255
314
288
304
292
313
344
260
239
337
352
254
199
251
308
335
340
179
323
333
351
330
94
53
113
61
173
)


// ************************************************************************* //
