/*--------------------------------*- C++ -*----------------------------------*\
  =========                 |
  \\      /  F ield         | OpenFOAM: The Open Source CFD Toolbox
   \\    /   O peration     | Website:  https://openfoam.org
    \\  /    A nd           | Version:  7
     \\/     M anipulation  |
\*---------------------------------------------------------------------------*/
FoamFile
{
    version     2.0;
    format      ascii;
    class       Cloud<passiveParticle>;
    location    "0.1275/lagrangian/reactingCloud1";
    object      positions;
}
// * * * * * * * * * * * * * * * * * * * * * * * * * * * * * * * * * * * * * //

1153
(
(0.419337 0.132113 0.160142 0.288408) 46159 91637 2
(0.0109353 0.165027 0.335983 0.488055) 46153 91625 2
(0.54331 0.170978 0.0578417 0.22787) 46108 91536 2
(0.631907 0.19953 0.0244307 0.144132) 46102 91611 1
(0.504217 0.260569 0.146813 0.0884008) 46100 91607 1
(0.00814764 0.00154971 0.496496 0.493807) 46151 91709 2
(0.310959 0.25817 0.331461 0.0994097) 46151 91709 2
(0.389768 0.309166 0.137895 0.163171) 46331 91981 1
(0.672964 0.100246 0.154643 0.0721474) 46190 91787 2
(0.344829 0.236992 0.102462 0.315718) 46239 91797 2
(0.028172 0.267761 0.231907 0.472161) 46283 91885 2
(0.586076 0.0714449 0.206834 0.135645) 46465 92252 2
(0.0372192 0.107546 0.427617 0.427617) 46316 91952 1
(0.163649 0.368391 0.394479 0.0734815) 46325 92057 2
(0.11097 0.0156831 0.428848 0.444499) 46418 92156 2
(0.451551 0.279351 0.053986 0.215112) 46367 92053 1
(0.857664 0.0715569 0.0148988 0.0558805) 46372 92066 1
(0.13022 0.435405 0.25975 0.174625) 46367 92054 1
(0.0797812 0.233866 0.234095 0.452259) 46462 92243 2
(0.681081 0.0180559 0.143091 0.157773) 46455 92229 2
(0.479723 0.0218439 0.259887 0.238545) 46504 92330 2
(0.525369 0.252433 0.0685218 0.153677) 46456 92319 1
(0.096973 0.13253 0.318627 0.45187) 46501 92322 2
(0.723196 0.127917 0.01969 0.129197) 46500 92319 2
(0.36437 0.0792528 0.315238 0.24114) 46550 92507 2
(0.259412 0.290087 0.0807189 0.369782) 46547 92414 2
(0.526825 0.251425 0.176138 0.0456113) 46588 92495 1
(0.31068 0.35075 0.328934 0.00963583) 46592 92591 2
(0.0484402 0.0205779 0.4553 0.475682) 46774 92867 2
(0.323855 0.337771 0.336892 0.00148215) 46682 92771 1
(0.00529501 0.0541371 0.49712 0.443448) 46678 92678 2
(0.389681 0.305478 0.196988 0.107852) 46725 92770 1
(0.0574973 0.472458 0.0209116 0.449133) 46770 92862 1
(0.430262 0.28526 0.0598797 0.224598) 46718 92758 1
(0.248913 0.379948 0.0889738 0.282166) 46768 92855 1
(0.569107 0.0441081 0.173698 0.213087) 46766 92851 2
(0.168781 0.423976 0.174556 0.232688) 46770 92947 1
(0.109378 0.455647 0.345642 0.0893325) 46859 93037 1
(0.40536 0.304659 0.200892 0.0890888) 46858 93035 1
(0.669041 0.168914 0.104387 0.0576579) 46858 93035 1
(0.0208576 0.490278 0.43722 0.0516444) 46808 92936 1
(0.239582 0.137758 0.242326 0.380333) 46898 93116 2
(0.206489 0.226062 0.170892 0.396557) 47000 93320 2
(0.623573 0.196428 0.0415278 0.138471) 46899 93205 1
(0.00537345 0.521904 0.144285 0.328438) 46897 93201 1
(0.304287 0.360621 0.0450556 0.290036) 46945 93297 1
(0.287853 0.356109 0.350854 0.00518429) 46945 93297 1
(0.138387 0.0625593 0.369832 0.429222) 47123 93565 2
(0.560261 0.223959 0.135439 0.0803401) 47076 93559 1
(0.183154 0.276642 0.33895 0.201254) 47065 93537 2
(0.288923 0.360582 0.011185 0.33931) 47120 93559 2
(0.299486 0.377585 0.320694 0.00223461) 47116 93551 1
(0.370627 0.235912 0.314266 0.0791948) 47118 93558 2
(0.386182 0.307204 0.198669 0.107944) 47111 93542 1
(0.295202 0.369039 0.0117379 0.324021) 47120 93647 1
(0.126177 0.437294 0.138412 0.298117) 47161 93644 1
(0.506929 0.24676 0.177788 0.0685231) 47209 93740 1
(0.721063 0.139608 0.0688317 0.0704977) 47208 93738 1
(0.573492 0.216009 0.173979 0.03652) 47249 93905 1
(0.505876 0.16497 0.233694 0.0954603) 47291 93989 2
(0.430227 0.287648 0.0285516 0.253574) 47335 93989 1
(0.927494 0.0281148 0.00928307 0.0351084) 47341 94001 2
(0.27549 0.36944 0.232764 0.122306) 47343 94005 1
(0.485683 0.00607489 0.257073 0.251169) 47386 94094 2
(0.549877 0.0826386 0.147262 0.220222) 47382 94083 2
(0.650262 0.095566 0.0820865 0.172086) 47431 94181 2
(0.128105 0.281214 0.147443 0.443238) 3420 6645 2
(0.350346 0.325271 0.191246 0.133137) 3280 96660 2
(0.441588 0.277259 0.203082 0.0780708) 3340 6528 1
(0.267069 0.334535 0.0332823 0.365114) 3240 96662 1
(0.0118641 0.30255 0.504873 0.180713) 3445 6732 2
(0.336797 0.324214 0.192084 0.146905) 3447 6697 1
(0.150488 0.0913807 0.425291 0.33284) 3421 6649 2
(0.27936 0.359427 0.189574 0.171639) 3407 6622 1
(0.0381672 0.142984 0.485122 0.333727) 3382 6609 2
(0.681944 0.158984 0.0191399 0.139932) 3361 6530 1
(0.135993 0.428868 0.119128 0.316012) 3341 6490 1
(0.273791 0.314468 0.372353 0.0393879) 3342 6531 2
(0.170961 0.413287 0.38617 0.0295825) 3328 6504 1
(0.475259 0.19229 0.0691653 0.263286) 3323 6456 2
(0.78932 0.105144 0.0628938 0.0426417) 3304 6421 1
(0.280562 0.0047678 0.354924 0.359746) 3261 6335 2
(0.133578 0.432329 0.10588 0.328214) 3080 5984 1
(0.83208 0.0798945 0.0311109 0.0569141) 3253 6358 1
(0.482447 0.254326 0.124621 0.138606) 3246 6305 1
(0.910317 0.044681 0.0400938 0.00490796) 3224 6263 1
(0.830952 0.0834617 0.0558443 0.0297418) 3206 6266 1
(0.475573 0.261623 0.16091 0.101894) 3190 6197 1
(0.261355 0.290806 0.380507 0.0673313) 3166 6188 2
(0.515258 0.175248 0.242987 0.0665072) 3162 6144 2
(0.455917 0.271186 0.0142814 0.258616) 3142 6105 1
(0.36612 0.316689 0.236672 0.0805195) 3121 6064 1
(0.378429 0.303606 0.0595118 0.258453) 3102 6063 1
(0.53751 0.230891 0.100816 0.130783) 3091 6006 1
(0.255354 0.372131 0.0768646 0.29565) 3067 5957 1
(0.310657 0.342988 0.0701242 0.27623) 2720 5280 1
(0.294214 0.347895 0.189912 0.167978) 3041 5905 1
(0.635902 0.180402 0.0526906 0.131005) 3024 5872 1
(0.212895 0.328369 0.0645831 0.394153) 3018 5862 2
(0.793822 0.053505 0.104662 0.0480101) 2982 5829 2
(0.350153 0.324548 0.0886034 0.236695) 2982 5793 1
(0.265737 0.360122 0.280851 0.0932903) 2860 5553 1
(0.0450889 0.216473 0.485187 0.253252) 2945 5757 2
(0.173371 0.265706 0.134323 0.4266) 2949 5726 2
(0.313909 0.343069 0.196736 0.146286) 2660 96691 2
(0.588845 0.198094 0.149673 0.0633886) 2910 5650 1
(0.0916839 0.341022 0.11294 0.454354) 2906 5643 2
(0.127211 0.436267 0.417358 0.0191649) 2890 5612 1
(0.614126 0.192665 0.186693 0.00651487) 2868 5607 1
(0.353381 0.306558 0.33289 0.00717133) 2843 5558 2
(0.100551 0.258941 0.458356 0.182152) 2824 5521 2
(0.242228 0.236929 0.141957 0.378886) 2828 5491 2
(0.437169 0.137449 0.281416 0.143967) 2801 5440 2
(0.346483 0.326758 0.114056 0.212703) 2782 5403 1
(0.244343 0.0498947 0.379388 0.326374) 2763 5402 2
(0.0516864 0.139278 0.334879 0.474157) 2772 5382 2
(0.524807 0.117286 0.117224 0.240683) 2700 5241 2
(0.572115 0.212766 0.168045 0.0470748) 2620 5124 1
(0.805428 0.0969031 0.0923076 0.00536143) 2713 5305 1
(0.246612 0.376694 0.265026 0.111668) 2703 5247 1
(0.400268 0.240869 0.306205 0.0526584) 2640 5163 2
(0.230882 0.000175099 0.384384 0.384559) 2692 5226 2
(0.543141 0.0174014 0.22843 0.211028) 2667 5179 2
(0.0315387 0.484231 0.0140978 0.470133) 2641 5128 1
(0.482054 0.141472 0.264868 0.111607) 2627 5137 2
(0.0685506 0.465725 0.393327 0.0723981) 2605 5058 1
(0.258682 0.227672 0.142986 0.370659) 2612 5070 2
(0.901886 0.0490572 0.0250075 0.0240497) 2585 5019 1
(0.382303 0.298822 0.0581926 0.260682) 2567 5020 1
(0.0768169 0.453142 0.270382 0.199659) 2564 4975 1
(0.434509 0.278116 0.175911 0.111464) 2541 4930 1
(0.159026 0.381307 0.0391796 0.420487) 2532 4914 2
(0.68616 0.154804 0.0743882 0.0846482) 2480 4851 1
(0.00234437 0.441868 0.514609 0.0411786) 2485 4860 2
(0.0543425 0.34218 0.472829 0.130648) 2482 4818 2
(0.766258 0.116871 0.0453998 0.0714714) 2461 4777 1
(0.496249 0.248838 0.121487 0.133426) 2440 4734 1
(0.243542 0.372864 0.0751096 0.308485) 2453 4759 1
(0.48076 0.177623 0.0819971 0.25962) 2434 4723 2
(0.11099 0.444505 0.312944 0.131561) 2404 4680 1
(0.288734 0.355351 0.117811 0.238104) 3920 96628 2
(7.20541e-07 0.500653 0.327367 0.171979) 3580 96645 2
(0.161579 0.41949 0.306079 0.112852) 4065 7905 1
(0.631523 0.0104085 0.173483 0.184586) 4044 7861 2
(0.309769 0.197987 0.127329 0.364914) 4114 7998 2
(0.839755 0.00880345 0.071341 0.080101) 4067 7907 2
(0.407724 0.29679 0.267711 0.0277752) 4004 7784 1
(0.441659 0.047058 0.279054 0.232229) 4072 7919 2
(0.246067 0.374872 0.312037 0.0670239) 3984 7783 1
(0.00282551 0.498866 0.38538 0.112929) 4053 7882 1
(0.1417 0.429723 0.235424 0.193152) 4009 7794 1
(0.309969 0.000764926 0.344123 0.345143) 4036 7846 2
(0.557161 0.0141226 0.20733 0.221386) 3923 7626 2
(0.307763 0.316083 0.0187464 0.357407) 3945 7668 2
(0.224466 0.388028 0.277616 0.10989) 3925 7632 1
(0.167017 0.32062 0.0638097 0.448553) 3974 7725 2
(0.168036 0.244171 0.422776 0.165018) 3781 7387 2
(0.011381 0.495344 0.44189 0.0513859) 3864 7511 1
(0.523526 0.233997 0.144169 0.0983088) 3843 7469 1
(0.336115 0.32259 0.0232947 0.318001) 3823 7469 1
(0.059762 0.437354 0.0337892 0.469095) 3894 7570 2
(0.729115 0.0258284 0.135382 0.109674) 3871 7527 2
(0.219484 0.0772544 0.392459 0.310803) 3721 7270 2
(0.307232 0.345215 0.0373959 0.310157) 3804 7393 1
(0.638249 0.0389685 0.180792 0.141991) 3805 7398 2
(0.236314 0.364977 0.20239 0.196319) 3834 7452 1
(0.610993 0.194912 0.00448882 0.189606) 3807 7402 1
(0.163456 0.406836 0.343074 0.0866332) 3785 7356 1
(0.0186881 0.165645 0.490417 0.325249) 3764 7318 2
(0.461213 0.262772 0.198657 0.077359) 3745 7278 1
(0.366329 0.235962 0.0730077 0.324701) 3724 7237 2
(0.680141 0.140877 0.164625 0.0143569) 3704 7237 2
(0.25371 0.020744 0.373148 0.352398) 3683 7160 2
(0.0653866 0.193526 0.467619 0.273468) 3642 7080 2
(0.355756 0.215335 0.322488 0.10642) 3601 7000 2
(0.339269 0.318042 0.0962277 0.246461) 3630 7093 1
(0.742391 0.125091 0.0136798 0.118838) 3624 7081 1
(0.759732 0.0158722 0.120155 0.104241) 3634 7065 2
(0.311931 0.187122 0.344659 0.156288) 3581 6961 2
(0.507484 0.245955 0.0103177 0.236244) 3583 6962 1
(0.29961 0.242394 0.096783 0.361213) 3588 6972 2
(0.34595 0.326767 0.124097 0.203186) 3587 6971 1
(0.612442 0.193408 0.0442017 0.149948) 3570 6940 1
(0.167401 0.0372036 0.379004 0.416392) 3563 6924 2
(0.351121 0.323914 0.179623 0.145342) 3547 6893 1
(0.196905 0.400051 0.0389141 0.36413) 3547 6892 1
(0.38472 0.167785 0.308204 0.139291) 3525 6852 2
(0.076511 0.245518 0.468966 0.209006) 3482 6804 2
(0.385012 0.115137 0.307979 0.191872) 3484 6772 2
(0.355073 0.260209 0.061138 0.32358) 3461 6725 2
(0.808599 0.0954554 0.0428552 0.0530901) 3466 6737 1
(0.414026 0.288059 0.199419 0.0984959) 4640 9024 1
(0.271954 0.355366 0.0365438 0.336136) 5042 9856 1
(0.0354424 0.482225 0.0818015 0.400531) 5149 10031 1
(0.562869 0.215925 0.142775 0.0784305) 5105 9982 1
(0.0170039 0.473245 0.225329 0.284422) 5151 10074 1
(0.511267 0.241255 0.117662 0.129815) 5043 9818 1
(0.290524 0.188893 0.165285 0.355299) 5005 9743 2
(0.335664 0.331799 0.229404 0.103133) 5046 9827 1
(4.03667e-05 0.498694 0.260245 0.241021) 4420 96603 2
(0.736074 0.122082 0.131008 0.0108365) 5033 9798 1
(0.714053 0.0562717 0.0867312 0.142944) 4951 9635 2
(0.11343 0.444642 0.246617 0.195311) 4862 9459 1
(0.174364 0.314542 0.0982491 0.412845) 4910 9553 2
(0.129013 0.425492 0.359464 0.08603) 4802 9339 1
(0.1255 0.0513614 0.450091 0.373048) 4857 9486 2
(0.218986 0.371236 0.308344 0.101435) 4852 9437 1
(0.0613131 0.198083 0.265381 0.475223) 4742 9222 2
(0.0372432 0.0994073 0.484692 0.378657) 4724 9226 2
(0.571019 0.0781798 0.136829 0.213972) 4794 9325 2
(0.517629 0.241691 0.0797193 0.160961) 4733 9206 1
(0.733702 0.120229 0.0427063 0.103363) 4736 9250 1
(0.233034 0.110933 0.269272 0.386761) 4663 9068 2
(0.212658 0.377009 0.366572 0.0437612) 4709 9158 1
(0.45206 0.00536599 0.268618 0.273956) 4561 8870 2
(0.193564 0.403986 0.276729 0.125721) 4697 9138 1
(0.377533 0.28051 0.326817 0.0151398) 4650 9082 2
(0.0063116 0.489483 0.213123 0.291083) 4460 8712 1
(0.694022 0.146216 0.0541826 0.105579) 4656 9055 1
(0.82912 0.0806489 0.0191642 0.0710668) 4638 9020 1
(0.402601 0.178413 0.29771 0.121276) 4588 8925 2
(0.952558 0.0229306 0.00870445 0.0158069) 4550 8887 1
(0.296487 0.352255 0.253282 0.0979759) 4461 8677 1
(0.166105 0.315466 0.41519 0.103239) 4565 8880 2
(0.252596 0.0633476 0.375595 0.308462) 4461 8713 2
(0.29798 0.344662 0.34924 0.00811784) 4491 8736 2
(0.691861 0.152941 0.0293439 0.125854) 4467 8686 1
(0.202315 0.390188 0.242309 0.165187) 4466 8684 1
(0.705377 0.14781 0.0494008 0.0974127) 4471 8697 1
(0.144383 0.142482 0.427087 0.286047) 4472 8699 2
(0.520401 0.226674 0.0142565 0.238668) 4456 8666 2
(0.187029 0.0315955 0.406332 0.375043) 4408 8574 2
(0.161552 0.304242 0.11642 0.417786) 4364 8486 2
(0.0031947 0.499023 0.36437 0.133413) 4328 8418 1
(0.0741973 0.125256 0.330687 0.46986) 4350 8458 2
(0.161782 0.240842 0.179578 0.417797) 4324 8408 2
(0.581324 0.0579505 0.212236 0.14849) 4309 8417 2
(0.23681 0.264753 0.38039 0.118046) 4310 8383 2
(0.189871 0.106729 0.291665 0.411735) 4311 8382 2
(0.243512 0.191013 0.179272 0.386203) 4247 8257 2
(0.169389 0.403143 0.243241 0.184227) 4250 8263 1
(0.4447 0.0650342 0.285779 0.204486) 4215 8234 2
(0.769909 0.0541939 0.118057 0.057841) 4210 8224 2
(0.336519 0.332206 0.2248 0.106475) 4182 8133 1
(0.351317 0.20726 0.117971 0.323452) 4212 8190 2
(0.144739 0.416737 0.174292 0.264232) 4192 8150 1
(0.899953 0.0213475 0.0287381 0.0499618) 4164 8096 2
(0.114888 0.442954 0.155721 0.286437) 4145 8059 1
(0.297163 0.221106 0.369844 0.111887) 4153 8113 2
(0.397709 0.0509906 0.301016 0.250284) 4149 8069 2
(0.689399 0.155708 0.119887 0.0350058) 47570 94547 1
(0.145492 0.470379 0.0827335 0.301395) 47552 94511 1
(0.223572 0.270699 0.117636 0.388093) 47648 94616 2
(0.518695 0.178618 0.0622202 0.240467) 47646 94612 2
(0.286066 0.356961 0.183068 0.173905) 47648 94616 1
(0.646265 0.177309 0.165622 0.0108041) 47648 94703 1
(0.214377 0.394753 0.368331 0.0225389) 47688 94783 1
(0.351041 0.33454 0.103419 0.211001) 47731 94781 1
(0.408801 0.188133 0.278652 0.124414) 47730 94867 2
(0.0746462 0.470189 0.173227 0.281938) 47825 94969 1
(0.0698513 0.225522 0.464817 0.23981) 47817 94956 2
(0.29513 0.352607 0.137559 0.214704) 47911 95144 1
(0.366174 0.317276 0.200755 0.115794) 47912 95144 1
(0.0935777 0.424838 0.452835 0.0287498) 47997 95316 2
(0.546663 0.0719116 0.154883 0.226542) 48046 95412 2
(0.220817 0.422608 0.125704 0.230871) 48036 95479 1
(0.0425626 0.479062 0.366232 0.112143) 48084 95488 1
(0.461323 0.0220489 0.247195 0.269433) 48132 95584 2
(0.694162 0.152944 0.150513 0.00238025) 48175 95670 1
(0.0225846 0.508884 0.126181 0.34235) 48175 95757 1
(0.327141 0.346555 0.00194728 0.324357) 48223 95853 1
(0.44762 0.0774412 0.273681 0.201258) 48222 95851 2
(0.312927 0.362273 0.0109049 0.313895) 48175 95757 1
(0.0881282 0.0631617 0.392829 0.455881) 48356 96032 2
(0.33245 0.270497 0.315768 0.0812857) 48349 96105 2
(0.436446 0.281278 0.017116 0.26516) 48394 96110 1
(0.126174 0.374532 0.436609 0.0626846) 48391 96104 2
(0.0712008 0.513713 0.344925 0.0701617) 48388 96095 1
(0.0878979 0.137762 0.446876 0.327465) 48393 96193 2
(0.0719444 0.229352 0.463936 0.234768) 48440 96202 2
(0.0697021 0.465494 0.45595 0.00885403) 48440 96287 1
(0.177478 0.314176 0.0729059 0.43544) 48525 96379 2
(0.459956 0.267319 0.0894149 0.18331) 5364 10460 1
(0.342002 0.275961 0.318206 0.0638309) 5357 10446 1
(0.419338 0.275997 0.0200733 0.284591) 5308 10388 1
(0.269268 0.355369 0.131789 0.243575) 5292 10316 1
(0.308607 0.340737 0.146712 0.203944) 5245 10222 1
(0.369379 0.193993 0.120984 0.315644) 5207 10147 2
(0.554169 0.223124 0.00447685 0.21823) 43386 86092 1
(0.245262 0.377502 0.0180032 0.359233) 43534 86388 1
(0.682184 0.0838617 0.075126 0.158828) 43431 86182 2
(0.154335 0.422567 0.00624162 0.416857) 43340 86000 1
(0.351494 0.0331856 0.292387 0.322933) 43379 86077 2
(0.518455 0.241401 0.0298433 0.210301) 43561 86441 1
(0.506694 0.248544 0.106652 0.138111) 43478 86275 1
(0.751264 0.124602 0.0703139 0.05382) 43382 86086 1
(0.0435891 0.180994 0.297732 0.477685) 43560 86440 2
(0.382088 0.234206 0.305704 0.0780022) 43519 86445 2
(0.485095 0.196764 0.250561 0.06758) 43601 86609 2
(0.187001 0.40703 0.241911 0.164059) 43511 86344 1
(0.443476 0.124613 0.277849 0.154062) 43788 86898 2
(0.218707 0.405203 0.250644 0.125446) 43554 86427 1
(0.366005 0.0325217 0.316796 0.284677) 43780 86882 2
(0.886931 0.041368 0.0566326 0.0150689) 43646 86614 2
(0.585019 0.207839 0.182856 0.0242866) 43644 86610 1
(0.0718178 0.465675 0.4498 0.0127067) 43598 86516 1
(0.0131186 0.271606 0.473648 0.241627) 43595 86597 2
(0.00600105 0.497403 0.341783 0.154812) 43595 86510 1
(0.456911 0.272139 0.0883515 0.182598) 43732 86786 1
(0.244104 0.37849 0.274594 0.102812) 43642 86604 1
(0.459827 0.270911 0.228504 0.0407579) 43591 86502 1
(0.615914 0.261522 0.0616243 0.0609404) 43588 86496 1
(0.125841 0.000792239 0.436266 0.4371) 43683 86688 2
(0.279044 0.0436339 0.317217 0.360105) 43635 86590 2
(0.317176 0.238989 0.103377 0.340458) 43638 86596 2
(0.835236 0.0400993 0.0467726 0.0778926) 43636 86591 2
(0.657416 0.106271 0.0641769 0.172136) 43681 86682 2
(2.14215e-09 0.919298 0.0807017 7.2113e-09) 43676 141082 1
(0.495998 0.255371 0.21014 0.0384915) 43683 86773 1
(0.0263709 0.0890255 0.398194 0.486409) 43727 86774 2
(0.105596 0.448162 0.106446 0.339795) 43727 86776 1
(0.438496 0.0526396 0.27795 0.230914) 43774 86955 2
(0.135897 0.432296 0.36575 0.0660568) 43724 86770 1
(0.440368 0.0031224 0.276631 0.279879) 43725 86770 2
(0.400825 0.30084 0.296836 0.00149872) 43679 86765 1
(0.389465 0.141872 0.30416 0.164503) 43720 86762 2
(0.141666 0.202655 0.227235 0.428443) 43772 86864 2
(0.461941 0.104336 0.258941 0.174782) 43725 86857 2
(0.348927 0.328511 0.0158897 0.306673) 43767 86853 1
(0.589828 0.201172 0.0235386 0.185461) 43769 86857 2
(0.29797 0.0847106 0.35114 0.266179) 43766 86854 2
(0.302612 0.340333 0.0314582 0.325597) 43816 86951 2
(0.158003 0.431472 0.199046 0.21148) 43863 87133 1
(0.312421 0.366693 0.262127 0.0587588) 43815 86949 1
(0.355776 0.0433046 0.278971 0.321948) 43862 87044 2
(0.400324 0.331227 0.208704 0.0597454) 43765 86937 1
(0.427974 0.301967 0.0321686 0.237891) 43817 87041 1
(0.102919 0.122191 0.448231 0.326659) 43907 87136 2
(0.959052 0.0216222 0.0088931 0.0104331) 43813 87033 1
(0.0607363 0.43643 0.0345437 0.46829) 43954 87228 2
(0.158301 0.42032 0.00201891 0.419361) 43811 86942 2
(0.759174 0.120368 0.0153657 0.105092) 43812 86944 1
(0.0402837 0.480763 0.118249 0.360704) 44000 87322 1
(0.0599462 0.134676 0.45255 0.352828) 43811 87029 2
(0.492523 0.253894 0.0255455 0.228037) 44001 87324 1
(0.585782 0.208091 0.0175357 0.188592) 44044 87410 1
(0.370605 0.339666 0.0476279 0.242102) 43858 87123 1
(0.228984 0.0767206 0.385294 0.309001) 43949 87220 2
(0.562803 0.231592 0.0122894 0.193316) 43900 87119 2
(0.194544 0.403268 0.0074605 0.394728) 43946 87211 1
(2.52142e-08 1.33918e-09 0.882746 0.117254) 43896 189862 2
(0.0991109 0.332419 0.118915 0.449554) 43995 87310 2
(0.197444 0.400888 0.0167929 0.384875) 44040 87400 1
(0.124495 0.438242 0.132294 0.304969) 44085 87490 1
(0.554624 0.180407 0.222042 0.0429262) 43989 87300 2
(0.101072 0.450521 0.432831 0.0155765) 43988 87296 1
(0.0878714 0.432455 0.345112 0.134561) 43985 87377 2
(0.786778 0.106763 0.093028 0.013431) 44036 87392 1
(0.145253 0.22136 0.415579 0.217808) 44038 87483 2
(0.642066 0.126061 0.0635839 0.168289) 44034 87387 2
(0.463905 0.160963 0.106857 0.268274) 44032 87384 2
(0.172225 0.244484 0.171398 0.411893) 44031 87382 2
(0.00394256 0.379811 0.469424 0.146822) 44035 87477 2
(0.0687526 0.225211 0.41052 0.295516) 44029 87465 2
(0.00547468 0.144342 0.494099 0.356085) 44275 87957 2
(0.681772 0.0284236 0.157353 0.132451) 44081 87569 2
(0.142687 0.369284 0.401205 0.0868242) 44079 87565 2
(0.367318 0.220279 0.316085 0.0963182) 44124 87570 2
(0.322001 0.339799 0.227539 0.110661) 44074 87470 1
(0.0213895 0.489813 0.460024 0.0287736) 44075 87472 1
(0.016577 0.966587 0.00841576 0.00842064) 44072 87552 1
(0.659355 0.184235 0.0159847 0.140425) 44122 87651 1
(0.546903 0.168453 0.0592778 0.225366) 44120 87560 2
(0.307663 0.356888 0.178824 0.156624) 44170 87659 1
(0.326786 0.355652 0.310265 0.00729747) 44123 87653 2
(0.116952 0.269841 0.415446 0.197761) 44121 87649 2
(0.460306 0.128567 0.269949 0.141178) 44167 87656 2
(0.0524411 0.337988 0.137359 0.472212) 44165 87650 2
(0.0139248 0.108101 0.492813 0.385162) 44406 88134 2
(0.52358 0.252617 0.105227 0.118577) 44165 87737 1
(0.0731199 0.486881 0.0704235 0.369575) 44205 87729 1
(0.156614 0.00144911 0.485642 0.356294) 44204 190170 2
(0.425834 0.317769 0.197554 0.0588424) 44205 87817 1
(0.614907 0.101789 0.0913796 0.191925) 44256 87832 2
(0.250363 0.375552 0.176331 0.197755) 44259 87838 1
(0.563768 0.230093 0.116027 0.0901121) 44298 87915 1
(0.00337269 0.500663 0.131771 0.364193) 44294 87910 1
(0.0749409 0.463386 0.135448 0.326225) 44297 87916 1
(0.303286 0.349 0.0360038 0.31171) 44398 88118 1
(0.027486 0.180495 0.320973 0.471046) 44342 88003 2
(0.251714 0.395598 0.00643432 0.346254) 44344 88007 2
(0.569596 0.210842 0.214504 0.00505822) 44343 88008 2
(0.248698 0.376694 0.163805 0.210804) 44347 88014 1
(0.0030598 0.18627 0.312735 0.497935) 44437 88194 2
(0.93269 0.0338591 0.0152908 0.0181599) 44532 88383 1
(0.130504 0.465503 0.297617 0.106376) 44386 88091 1
(0.202304 0.155237 0.244349 0.398111) 44387 88094 2
(0.245763 0.377896 0.267125 0.109217) 44391 88102 1
(0.57913 0.120571 0.0901587 0.21014) 44386 88092 2
(0.368531 0.315838 0.15176 0.16387) 44384 88088 1
(0.241791 0.189213 0.368852 0.200144) 44390 88187 2
(5.03955e-09 0.895524 0.104476 1.42083e-09) 44424 141830 1
(0.372644 0.248156 0.0896866 0.289514) 44429 88177 2
(0.0906421 0.684614 0.223299 0.00144472) 44424 141830 1
(0.659667 0.170296 0.152363 0.0176744) 44578 88478 1
(0.622278 0.188849 0.142113 0.0467598) 44481 88284 1
(0.0900232 0.453187 0.453895 0.00289481) 44432 88186 2
(0.592703 0.199389 0.181309 0.0265987) 44428 88263 2
(0.177674 0.427312 0.310707 0.0843061) 44479 88277 1
(0.319493 0.183183 0.157619 0.339705) 44623 88566 2
(0.666688 0.177444 0.143687 0.0121808) 44476 88271 1
(0.867762 0.0157956 0.0504813 0.065961) 44478 88276 2
(0.13499 0.345194 0.4314 0.088416) 44474 88270 2
(0.158722 0.421676 0.39683 0.0227726) 44574 88468 1
(0.594657 0.202472 0.19289 0.00998083) 44473 88268 1
(0.491509 0.27535 0.0828387 0.150303) 44472 88351 1
(0.450293 0.275337 0.0347048 0.239665) 44569 88460 1
(0.43987 0.28214 0.242137 0.0358527) 44566 88539 1
(0.249097 0.375791 0.302722 0.0723898) 44612 88546 1
(0.0223049 0.323907 0.488268 0.16552) 44520 88362 2
(0.293528 0.285136 0.0729438 0.348392) 44750 88819 2
(0.22641 0.0110593 0.376638 0.385892) 44521 88361 2
(0.457904 0.272009 0.262149 0.00793824) 44520 88360 1
(0.247216 0.376879 0.370543 0.00536178) 44518 88443 1
(0.0738067 0.0566852 0.410882 0.458626) 44562 88443 2
(0.570428 0.0224469 0.214308 0.192817) 44561 88444 2
(0.157539 0.422137 0.363238 0.0570859) 44794 88908 1
(0.328375 0.367221 0.0597991 0.244605) 44601 88521 1
(0.540876 0.0125998 0.218217 0.228307) 44605 88529 2
(0.0386292 0.40619 0.0757821 0.479399) 44607 88534 2
(0.478857 0.20625 0.259847 0.0550458) 44605 88532 2
(0.146802 0.456341 0.0201105 0.376747) 44608 88623 1
(0.515131 0.250702 0.166831 0.0673362) 44605 88617 1
(0.147607 0.206566 0.425671 0.220156) 44789 88900 2
(0.260751 0.100315 0.636746 0.00218829) 44600 142006 1
(0.0230396 0.414761 0.487338 0.074861) 44698 88718 2
(0.0914976 0.464686 0.188626 0.25519) 44745 88897 1
(0.778077 0.11089 0.10446 0.00657352) 44743 88808 1
(0.0953286 0.45231 0.0968468 0.355514) 44652 88624 1
(0.783294 0.0458402 0.065979 0.104887) 44695 88709 2
(0.135072 0.00433949 0.432616 0.427973) 44695 88712 2
(0.159572 0.420665 0.161948 0.257815) 44742 88804 1
(0.0737332 0.0652536 0.398081 0.462932) 44739 88798 2
(0.46957 0.26572 0.181741 0.0829688) 44832 88984 1
(0.429454 0.285605 0.213577 0.0713632) 44740 88802 1
(0.446833 0.00497892 0.275975 0.272213) 44737 88881 2
(0.622494 0.196032 0.000765466 0.180709) 44921 89249 1
(0.53261 0.210918 0.0391094 0.217362) 44783 88885 2
(0.774906 0.112696 0.00259787 0.109801) 44783 88888 1
(0.0995027 0.450573 0.160053 0.289872) 44781 88882 1
(0.393405 0.304526 0.0179014 0.284167) 44829 88977 1
(0.465297 0.193485 0.248591 0.0926268) 44781 88969 2
(0.27053 0.397858 0.276968 0.0546446) 44825 88969 1
(0.496922 0.150858 0.11753 0.23469) 44824 88967 2
(0.115734 0.449518 0.315251 0.119497) 44830 89067 1
(0.201445 0.0757899 0.323764 0.399001) 44915 89150 2
(0.0451255 0.433711 0.443924 0.0772399) 44827 89061 2
(0.0622916 0.0940787 0.375023 0.468607) 44964 89248 2
(0.245166 0.377532 0.0491356 0.328166) 44911 89141 2
(0.385206 0.122373 0.307155 0.185267) 44915 89152 2
(0.0370246 0.0636268 0.417828 0.481521) 44915 89150 2
(0.694009 0.0971281 0.142082 0.0667813) 44956 89319 2
(0.593435 0.0570047 0.202952 0.146609) 44960 89242 2
(0.0131428 0.4083 0.0863414 0.492216) 44958 89236 2
(0.0993378 0.457838 0.324052 0.118772) 44962 89331 1
(0.294168 0.356033 0.0644895 0.28531) 45052 89423 1
(0.396631 0.313442 0.0716425 0.218284) 45007 89421 1
(0.104115 0.26582 0.208127 0.421937) 45001 89321 2
(0.448947 0.287244 0.127665 0.136144) 45003 89325 1
(0.112706 0.49326 0.377505 0.0165288) 44996 142402 1
(0.0521732 0.108383 0.365857 0.473586) 45044 89408 2
(0.695072 0.133979 0.0188894 0.152059) 45044 89408 2
(0.394572 0.302874 0.0941197 0.208435) 45140 89602 1
(0.0996407 0.45033 0.40641 0.0436196) 45045 89412 1
(0.765778 0.117593 0.0218954 0.0947337) 45092 89506 1
(0.355427 0.0763113 0.321952 0.24631) 45138 89598 2
(0.725214 0.13757 0.0519475 0.0852684) 45230 89782 1
(0.00242318 0.118773 0.489711 0.389092) 45091 89589 2
(0.440533 0.259649 0.0380622 0.261756) 45136 89591 2
(0.345256 0.29336 0.0627456 0.298638) 45133 89585 2
(0.0348701 0.253406 0.22991 0.481814) 45132 89584 2
(0.206779 0.315025 0.369398 0.108797) 45134 89675 2
(0.184288 0.408862 0.0187946 0.388056) 45228 89778 1
(0.156204 0.422519 0.108958 0.312319) 45315 89952 1
(0.975105 0.00966519 0.0121017 0.00312786) 45361 90129 2
(0.202321 0.240701 0.159035 0.397944) 45311 89942 2
(0.673022 0.152958 0.159056 0.0149639) 45406 90219 2
(0.439461 0.292306 0.0435676 0.224666) 45315 90037 1
(0.119793 0.465729 0.172283 0.242195) 45310 90027 1
(0.026843 0.487055 0.206916 0.279186) 45359 90038 1
(0.309413 0.345423 0.0955107 0.249654) 45355 90030 1
(0.486254 0.0864308 0.256617 0.170699) 45401 90124 2
(0.271896 0.364782 0.351501 0.01182) 45403 90213 1
(0.746754 0.126683 0.104763 0.0217994) 45397 90116 1
(0.503537 0.0292903 0.247897 0.219275) 45447 90216 2
(0.349331 0.325425 0.282545 0.0426995) 45448 90218 1
(0.498085 0.25722 0.115498 0.129197) 45448 90303 1
(0.296271 0.00676774 0.344765 0.352196) 45540 90400 2
(0.28483 0.380241 0.192179 0.14275) 45441 90201 1
(0.0378473 0.449885 0.0662275 0.44604) 45443 90205 2
(0.187647 0.333954 0.0727729 0.405626) 45445 90210 2
(0.59821 0.210114 0.10056 0.091116) 45443 90205 1
(0.254933 0.303175 0.348822 0.0930706) 45443 90293 2
(0.356532 0.275047 0.047382 0.32104) 45488 90296 2
(0.398157 0.289625 0.0292708 0.282947) 45533 90385 2
(0.433417 0.145721 0.144792 0.276069) 45579 90477 2
(0.204637 0.416088 0.255738 0.123537) 45577 90473 1
(0.374683 0.313194 0.2466 0.0655229) 45579 90478 1
(0.470902 0.264724 0.0330017 0.231373) 45577 90476 1
(0.259463 0.370637 0.348338 0.0215616) 45578 90476 1
(0.43121 0.0850236 0.283715 0.200052) 45570 90462 2
(0.40941 0.295522 0.0864335 0.208634) 45574 90468 1
(0.537565 0.247094 0.0246375 0.190704) 45576 90559 1
(0.328931 0.0583892 0.281179 0.3315) 45620 90559 2
(0.00517426 0.255411 0.486333 0.253082) 45624 90655 2
(0.311301 0.265828 0.343725 0.0791464) 45619 90560 2
(0.252736 0.0711595 0.37344 0.302665) 45668 90658 2
(0.343847 0.0682916 0.265388 0.322474) 45663 90645 2
(0.52355 0.238291 0.210419 0.0277394) 45663 90648 1
(0.0388362 0.493216 0.446176 0.0217722) 45664 90735 2
(0.38177 0.329938 0.0406921 0.247599) 45701 90721 1
(0.0393974 0.182757 0.480067 0.297779) 45755 90832 2
(0.0368232 0.488031 0.106811 0.368335) 45754 90827 1
(0.024162 0.384667 0.130461 0.46071) 45752 90823 2
(0.606197 0.196817 0.1576 0.039387) 45753 90826 1
(0.781679 0.0297563 0.107363 0.081202) 45753 90913 2
(0.496009 0.252359 0.123246 0.128386) 45753 90828 1
(0.363443 0.227887 0.0977775 0.310892) 45846 91011 2
(0.206647 0.339996 0.383707 0.0696499) 45801 91009 2
(0.102158 0.0689576 0.383119 0.445766) 45843 91005 2
(0.511168 0.245844 0.0200724 0.222915) 45841 91001 1
(0.109282 0.435257 0.444507 0.0109537) 45893 91108 2
(0.131322 0.0573664 0.434434 0.376877) 45887 91096 2
(0.634093 0.23531 0.102524 0.0280733) 45877 91073 1
(0.755969 0.122122 0.117151 0.00475872) 45887 91096 1
(0.262855 0.368876 0.352496 0.0157739) 45890 91187 1
(0.249028 0.375768 0.19134 0.183865) 45886 91092 1
(0.110948 0.451326 0.039348 0.398378) 45923 91165 1
(0.228213 0.392874 0.126544 0.252369) 45931 91181 1
(0.75517 0.119722 0.122151 0.00295668) 45927 91176 2
(0.261312 0.37178 0.0418287 0.325079) 45975 91269 1
(0.61002 0.0443704 0.152618 0.192991) 45976 91271 2
(0.171155 0.409788 0.0054378 0.413619) 45973 91266 2
(0.0917852 0.471909 0.00765824 0.428648) 45977 91361 1
(0.432041 0.28452 0.251141 0.0322986) 46016 91352 1
(0.183691 0.408405 0.229536 0.178369) 46017 91356 1
(0.0203633 0.530987 0.0120273 0.436622) 46015 91437 1
(0.565578 0.217366 0.0731674 0.143888) 46060 91440 1
(0.375738 0.130878 0.304587 0.188797) 46062 91531 2
(0.0578317 0.476081 0.328618 0.137469) 46066 91539 1
(0.0380152 0.489664 0.401856 0.0704651) 46057 91521 1
(0.44062 0.132271 0.280043 0.147066) 33411 66768 2
(0.711061 0.144514 0.089711 0.0547139) 42080 83482 1
(0.641697 0.180205 0.0864054 0.0916927) 42220 83847 1
(0.34209 0.32935 0.232956 0.0956041) 43003 85328 1
(0.702799 0.0945695 0.0563673 0.146264) 41902 83123 2
(0.401386 0.294231 0.00542174 0.298961) 41764 82848 2
(0.133144 0.438451 0.24597 0.182435) 41764 82847 1
(0.232198 0.384986 0.336462 0.0463539) 41812 83031 1
(0.407656 0.296963 0.141478 0.153903) 41791 82902 1
(0.201799 0.399565 0.326342 0.0722938) 41841 83002 1
(0.131499 0.199927 0.419798 0.248776) 41835 83077 2
(0.353528 0.302658 0.322855 0.0209585) 41834 82990 2
(0.0179851 0.492062 0.192742 0.297211) 41834 82990 1