/*--------------------------------*- C++ -*----------------------------------*\
  =========                 |
  \\      /  F ield         | OpenFOAM: The Open Source CFD Toolbox
   \\    /   O peration     | Website:  https://openfoam.org
    \\  /    A nd           | Version:  7
     \\/     M anipulation  |
\*---------------------------------------------------------------------------*/
FoamFile
{
    version     2.0;
    format      ascii;
    class       scalarField;
    location    "0.1275/lagrangian/reactingCloud1";
    object      tTurb;
}
// * * * * * * * * * * * * * * * * * * * * * * * * * * * * * * * * * * * * * //


1153
(
0.00226285
0.0004122
0.00029605
0.006285
0.00626062
0.000233609
0.00246318
0.00049305
0.006165
0.00221315
0.00215735
0.00067285
0.005997
0.00019835
0.0014062
0.005973
0.000556
0.005949
0.00132305
0.00165955
0.000888789
0.00483885
6.35e-06
0.00582862
0.0006982
0.00198458
0.005733
0.0019845
0.00046955
0.000711169
0.00181421
0.00179632
0.00056405
0.005541
0.00181107
0.00134755
0.0013652
0.00106405
0.0007767
0.00033605
0.005469
0.00156312
0.00193768
0.00186632
0.005397
0.0018762
0.0002987
0.00051785
0.00148905
0.005157
0.00143323
0.005205
0.00098755
0.005133
0.001498
0.005181
0.00056035
0.001591
0.005085
0.005013
0.004989
0.00148602
0.00022535
0.0013
0.005037
0.000496432
0.000259
0.00021605
7.035e-05
0.0003032
0.001605
0.001581
0.000136683
0.001533
0.001509
5.60467e-05
0.0003437
0.001437
0.001413
0.001389
0.001365
0.00076505
0.0001707
0.001293
0.001269
0.001245
0.001221
0.001197
0.001173
0.001149
0.001125
0.001101
0.001077
0.001053
0.001029
0.00038285
0.000981
0.000957
0.000933
0.000909
0.000908625
0.00029826
0.000861
0.000837
0.000192069
0.000789
0.000788625
0.000765
0.000741
0.000717
0.000693
0.000669
0.000645
0.000621
0.000597
0.000573
0.000549
0.000525
0.000501
0.000500625
0.000477
0.000453
0.000429
0.000405
0.000381
0.000357
0.000333
0.000309
0.000285
0.000261
0.000237
0.000213
0.000189
0.000165
0.000141
0.000117
9.3e-05
6.9e-05
4.5e-05
2.1e-05
6.32e-05
0.000309007
0.002781
0.002757
0.00270862
0.002733
0.002709
0.002661
0.002685
0.002637
0.002613
0.002565
0.002589
0.002541
0.002517
0.002469
0.00106623
0.002445
0.002421
0.002397
0.002349
0.002325
0.000940783
0.002301
0.002277
0.002229
0.002253
0.00222863
0.002205
0.002157
0.002133
0.002109
0.002061
1.32e-05
0.000561824
0.001917
0.001941
0.001893
6.92e-05
0.001869
0.00182063
0.001845
0.001797
0.001821
0.001773
0.001749
0.001725
0.001701
0.001653
0.000252087
0.001629
0.000369345
0.0004812
0.004053
0.000269595
0.004005
0.000906555
0.00138407
0.0001235
0.000348
0.003861
0.003813
1.91888e-05
0.003789
0.00196585
0.003669
0.003693
0.0024715
0.003765
0.003621
0.003573
0.003549
2.65897e-06
0.003597
0.00138178
0.003501
0.003525
0.0005787
0.003453
0.003429
0.003477
0.003405
0.0007127
0.0024833
0.00041105
0.003309
0.003357
0.003381
0.003285
0.003261
0.003213
0.003237
0.003333
0.003141
0.003117
0.001767
0.003093
0.003069
0.003045
0.003021
0.002973
0.002877
0.002925
0.0008
0.002901
0.002853
0.002997
0.002949
0.002805
0.002829
0.0013395
0.004773
0.0010675
0.004821
0.00103481
0.000974829
0.004725
0.004701
0.004677
0.000955
0.004629
0.0030612
0.000874
0.004581
0.0010305
0.004461
0.004485
0.000697606
0.00047735
0.000463
0.00090455
0.000780573
0.00283178
0.000843022
0.004365
0.0026532
0.004317
0.004293
0.004341
0.000577286
0.000450594
0.004269
0.000458739
0.004125
0.004221
0.004101
0.000310118
0.000221845
0.00480955
0.00612835
0.00081705
0.00210555
0.0003382
0.00401816
0.0055227
0.00268085
0.00300705
0.00455535
0.00234055
0.00305785
0.0031985
0.0026567
0.00357805
0.00401035
0.00360535
0.00016155
0.00073585
0.00200835
0.00211105
0.00185655
0.00041755
0.00108062
0.0031427
0.0047585
0.0012867
0.00340325
0.0006747
0.0022722
0.00399105
0.0027082
0.0019552
0.00049935
0.0004827
0.00380353
0.00393057
0.00087305
0.0004552
0.004397
0.006477
0.0024115
0.00567035
0.002058
0.0023077
0.0041195
0.00363085
0.000680254
0.00300635
0.00244635
6.53006e-05
0.00015205
0.00283
0.000185717
0.00104885
0.00344177
0.00506435
0.00524205
0.0027375
0.0027342
0.000600293
0.00450735
0.00119472
0.00129955
0.00132805
0.00361185
0.00363179
0.00502235
0.00437854
0.00290718
0.00245855
0.00222122
0.0009807
0.00676008
0.00165455
0.00414285
0.00445005
0.00324435
0.0036207
0.00289685
0.0008127
0.00674158
0.00107109
0.004571
0.00194367
0.00044755
0.00274385
0.00206517
0.0008342
0.00421435
0.00155455
0.00243017
0.0043377
0.00105159
0.010077
0.00225705
0.0018077
0.00411035
0.00344477
0.0027975
0.00271355
0.00276985
0.00081805
0.00403835
0.00056185
0.00103055
0.0003985
0.00401435
0.00325935
0.00303035
0.00321135
0.000596338
0.00019085
0.000484707
0.00564417
0.000245717
0.0035467
0.0016357
0.00255932
0.000471348
0.002899
0.00376826
0.000520616
0.0012532
0.00299535
0.00374985
0.00163764
0.00563501
0.000231139
0.001444
0.00126385
0.00171375
0.00414355
0.001703
0.000387
0.00151709
0.0021425
0.000789698
0.0027065
0.00153308
0.001332
0.00265935
0.001305
0.000116565
0.000642255
0.00225535
0.000616187
0.00249355
0.00267485
0.0001912
0.00049105
0.00246735
0.0006025
0.0023387
0.001709
0.0005212
0.0012486
0.000967194
0.00068255
0.0027445
0.00291035
0.000219026
0.00220335
0.004857
0.000185
0.008613
0.00070205
0.00204361
0.00208335
0.00167905
0.008421
0.00196335
0.0056415
0.00484458
0.00255035
0.000511588
0.00179535
0.00223824
0.0023255
0.008253
0.00177135
0.0075197
0.008133
0.008109
0.00123255
0.000277057
0.00155535
0.00149228
0.00215355
0.000845
0.00426233
0.007965
0.007941
9.905e-05
0.0020555
0.00061285
0.00099655
0.000461
0.00155185
0.00011855
0.007557
0.00155219
0.000341
0.002413
0.00194434
0.00741262
0.00155972
0.0009817
0.0005152
0.00210615
0.003728
0.000245
0.00366911
0.000221
0.000173
0.00081135
0.00179319
0.00131229
0.002101
0.00110806
0.000614246
3.67952e-05
0.0059727
0.007101
0.00290755
0.002029
0.00195635
0.00057135
0.00171135
0.001933
0.006981
0.00115835
0.006885
0.00136985
0.003116
0.00106235
0.00487511
0.002675
0.00101435
0.00178505
0.00018735
0.001693
0.00091835
0.00262335
0.0007985
0.006597
0.0009035
0.0011995
0.00295305
0.006549
5.8e-05
0.006573
0.0027153
0.000533
0.00273374
0.00107905
0.006453
0.001357
0.006405
0.006381
0.00261705
0.0004672
0.006309
0.0132317
0.004732
0.0084925
0.0042327
0.00531305
0.00549385
0.00853755
0.00546185
0.00071635
0.0045275
0.00359155
0.005278
0.0050045
0.00232335
0.006353
0.0036667
0.0044582
0.00054555
0.0029887
0.000173212
0.00211955
0.005324
0.00634221
0.00066855
0.00619935
0.002608
0.00216905
0.0013842
0.0049447
0.00268012
0.0049192
0.00198985
0.00393785
0.00059799
0.00569105
0.00258505
0.0007012
0.0016302
0.00421
0.00561515
0.00304155
0.00271935
0.0054457
0.0001977
0.0004532
0.0033937
0.00121412
0.0036777
0.0050767
0.00601559
0.0051547
0.00372135
0.00592405
0.00186805
0.00633185
0.00163785
0.00081064
0.00376955
0.00265885
0.0040897
0.00412969
0.00527805
0.00353105
0.0045637
0.00789235
0.00191485
0.00179485
0.00304605
0.00241285
0.004934
0.005169
0.00451535
0.00347105
0.00079085
0.00119255
0.00573385
0.00426705
0.00154755
0.00373085
0.0045385
8.65e-05
0.00053585
0.00622555
0.0002997
0.00294055
0.00382135
0.00161885
0.00193387
0.0059307
0.0002107
0.00532613
0.0052702
0.0008597
0.003219
2.42e-05
0.0058522
0.0025627
0.001336
0.0046892
0.00106159
0.003677
0.00138905
0.0023722
0.00467471
0.00400155
0.002756
0.00498514
0.00354455
0.0021545
0.002581
0.00222366
0.00029385
0.00485535
0.00347635
0.0057645
0.000386066
0.00242055
0.0052797
0.000377572
0.0035972
0.0026932
0.00288685
0.003319
0.0033235
0.00117735
0.00355305
0.00426635
0.00421835
0.00353669
0.0007047
0.00044985
0.0002407
0.0003857
0.0049857
0.0033212
0.0022738
0.0044237
0.00265655
0.0025742
0.000278689
0.0042252
0.00394105
0.0041532
0.00063455
0.00424305
0.0006525
0.00589771
0.0046827
0.0040615
0.00293755
0.0008795
0.0049477
0.0041982
0.0046107
0.00218332
0.0035237
0.0020992
0.00528205
0.00350885
0.00272755
0.00477078
0.00565255
0.00260885
0.0043145
0.00448585
0.000826191
0.0027602
0.00353335
0.00225885
0.00305185
0.0024407
0.00575772
0.00457749
0.00112655
0.00344261
0.00155605
0.00520035
0.0025847
0.0014233
0.00090685
0.00578405
0.0054187
0.0013815
0.0029715
0.0021207
0.004256
0.00248855
0.0018482
0.00121335
0.00612555
0.00036755
0.00678472
0.00452931
0.00034835
0.00238235
0.00213171
0.00124805
0.00653902
0.001319
0.00293135
0.00018205
0.00277705
0.0039242
0.000632613
0.00479055
0.00122855
0.0022967
0.00431235
0.0028252
0.0045575
0.00019355
0.00267985
0.00398785
0.00273571
0.0015092
0.0044607
0.0006707
0.0033992
0.000673008
0.00100015
0.00106135
0.0040562
0.00021505
0.00014605
0.00272818
0.00378421
0.00220775
0.00050735
0.00532
0.00159756
0.0001712
0.0020185
0.0050102
0.00589355
0.0001065
0.00130305
0.00399071
0.0024027
0.00182005
0.00424
0.00228635
0.0045957
0.00064673
0.00280135
0.0051817
0.0039772
0.00279735
0.00465031
0.00479135
0.0046157
0.00554685
0.00224313
0.0033087
0.00140985
0.00459835
2.87075e-05
0.00443674
0.00306185
0.005128
0.0023837
0.00121555
0.007863
0.00047535
0.0026615
0.0026175
0.00369001
0.00311585
0.0061787
0.00158655
0.0027282
0.004903
0.00556609
0.00167785
0.00300105
0.00344535
0.004218
0.0041317
0.0031612
0.00394085
0.00268035
0.0034882
0.00601085
0.0059917
0.0013555
0.00180905
0.00301535
0.0014312
0.007461
0.00458705
0.00186635
0.004574
0.005189
0.00185803
0.008643
0.00355905
0.00326309
0.00050785
0.0044025
0.00312205
0.0014765
0.00083435
0.00301668
0.00185005
0.0066762
0.001294
0.0098397
0.0118617
0.00106393
0.0107472
0.010887
0.00511685
0.0098202
0.0022957
0.0029035
0.000710129
0.00402599
0.0055875
0.00098635
0.0114281
0.0050015
0.0071157
0.0023607
0.00280605
0.00150899
0.0106793
0.0059245
0.00246518
0.0084587
0.00544455
0.00163685
0.0114192
0.00794188
0.00587305
0.0095702
0.00158654
0.010154
0.00714655
0.0094187
0.00898855
0.00790585
0.00495343
0.00309367
0.011028
0.00897435
0.00271237
0.0106003
0.0100711
0.0068297
0.0078442
0.00441348
0.0095712
0.00930042
0.0070827
0.00831993
0.0018512
0.0038722
0.0086609
0.00671689
0.00723471
0.00012206
0.00764335
0.00119322
0.00080885
0.00885155
0.00300785
0.00703127
0.00795128
0.0094017
0.01007
0.0004185
0.00265518
0.00990735
0.00475985
0.00559035
0.00778485
0.00900485
0.00535708
0.0022087
0.010099
0.0033507
0.00990757
0.000582
0.009043
0.0089692
0.00810885
0.009115
0.0048027
0.00163149
0.003819
0.00913805
0.00213725
0.0064827
0.00681985
0.00122985
0.0014821
0.0056402
0.0045135
0.0056027
0.0097265
0.00884385
0.0081977
0.0044947
0.0029092
0.0093662
0.0094502
0.0041397
0.00859197
0.00242118
0.0057592
0.0031097
0.0005625
0.0051097
0.000582
0.00647885
0.0077532
0.00963471
0.00847135
0.0010812
0.00917935
0.00672105
0.004966
0.0070967
0.00641205
0.00533235
0.0077665
0.0059242
0.00129855
0.00257635
0.00585935
0.0027052
0.00287385
0.00785233
0.00757765
0.0006685
0.006666
0.00354443
0.00352105
0.0020312
0.00507805
0.00152056
0.00391805
0.0004427
0.00489935
0.00614271
0.00714712
0.00405
0.0052915
0.00364855
0.00777905
0.0045742
0.00278685
0.0064165
0.00570601
0.00210805
0.007402
0.00693
0.0081687
0.0031002
0.003493
0.00247364
0.00659985
0.0074307
0.00394905
0.00631701
0.0013437
0.0025827
0.00187235
0.0079065
0.00358869
0.0040447
0.00651585
0.00500885
0.00727257
0.00412668
0.00780355
0.00392185
0.006065
0.007979
0.00457655
0.0081577
0.00512299
0.00927785
0.00396635
0.00764255
0.00826985
0.00602872
0.0054247
0.00444535
0.00565221
0.00533685
0.00256635
0.0011712
0.0042685
0.0045382
0.0028527
0.0014905
0.00270635
0.00804335
0.005478
0.0057517
0.00645064
0.00332269
0.00533109
0.0040867
0.0061805
0.00344499
0.0021465
0.0061912
0.00283485
0.0029157
0.0037755
0.00541185
0.004566
0.0011847
0.0035712
0.00882285
0.00442189
0.00472105
0.00625185
0.00748365
0.0059782
0.002337
0.0040462
0.000648013
0.0027962
0.003093
0.00770905
0.00651562
0.00078455
0.00719555
0.00121905
0.00716305
0.00422105
0.0074207
0.0046647
0.00711005
0.00677635
0.0011632
0.00692635
0.0022157
0.00646085
0.00441755
0.00588885
0.0003315
0.00117855
0.000380202
0.0010157
0.00184214
0.00480135
0.00413355
0.00590371
0.00408055
0.00685955
0.00626785
0.00322355
0.00499185
0.0028127
0.00159705
0.0047682
0.0061832
0.00583721
0.00465055
0.00665605
0.00366055
0.00477635
0.00613785
0.00670635
0.00170699
0.0002057
0.0068662
0.0038275
0.00482822
0.0052125
0.00468285
0.0021147
0.00322005
0.00215821
0.00256955
0.00679085
0.00550405
0.0024332
0.000773085
9.055e-05
0.0057805
0.006343
0.0050477
0.00352685
0.0058427
0.0057815
0.0028485
0.004066
0.00455056
0.00065885
0.00492535
0.00189905
0.000651
0.00194635
0.00758605
0.00892855
0.0010322
0.00264605
0.0072572
)


// ************************************************************************* //
