/*--------------------------------*- C++ -*----------------------------------*\
  =========                 |
  \\      /  F ield         | OpenFOAM: The Open Source CFD Toolbox
   \\    /   O peration     | Website:  https://openfoam.org
    \\  /    A nd           | Version:  7
     \\/     M anipulation  |
\*---------------------------------------------------------------------------*/
FoamFile
{
    version     2.0;
    format      ascii;
    class       vectorField;
    location    "0.1275/lagrangian/reactingCloud1";
    object      U;
}
// * * * * * * * * * * * * * * * * * * * * * * * * * * * * * * * * * * * * * //


1153
(
(364.466 8.5662 -1.63158)
(408.979 -8.16108 -3.81817)
(424.307 -1.32497 -4.43939)
(440.966 -0.0269619 -3.41592e-06)
(441.101 -0.0149568 -9.67516e-07)
(431.04 -1.94099 8.26929)
(433.878 0.345204 -0.807324)
(371.003 -0.657038 3.98223)
(440.79 -0.0318927 -1.51282e-06)
(431.999 2.99107 2.66645)
(433.499 2.83542 -5.30702)
(360.866 -1.1277 -1.15116)
(440.792 -0.00361602 -1.52271e-08)
(438.978 -0.241862 -0.123743)
(408.92 1.60016 0.213723)
(440.404 -0.0389524 -2.13597e-06)
(446.439 -9.52203 -8.30338)
(440.392 -0.0357417 -5.33899e-06)
(394.15 2.01439 -0.822768)
(443.399 -11.6173 -3.61389)
(435.189 -6.08336 -5.98053)
(448.86 -13.0303 -32.4696)
(432.821 -8.08571 10.1159)
(439.924 -0.0312519 -8.5366e-06)
(402.985 7.43104 2.59961)
(437.638 -2.44314 -1.29206)
(439.779 -0.00464445 -8.27745e-06)
(434.667 -0.656367 -0.5325)
(356.294 6.90395 9.64356)
(399.555 -0.590693 10.3799)
(434.005 -0.986135 -3.34982)
(426.265 5.33089 -1.36529)
(396.634 9.29693 -19.9297)
(439.712 0.0511677 -4.41406e-05)
(434.356 0.495154 -0.331003)
(435.971 0.233809 4.21315)
(411.247 5.21233 1.29623)
(395.544 -3.94122 7.5321)
(410.764 1.72001 -2.05536)
(410.483 -0.777866 9.92381)
(439.359 0.128154 -0.000137214)
(437.121 -6.4464 6.17067)
(350.686 20.6068 1.52049)
(441.889 -8.45463 -6.17863)
(438.758 0.275671 -2.77019e-05)
(415.04 -3.28142 -10.9639)
(452.699 -16.6165 4.92722)
(371.716 2.65903 7.41437)
(436.723 -0.886742 -2.22963)
(438.834 0.0815308 -7.86016e-06)
(429.393 2.59065 2.28759)
(438.343 0.501852 -1.43468e-05)
(439.512 0.511532 -2.72575)
(438.663 0.169813 -3.8751e-05)
(436.919 -7.55521 -12.0795)
(437.63 0.740274 -0.00024443)
(413.351 -2.22877 -4.26951)
(433.844 -2.01735 -1.5852)
(437.311 0.868557 -5.00629e-06)
(437.295 0.739194 -4.35852e-06)
(437.169 0.726463 -9.33193e-07)
(430.478 1.49574 -0.966156)
(399.525 1.57026 -0.044329)
(404.689 0.815366 -2.41913)
(435.902 1.2769 -1.61266e-05)
(402.631 -1.44392 -0.0587725)
(76.3024 8.4766 -5.5811)
(73.2619 29.3628 -20.6541)
(72.8421 21.2546 -0.243879)
(62.4808 21.1034 -1.91493)
(119.033 17.2893 -0.00161698)
(123.979 14.8726 -0.000810077)
(117.168 23.28 2.39313)
(127.501 14.674 0.00075459)
(117.589 25.8704 -0.00136698)
(117.601 28.6986 -2.55145)
(117.893 30.8655 0.0302815)
(123.651 27.6993 -0.00416118)
(135.128 15.0292 -0.000125506)
(130.798 26.5642 0.000605055)
(135.684 22.3758 6.03655e-05)
(129.961 29.9175 0.293382)
(161.301 22.3794 -0.311392)
(143.698 6.86638 -5.86418e-05)
(144.585 17.8164 -0.000917789)
(146.438 21.4997 -0.000126463)
(148.187 16.8474 -0.000194681)
(148.715 10.3324 -0.000400602)
(151.615 15.7257 -0.00210651)
(154.465 23.0254 -0.00126801)
(156.918 22.0129 -0.00222424)
(158.621 25.424 -0.000876093)
(161.154 20.9606 -0.00381937)
(154.892 6.72831 -0.000386323)
(159.168 11.0294 -0.000549748)
(101.487 -2.42372 -3.15658)
(167.275 18.2818 -0.000621211)
(165.404 11.3825 -0.000284895)
(157.236 1.16521 -0.000223766)
(169.305 10.3646 -0.000496)
(168.78 10.4423 -0.00280138)
(122.725 2.84978 -0.526163)
(165.209 7.07761 0.000238449)
(162.346 4.77937 8.55592e-05)
(97.8453 -1.67505 1.05886)
(162.748 3.72232 5.96644e-05)
(165.599 5.07815 -0.0019016)
(163.238 3.56239 -0.00134716)
(164.419 3.68435 1.77235e-06)
(167.647 3.55578 0.001443)
(166.76 3.24095 0.0007412)
(164.96 2.83315 -0.00070774)
(167.673 1.41719 -0.000463186)
(167.379 1.67549 -0.000657942)
(166.863 1.8014 0.000191914)
(164.28 1.53616 -0.000201014)
(151.644 -0.0578044 0.000105097)
(126.318 -0.168675 -4.4897e-06)
(164.498 1.01475 7.05465e-08)
(166.568 0.80272 -0.000371623)
(140.239 -0.12658 3.58102e-05)
(164.866 1.00083 5.08194e-07)
(165.559 1.0906 -1.66575e-05)
(166.122 0.157238 -0.000260508)
(165.586 0.91857 0.000133573)
(165.773 0.731924 -5.2613e-05)
(165.213 0.713743 -0.000113311)
(165.768 0.5851 -1.52847e-05)
(165.606 0.688946 0.000214469)
(165.785 0.351892 0.000341919)
(165.298 -0.0930507 0.000214907)
(165.437 0.569222 -7.57691e-05)
(142.442 -0.194136 -3.90881e-05)
(165.648 0.406561 0.000506968)
(165.674 0.104338 -1.95313e-05)
(165.605 -0.0355803 1.18959e-06)
(127.98 -0.167812 -4.53256e-05)
(165.55 0.472439 1.19181e-05)
(165.559 0.416397 -1.84867e-06)
(165.604 0.314416 8.93527e-08)
(39.8668 -8.2581 -0.189293)
(17.5083 3.56839 -0.889562)
(116.024 -14.7471 0.000860644)
(111.911 -14.4148 -2.04414e-05)
(128.249 -6.26976 -1.681e-05)
(118.126 -13.0945 4.92183e-05)
(108.912 -13.4203 0.00193181)
(124.532 -7.59329 0.000183246)
(108.198 -12.9576 -4.02462e-05)
(125.118 -6.17912 0.000403237)
(117.632 -9.70728 0.00144266)
(124.995 -2.9292 -3.10485e-07)
(101.666 -10.9494 8.67072e-05)
(108.636 -9.95263 3.16253e-05)
(109.035 -9.40592 0.000805797)
(121.22 -3.94392 9.8912e-06)
(79.9596 -4.73183 0.571076)
(101.711 -8.08802 0.00363185)
(98.1918 -7.4045 0.000292241)
(98.0868 -6.88823 0.000634147)
(118.863 -2.90488 0.00164225)
(116.012 -3.51331 0.000121068)
(78.2378 -2.84356 2.82895)
(99.8461 -4.50853 0.000145846)
(104.538 -3.89763 0.000339539)
(118.546 -1.38062 2.34127e-05)
(109.139 -3.01548 0.00153038)
(103.505 -2.57301 0.000839131)
(102.154 -1.65843 0.00174851)
(103.515 -0.388818 0.000447612)
(100.701 0.747773 0.00102815)
(100.583 1.49831 0.000602025)
(98.1192 3.24321 0.000243819)
(93.8297 1.64319 6.65699)
(84.8272 10.1119 0.116113)
(116.614 4.50256 -7.79877e-05)
(102.044 7.32026 0.00042269)
(121.739 2.57622 4.23098e-05)
(82.9893 -1.18829 11.9805)
(97.9983 11.2134 2.74358e-05)
(115.835 7.91678 -0.000278612)
(112.172 8.47625 0.00127948)
(119.928 6.64028 0.000859346)
(98.0976 13.4072 0.000591672)
(114.629 10.6916 0.00175582)
(115.278 11.2987 -8.23839e-05)
(113.087 13.6497 0.00181016)
(101.197 19.3904 0.00163026)
(113.728 17.4874 0.00126912)
(87.8024 37.5103 -4.9246)
(120.009 15.2024 0.00040424)
(121.281 -42.2329 -2.39666)
(316.457 -14 0.992181)
(350.998 -6.49388 -0.000627973)
(344.749 -10.6577 -0.408051)
(350.234 -4.33513 0.000511336)
(332.037 -21.7623 -6.26314)
(320.179 -29.4495 7.31142)
(329.906 -22.3169 5.45413)
(48.1779 -13.4346 -0.103005)
(315.734 -7.73939 0.00016688)
(293.442 -16.3624 -0.000603766)
(275.313 -53.1494 2.05949)
(281.305 -22.0388 -0.00333892)
(239.828 -57.4192 0.532837)
(260.924 -4.91033 -2.89199e-05)
(256.987 -18.7708 0.000636509)
(218.912 -55.3143 1.77817)
(219.728 -44.0799 0.000899785)
(239.672 -14.7246 -1.63574e-05)
(224.097 -17.9068 0.000164449)
(224.473 -9.25461 1.19572e-05)
(189.434 -40.7672 -6.19467)
(213.686 -28.6431 0.000667984)
(153.158 -36.3011 0.618842)
(215.073 -5.53829 9.28455e-05)
(202.623 -25.0148 0.000430487)
(85.7188 -18.7176 3.82326)
(203.255 -9.27985 -2.60176e-06)
(199.37 -4.1257 -4.40482e-05)
(185.199 -28.1301 0.00127767)
(179.427 -22.9335 6.98406e-06)
(148.482 -42.068 0.0884704)
(191.869 -52.5051 -1.0671)
(148.748 -39.1599 5.42283)
(169.622 -18.4764 0.0017492)
(160.501 -27.8274 -2.54259e-05)
(158.021 -29.8493 0.000163849)
(166.28 -18.507 0.000525252)
(166.256 -15.5498 0.000629586)
(165.791 -8.11586 0.000565354)
(152.75 -22.5113 0.000208378)
(139.255 -30.3953 0.00308047)
(144.2 -20.3023 0.000966219)
(146.834 -17.0503 -2.19211e-05)
(145.127 -40.3254 -7.88978)
(142.261 -18.4471 -2.36332e-05)
(142.96 -16.1117 0.00150609)
(143.24 -14.3842 -2.74051e-05)
(131.715 -19.2676 -0.000188683)
(135.324 -15.2389 -6.99195e-05)
(137.405 -6.50249 -1.19842e-05)
(132.85 -14.0727 -1.79745e-05)
(112.572 -23.5033 -0.873915)
(134.153 -11.6118 0.00100472)
(131.981 -10.9209 -3.1405e-05)
(118.797 -20.0904 0.000203314)
(119.295 -18.9327 0.00145143)
(131.269 -8.5156 -3.62114e-05)
(126.475 -13.116 0.000294007)
(347.24 19.6127 12.069)
(434.281 0.541857 -5.84678e-06)
(423.077 -0.171345 3.18555)
(432.389 1.63631 -3.24624e-05)
(431.429 -1.91706 4.21135)
(432.408 2.10431 2.36737)
(431.447 1.20347 -2.39946e-07)
(431.229 1.03671 -1.03384e-06)
(430.596 0.905074 -1.54439e-06)
(425.465 2.61206 -0.531685)
(428.85 0.757486 7.0749e-05)
(418.04 -6.86521 0.233546)
(420.619 -1.14852 -4.46738)
(422.305 1.03509 0.000568943)
(413.076 1.89142 -2.00332)
(419.855 0.222577 4.94731e-06)
(418.495 0.42601 0.00051058)
(410.861 1.35137 2.55713)
(413.541 -1.40807 1.88437)
(413.63 0.235531 -0.799681)
(389.837 1.85014 0.186751)
(394.573 1.52672 4.66898)
(436.11 -13.4513 -6.71712)
(372.941 -1.00833 -0.502694)
(404.516 -0.658694 -3.78828e-05)
(400.074 -15.2825 13.9246)
(403.057 -0.54439 0.0002336)
(404.177 -0.229377 -6.30453e-06)
(401.64 -0.884415 -6.85883e-05)
(400.036 -2.01337 1.35512)
(397.977 2.24989 2.38429)
(393.812 -1.13658 0.000586307)
(364.74 -1.80002 1.44521)
(382.594 -0.000493553 4.17166e-06)
(378.273 -3.35571 0.000827304)
(372.938 -1.39774 0.00025951)
(361.893 -4.23265 -1.27924)
(358.823 11.5543 1.23878)
(322.518 2.3349 -9.8197)
(274.324 31.1182 -7.58589)
(367.589 -27.0534 7.95669)
(340.809 17.8451 13.142)
(389.807 -7.82023 6.83683)
(342.22 -1.0542 -1.45901)
(328.872 15.8541 3.59907)
(357.507 13.0843 -3.37732)
(341.559 -0.0124897 -0.390698)
(347.773 9.18721 -0.518492)
(359.368 -2.15017 2.03682)
(377.142 8.54661 -0.808527)
(321.241 6.55733 -5.60015)
(396.961 -1.75256 0.258687)
(350.139 -9.11366 -5.18169)
(357.77 7.84079 9.13541)
(384.55 2.1638 -10.1261)
(387.151 5.05964 -3.27708)
(415.625 -2.77701 11.421)
(421.192 0.254183 14.6175)
(377.343 2.01972 -1.95497)
(394.48 9.68004 9.61285)
(441.385 0.760143 -0.0813949)
(446.3 2.97008 -0.748642)
(415.329 -4.71319 -17.0023)
(437.994 -3.81103 -1.50458)
(432.405 -1.33438 -1.3671)
(437.07 -0.13378 -0.02024)
(424.164 -12.0706 14.7253)
(443.205 0.00116868 -0.0531857)
(421.652 -1.1102 0.502342)
(423.395 -1.22642 -1.63568)
(412.297 -1.75844 4.31323)
(389.892 -0.975625 -1.02577)
(436.985 -0.216322 -0.0221411)
(435.775 -0.109319 0.880085)
(453.246 -8.92828 -6.63207)
(443.903 -0.675991 -1.39569)
(401.76 -0.171572 -0.693662)
(433.464 -0.382968 0.0292834)
(439.403 -5.68758 -0.662531)
(432.236 3.78077 -2.47237)
(441.311 -5.54467 2.82799)
(411.16 1.41894 -8.62214)
(401.527 -4.93223 11.4671)
(431.068 -6.51189 5.14954)
(397.727 -0.433004 -0.711218)
(442.128 -0.0328462 -0.0976918)
(409.395 2.18514 2.18124)
(382.782 1.6679 1.74988)
(433.598 -1.45083 1.20949)
(360.642 0.733029 -4.34137)
(442.536 -3.3824 -0.154537)
(439.878 0.0281387 0.904599)
(343.776 -0.0978745 2.88178)
(438.296 -3.01351 3.55057)
(352.379 9.3112 20.9738)
(323.527 8.32883 -21.187)
(442.198 -3.31237 -2.1133)
(404.737 -0.312381 0.717057)
(443.64 -4.59124 7.20914)
(434.887 -1.56213 3.20576)
(453.238 0.0028002 0.0855853)
(399.442 9.94741 3.4568)
(367.333 -0.949894 14.0574)
(379.007 0.604009 -3.90673)
(437.404 -0.548484 -0.142138)
(438.395 -5.64484 4.33842)
(440.636 -19.1859 -1.68431)
(415.85 7.50765 3.15057)
(404.298 0.651487 -1.0264)
(433.957 4.87316 1.22758)
(443.745 4.90986 6.98363)
(456.162 -10.2631 -7.45608)
(427.34 0.147006 1.32907)
(436.284 -14.2425 10.2318)
(320.818 19.1141 15.2867)
(409.611 -3.73504 -1.42831)
(424.142 -8.18009 10.4702)
(408.148 -15.0256 10.1116)
(440.949 -0.675083 -2.66764)
(439.254 -6.6486 -3.49881)
(443 0.00214438 -0.00495203)
(416.293 -6.91755 7.76725)
(441.501 -1.35707 -5.09624)
(402.084 2 -1.31831)
(429.794 -2.66545 12.4751)
(443.92 -7.33435 1.56285)
(428.047 -1.02343 10.1979)
(439.188 -13.0781 -4.21486)
(320.286 14.4893 1.86275)
(441.071 -1.25242 -1.28018)
(429.291 -19.2993 26.6462)
(434.792 0.466982 1.45088)
(442.995 -0.0604326 7.29636e-06)
(417.482 -1.89474 -5.6147)
(407.06 -2.03268 -6.00356)
(442.206 -1.97251 0.296087)
(435.519 -14.9272 -6.96122)
(446.845 -9.25214 3.48805)
(363.875 14.8963 6.10547)
(438.908 -7.90845 4.31579)
(433.78 -4.91636 -22.5578)
(431.36 -0.00946588 -0.44514)
(412.942 -3.88038 -15.7613)
(379.86 -5.68252 -1.17111)
(350.216 -1.64228 2.47336)
(432.849 -3.35267 1.1144)
(434.819 -0.210501 -3.64765)
(393.003 0.280134 -0.167798)
(440.756 -1.80427 1.46203)
(437.156 -2.51965 3.4228)
(406.147 -2.70718 -1.83306)
(442.612 0.000876522 -0.0273856)
(442.425 -4.95855 -0.220976)
(444.112 1.2264 -1.39495)
(341.853 12.8981 -4.54674)
(375.028 1.00675 4.76188)
(423.71 -1.36925 6.28684)
(442.182 -0.198752 -0.587826)
(400.948 2.77833 5.68013)
(334.365 20.4859 -6.78098)
(428.406 1.54237 10.332)
(404.906 -4.20154 -2.74213)
(439.258 -0.842535 0.191682)
(351.561 12.3007 -3.31034)
(436.947 -1.39112 3.0207)
(444.338 -7.66893 4.26773)
(376.444 -3.3131 4.63401)
(414.663 -10.5944 2.50705)
(390.236 4.3434 -4.89179)
(414.985 2.90163 8.46118)
(350.808 11.0312 -3.42781)
(418.912 7.26866 -5.60786)
(428.466 0.0540823 -2.56422)
(433.25 0.0153301 0.905225)
(436.864 1.54261 6.3903)
(444.399 6.671 -5.21468)
(351.685 10.8611 -2.90903)
(438.108 4.3735 -0.705359)
(443.7 -0.168076 -0.337221)
(439.526 -0.139909 -0.00376199)
(446.549 -0.505521 -0.686864)
(430.044 -3.60282 3.385)
(440.262 -0.803216 -1.13508)
(377.885 3.01828 -0.759452)
(443.794 1.37646 -2.06419)
(410.103 1.95322 -0.459423)
(387.809 4.04008 -8.94923)
(403.988 3.20273 2.61254)
(430.041 -2.10812 5.80965)
(436.509 0.909454 1.05831)
(435.959 0.400621 2.97149)
(422.188 -0.296298 0.0681315)
(440.366 -0.145903 0.00307772)
(390.599 3.16768 -1.12099)
(436.403 -5.90699 -2.59084)
(443.097 -1.5171 -1.52704)
(384.434 -0.722821 -1.20437)
(447.499 -10.9891 -1.40929)
(441.928 -1.77491 3.17808)
(442.467 -0.690816 1.90854)
(426.818 6.21197 0.536541)
(447.474 -7.77646 1.70097)
(441.175 -1.57924 4.94816)
(442.604 0.00666796 -2.08877e-05)
(420.89 -1.282 -1.01425)
(418.717 -13.4329 -0.747714)
(441.022 -0.186872 -0.331647)
(401.132 2.81235 -0.408791)
(442.729 0.00605914 -1.45215e-05)
(438.787 0.634251 1.94204)
(447.738 -8.72317 3.30415)
(422.441 -12.0018 -0.672446)
(435.469 1.6603 -3.50417)
(441.304 -0.0530877 0.351422)
(430.789 -2.46415 -3.9397)
(401.435 1.47893 -2.97889)
(410.929 0.755092 0.208304)
(442.301 -0.0151895 -2.23574e-05)
(441.068 -0.348566 -0.180365)
(444.225 -14.5986 -14.8369)
(442.617 0.00315207 -2.4183e-06)
(442.581 0.00341108 -3.29085e-06)
(397.21 1.31085 9.85253)
(442.313 -0.992393 -0.226995)
(440.348 5.47552 -4.49133)
(420.981 2.53921 -3.75071)
(382.749 -1.43555 0.212066)
(440.298 4.24262 1.18538)
(439.426 -6.39088 1.54492)
(442.343 -0.00486822 -2.99322e-05)
(442.558 0.00735789 -3.7141e-06)
(442.361 -3.89969 3.07474)
(388.06 6.83238 -3.95914)
(407.831 -3.37476 2.43376)
(393.096 5.86518 0.59068)
(444.684 -2.90178 -3.37408)
(380.071 0.635532 18.9671)
(433.961 14.407 5.43536)
(442.049 -0.00416074 -2.81208e-05)
(425.666 -1.00417 0.119784)
(439.451 -1.14553 1.80041)
(436.418 1.44827 -1.11174)
(425.377 -4.16387 -2.05237)
(442.147 0.000680063 -1.1509e-06)
(416.672 1.17643 -7.36791)
(403.168 -0.546385 0.00950638)
(407.315 -0.334464 -3.49637)
(355.514 12.9384 12.5097)
(434.14 -15.0798 7.6436)
(444.083 -0.712182 3.01824)
(431.468 -3.75917 5.06883)
(441.175 2.78584 1.59994)
(446.838 -0.321915 0.764754)
(441.066 -0.200799 -0.0633948)
(452.784 -11.2578 5.06858)
(421.66 -0.0782876 -0.0804263)
(439.194 0.680881 0.221818)
(427.142 -1.93838 0.0692043)
(430.208 -15.0131 7.51624)
(433.412 0.571235 9.05435)
(446.562 -16.4152 -2.41857)
(441.857 0.00656555 4.25408e-07)
(443.052 -3.34188 -3.71792)
(437.244 -1.36595 1.51632)
(412.483 -0.298374 1.46832)
(442.658 0.365015 0.293244)
(411.114 1.46542 -1.51221)
(442.105 -5.67064 -3.6838)
(441.347 -0.0145379 -1.69334e-06)
(437.134 -3.9816 8.04601)
(441.96 0.00392662 -4.30845e-07)
(419.396 -1.40668 3.39617)
(435.852 -2.44641 7.13516)
(440.289 0.0179152 -0.101044)
(435.953 -6.60022 8.06248)
(437.013 -10.1007 1.83939)
(446.687 5.28117 -1.82626)
(379.399 6.12894 4.07997)
(401.229 -0.533969 0.198798)
(424.25 9.95143 7.59275)
(437.661 1.21318 0.547629)
(358.637 6.55849 -4.71053)
(424.395 -1.35865 5.34355)
(441.635 -5.54352e-05 -7.53369e-07)
(416.6 -6.77277 -2.52617)
(393.583 7.8972 7.87725)
(433.204 -4.4382 2.36487)
(441.543 -0.00312461 -5.05495e-07)
(431.167 3.48821 1.4672)
(441.098 -0.0361217 1.52652e-05)
(441.078 -0.0293901 -2.45449)
(425.791 4.68082 -1.31421)
(458.135 -16.0711 0.922439)
(401.553 -2.01799 0.150355)
(440.78 -0.0508389 -1.17435e-05)
(441.677 0.80218 2.11301)
(440.935 -0.036278 -3.44848e-05)
(440.692 -0.0476679 -5.9782e-07)
(443.267 -4.06421 -2.2211)
(400.055 -2.43744 -3.41377)
(441.13 -0.0171612 -1.02353e-06)
(251 41.8302 0.880391)
(265.755 17.1085 11.1087)
(249.065 39.645 0.834447)
(266.208 23.2119 -11.3484)
(266.446 25.9747 -12.751)
(265.928 7.24774 27.6509)
(281.636 15.6679 1.11862)
(278.725 29.1675 4.10335)
(371.649 8.51554 -8.36083)
(312.777 21.422 20.1156)
(360.335 -0.821781 -1.3331)
(333.407 -11.9587 13.3998)
(365.997 -0.637895 -2.90129)
(342.382 12.8293 -18.8089)
(360.029 1.60651 -1.85439)
(376.274 -0.769024 -0.284695)
(337.455 11.4239 -6.31611)
(375.702 -7.39456 -5.21138)
(386.348 -1.06564 -1.03212)
(385.675 4.66138 17.4092)
(391.065 -0.838055 2.55244)
(369.8 -1.57084 0.650539)
(391.568 0.605801 1.90296)
(354.511 -2.30911 0.575429)
(341.463 -4.52726 3.433)
(364.177 2.75009 -1.34673)
(378.691 -2.9159 -8.29562)
(346.432 11.3003 12.9816)
(386.307 0.000222741 0.0318839)
(399.329 0.0015372 -0.0980632)
(265.394 32.7792 -10.947)
(376.408 -1.44295 1.64038)
(347.154 12.7093 4.22232)
(393.265 0.0241109 -1.16014)
(385.613 -1.06002 -0.221387)
(353.029 6.80828 0.0465834)
(383.491 0.866997 -0.22092)
(378.455 0.406314 -22.6855)
(394.395 0.668581 12.3185)
(394.619 0.000192102 -0.00693071)
(351.261 4.32377 -14.0927)
(387.519 0.884641 -0.500193)
(392.504 -0.105455 0.230813)
(390.327 4.39421 -1.02831)
(322.471 15.7222 -4.18799)
(344.967 1.25663 0.617737)
(397.785 0.000200082 -0.00640059)
(384.751 -1.9135 -6.76279)
(383.332 7.09897 -2.33995)
(397.851 0.0420147 -0.158363)
(352.304 6.95386 -2.89071)
(384.363 -1.52097 14.5894)
(359.706 -15.267 -6.66145)
(377.952 16.211 -0.957578)
(359.592 -12.3333 -1.69834)
(401.817 16.9421 6.03869)
(398.76 0.0236853 -8.3295)
(402.064 0.000938537 -0.0419055)
(388.751 -1.72884 -3.36284)
(347.917 12.5356 11.9194)
(402.392 0.85702 2.11432)
(336.029 1.27249 0.703568)
(313.309 -2.53612 -2.29867)
(388.263 1.9294 -1.63089)
(306.956 17.9951 -17.1547)
(388.346 -3.15294 5.21054)
(370.66 30.5763 25.6136)
(381.51 -0.269234 11.0846)
(376.517 5.54551 8.00923)
(344.774 3.68773 -1.59303)
(392.509 0.0513371 -9.37466)
(405.03 0.643436 0.188744)
(322.624 -2.01489 2.33533)
(315.372 -3.91894 -1.87976)
(397.626 -10.269 13.0376)
(337.444 12.8638 10.1218)
(373.921 2.61148 -2.40984)
(408.756 8.50391 -1.73375)
(402.871 -9.21435 -4.32817)
(408.132 0.888515 -1.45347)
(404.733 1.90336 4.63717)
(407.403 0.0737984 0.803184)
(292.988 5.96959 -2.5427)
(386.025 2.4815 2.41075)
(367.278 15.057 4.00594)
(327.107 -0.214354 4.99241)
(409.291 0.0752995 0.0539123)
(414.443 0.00346087 -0.111589)
(355.314 10.1191 -6.72186)
(331.255 -3.58255 -12.5708)
(408.422 -2.7365 -9.25566)
(406.488 -0.0222492 0.77472)
(378.968 5.12775 7.34158)
(406.012 -1.53037 4.8777)
(401.594 -2.6283 -8.18405)
(291.605 14.9091 -16.8944)
(404.115 6.02579 -1.13521)
(412.396 0.00223399 0.0896961)
(368.254 -3.94108 6.98581)
(408.355 14.4928 -5.36893)
(408.89 -2.28929 9.40941)
(359.906 -2.23286 -2.38711)
(412.551 -12.5828 -5.10391)
(412.126 -0.457007 0.553866)
(390.956 -10.068 -9.87746)
(416.522 -13.6015 1.58502)
(411.128 -0.799052 -0.131012)
(391.307 0.63708 -0.162726)
(415.801 0.00763937 0.0163042)
(412.21 -0.173951 0.0695069)
(413.901 0.000941997 0.0298601)
(416.042 -2.66883 -2.89179)
(359.031 5.0309 -5.95329)
(402.705 0.4251 -3.56963)
(414.568 0.753938 -0.736764)
(418.662 0.0616331 -0.00712453)
(375.112 0.986658 2.15598)
(338.056 5.90443 6.6301)
(417.854 3.60457 -0.677651)
(370.865 -5.09945 -5.79117)
(361.716 10.424 -5.67436)
(425.574 0.199713 -11.6868)
(414.231 0.235268 0.986153)
(417.601 0.000507977 -0.0126441)
(421.201 2.32441 -10.9923)
(365.69 2.37658 -1.46542)
(355.821 14.2387 10.7607)
(404.519 -1.28462 0.131877)
(429.882 -5.38678 4.75697)
(420.277 -3.89471 -15.4671)
(363.624 6.18087 -12.8561)
(394.913 -0.419607 0.131857)
(384.39 -2.44328 12.6558)
(327.737 5.94403 -17.4194)
(419.435 -2.65151 -1.87803)
(374.673 6.8982 -18.9468)
(402.993 -4.66371 5.10049)
(380.688 0.251598 -3.51613)
(393.897 -2.53388 -3.916)
(417.883 8.6628 -5.14927)
(418.874 -9.01877 7.07998)
(393.102 -0.440748 12.0911)
(402.865 -7.71288 8.81155)
(427.387 -15.973 5.94861)
(386.248 -1.65097 0.591177)
(401.079 4.34401 8.61824)
(424.85 1.45936 -1.59798)
(357.933 9.0825 9.43643)
(403.692 0.263859 0.431241)
(425.602 -8.57857 12.8449)
(405.614 -0.669461 -0.0505306)
(376.735 1.10248 0.696403)
(322.251 10.9952 6.28042)
(379.279 3.37997 16.2719)
(426.618 4.6148 10.778)
(373.903 -4.3943 0.640851)
(384.109 9.8875 -4.05796)
(428.048 -0.240729 9.75709)
(396.234 -0.868445 -2.35371)
(416.375 -13.5936 -2.73744)
(395.455 -3.82222 -5.88962)
(436.979 -5.44514 8.3186)
(341.668 0.665497 2.83426)
(429.131 1.60138 -2.5876)
(427.971 0.623735 -0.877741)
(425.46 0.000584238 -0.0188811)
(370.931 25.7845 -6.4159)
(393.131 3.87709 -17.5951)
(391.536 -25.9166 -13.0034)
(333.781 1.71569 2.45113)
(301.116 5.50451 -0.19025)
(429.186 0.0445939 -0.157792)
(410.062 8.4557 1.29554)
(363.782 -12.0269 -6.61786)
(425.035 0.000225914 -0.0249828)
(421.535 -4.97748 -3.67199)
(426.473 -7.75727 -0.886619)
(343.829 5.44642 0.635863)
(435.052 0.0012436 0.0494066)
(309.829 -7.77578 9.73427)
(418.167 -11.0104 3.50077)
(349.275 -7.05653 4.41702)
(431.22 0.000154487 0.00757307)
(415.274 -2.86261 3.69258)
(400.97 4.13959 9.65754)
(434.049 1.44894 3.5924)
(364.878 3.12524 -17.8086)
(432.669 -1.11095 3.03145)
(422.998 -0.219112 -0.563744)
(435.528 -11.7218 1.40264)
(406.962 1.76911 2.31237)
(433.448 0.000275317 0.0122253)
(432.816 -5.78115 2.88854)
(426.617 0.633216 -0.990147)
(406.515 -0.456101 0.208352)
(431.943 0.000650395 -0.036057)
(391.998 -3.08003 6.68696)
(435.979 0.607495 0.93435)
(409.19 -11.4204 -5.80758)
(383.764 -1.08213 0.109717)
(409.652 12.179 1.04958)
(380.894 -17.7463 -2.24721)
(404.358 2.13739 -6.96484)
(437.004 -7.31566 4.08071)
(393.803 -0.144628 2.65399)
(422.459 -3.55113 2.50938)
(438.085 0.0923632 0.776482)
(421.464 -4.35216 3.17313)
(438.527 0.00161566 -0.0541089)
(417.081 -0.463426 0.203101)
(414.844 11.1352 2.7811)
(387.406 1.13334 0.304958)
(311.907 7.35428 -2.7725)
(435.984 0.000231453 0.0134296)
(400.222 -1.15463 -0.636991)
(435.421 -1.1647 -1.58675)
(440.089 1.76259 1.46402)
(390.289 2.57964 -1.31495)
(437.838 -0.000948147 -0.0910852)
(432.669 0.00173104 0.110275)
(431.761 3.31773 -1.21102)
(392.023 -1.10596 0.863642)
(359.757 -6.05473 15.8598)
(403.906 -14.633 3.05823)
(421.721 -1.72564 3.75047)
(442.845 3.31497 -5.02519)
(406.194 5.75292 3.80899)
(439.569 8.36441 3.66086)
(438.316 -5.32393 -2.16283)
(440.641 0.000400949 -0.0183014)
(433.344 -0.622651 -0.511779)
(439.623 -0.004781 0.00432858)
(377.029 8.97867 7.48092)
(293.058 16.4301 -21.61)
(361.193 -22.7925 -1.23696)
(378.044 -0.0657731 2.13999)
(441.84 0.245962 -4.32645)
(415.087 0.639414 0.303725)
(439.827 0.0547623 -0.00776835)
(437.407 -2.7732 -1.83494)
(413.452 -5.48629 -2.66921)
(378.545 5.2874 -6.51501)
(441.324 -0.139131 -0.026826)
(385.499 0.0246912 -2.84795)
(301.569 6.88661 4.07425)
(391.983 -14.3658 18.9603)
(429.077 -0.557375 0.627583)
(419.044 3.80181 -1.67238)
(425.28 -2.14074 0.451214)
(420.586 -5.97004 -2.39129)
(344.076 -2.80677 -12.6171)
(450.861 -8.0541 3.59932)
(436.746 -2.38922 2.18141)
(423.493 -8.6658 -8.34935)
(438.481 -6.98483 -6.09666)
(440.998 -1.20985 -3.29914)
(437.624 -1.99684 1.13454)
(418.497 -5.22073 1.21206)
(306.145 6.20656 6.81737)
(344.25 10.6895 -5.9309)
(419.188 8.94533 -19.6143)
(436.977 -9.51118 -4.24015)
(396.983 -1.6297 -2.44719)
(421.291 0.927639 -2.07741)
(432.045 7.60638 7.30268)
(437.591 -1.77117 1.35838)
(405.983 -4.40111 -8.47822)
(428.24 -8.23953 -4.40737)
(365.612 10.6386 -3.65022)
(402.002 2.55704 -5.93855)
(430.439 -1.09551 -3.06387)
(334.479 1.32495 3.58953)
(441.487 0.0307246 -0.0788061)
(419.676 -2.38761 -3.2042)
(397.176 -0.0309203 -0.86369)
(422.204 3.64015 -0.819779)
(412.399 -3.42672 32.603)
(321.755 26.3897 -8.88077)
(412.174 -5.78787 5.98256)
(412.423 1.53418 -1.49325)
(386.201 5.69908 -8.36965)
(313.415 1.70656 -0.503155)
(324.624 9.48028 -4.81606)
(440.99 0.00376556 -0.153582)
(439.653 -0.675647 0.0678535)
(420.343 -0.0935343 -0.287213)
(425.926 -4.9733 -1.93051)
(435.814 -5.88697 1.90527)
(434.599 -1.089 1.86579)
(419.783 0.648975 3.12193)
(431.831 0.180722 -0.436699)
(444.297 -8.27199 -8.82274)
(441.538 0.188832 -0.0481682)
(440.951 -7.39438 -3.10459)
(354.702 13.7666 -4.38528)
(440.701 0.000379953 -0.0118862)
(360.245 -4.69312 -5.38162)
(433.015 0.0260834 -7.61687)
(343.612 13.3704 -3.61692)
(361.634 1.98896 1.05137)
(375.718 -8.53378 -4.01045)
(438.696 0.0373432 -0.113355)
(439.235 -3.05501 6.48078)
(297.779 7.75597 -36.1759)
(338.017 29.6277 -13.2734)
(323.261 13.5418 3.58129)
(338.76 0.000200549 -0.016882)
(319.781 0.00168173 0.137189)
(316.792 12.3069 2.94373)
(340.617 0.763499 -7.93657)
(324.297 10.1461 25.7048)
(339.935 1.78272 1.50328)
(274.12 4.67756 -36.3082)
(370.723 7.51616 -12.3206)
(365.258 0.223518 -0.415622)
(339.801 0.000422731 -0.0327648)
(331.748 8.46252 20.5068)
(276.678 2.52726 0.187168)
(340.022 0.000342452 -0.0336695)
(328.343 0.00843159 0.0611267)
(334.856 2.42696 2.72112)
(322.778 -14.9393 14.8753)
(345.993 0.00281899 6.89598)
(347.367 0.3181 0.239586)
(336.571 4.6573 7.6079)
(320.956 7.7456 -9.98112)
(353.49 10.2189 10.0579)
(327.094 10.4595 2.55081)
(343.288 -3.03395 -3.93099)
(338.231 -2.13785 5.68294)
(338.756 1.19241 9.13995)
(335.774 4.53283 0.411086)
(343.352 7.6266 8.03392)
(305.038 12.7876 5.04343)
(340.085 0.140746 1.91629)
(322.314 10.9963 -6.07592)
(300.98 26.8151 -26.1117)
(324.917 0.0346029 0.073345)
(342.554 -0.137051 -0.0598736)
(285.457 13.1716 -2.70813)
(345.418 0.592394 2.13898)
(347.483 -0.00193556 0.082165)
(343.207 7.32034 5.31423)
(340.762 -4.78276 6.75974)
(365.759 0.00481354 0.0933081)
(341.413 10.1881 -5.54298)
(326.653 7.5589 3.18896)
(294.307 -0.000484154 0.0630442)
(343.374 8.88256 13.0577)
(310.009 13.0162 -22.5691)
(311.674 13.4713 -5.20571)
(338.104 6.50405 1.08101)
(350.615 0.268375 -10.7816)
(340.236 0.258102 7.67503)
(332.186 -12.0841 -26.6568)
(287.393 24.432 15.657)
(369.899 0.182872 1.02215)
(340.946 2.47036 1.79269)
(330.024 15.634 -3.02028)
(336.566 19.6143 -7.51664)
(309.533 16.6202 1.21778)
(335.345 12.7474 5.29322)
(342.477 11.7807 -7.47675)
(324.201 10.2119 -7.08929)
(335.611 0.0352404 -0.0126493)
(352.625 0.00292481 0.0384483)
(345.554 0.47288 2.124)
(333.932 1.11536 -1.48759)
(346.532 -8.24041e-05 0.0143339)
(356.142 9.48903 -6.3391)
(347.398 18.3243 4.34968)
(295.826 2.5392 0.192114)
(340.052 3.65311 -6.52952)
(343.395 0.653739 0.885056)
(299.236 9.25139 -7.70423)
(320.153 3.84602 9.79886)
(352.783 -0.00072175 -0.0362762)
(315.793 0.472497 11.5247)
(301.137 17.8524 -7.9623)
(350.359 0.00073661 0.0646527)
(345.414 2.54506 -5.88267)
(347.457 2.30041 2.00641)
(343.998 -3.44993 0.517436)
(347.068 -6.71231 -9.89277)
(320.304 3.29482 11.1993)
(351.326 1.79392 -2.3573)
(357.234 3.56737 7.34468)
(331.533 0.00231628 0.0888567)
(356.412 -0.00770059 0.0540844)
(319.768 8.5013 -14.8003)
(346.506 0.00278473 -0.161806)
(332.553 12.3621 31.433)
(343.305 5.08022 -5.14725)
(340.343 -10.0683 7.05249)
(345.967 -0.00911438 0.263773)
(344.168 6.57928 -7.31594)
(353.487 7.22961 -8.18299)
(350.49 0.671237 3.55372)
(305.05 8.27288 6.34597)
(329.25 3.56476 4.44678)
(339.072 -0.580759 -6.1776)
(344.592 -5.80714 0.660536)
(325.063 -13.5479 -3.6113)
(351.653 0.000204338 -0.0552455)
(348.833 -0.058019 -0.208185)
(355.354 4.05685 -23.1057)
(356.024 0.806274 -0.796396)
(382.012 18.9417 -10.238)
(326.301 9.1507 5.93962)
(339.954 2.62605 20.8461)
(340.27 9.09242 6.92544)
(351.413 4.36723 -11.5051)
(346.184 0.580002 2.6627)
(326.311 4.88045 4.99705)
(351.419 2.98605 -0.473887)
(355.82 1.38467 -2.07458)
(355.152 2.37928 0.249617)
(353.423 -7.42666 9.56091)
(337.607 0.443418 0.542711)
(341.275 4.72302 -11.7717)
(349.107 0.673301 -1.18025)
(357.748 -1.20928 4.84486)
(353.842 -0.548748 0.225577)
(349.902 -7.62226 6.37656)
(322.331 -3.97712 24.059)
(364.042 -15.7584 -38.2072)
(316.203 7.94461 -0.119141)
(352.862 2.91266 1.63649)
(349.272 -5.07761 -23.076)
(332.179 6.38213 -2.81343)
(360.314 16.8793 12.1241)
(355.902 -0.0376936 -0.0114946)
(351.298 5.76467 1.34258)
(364.627 17.4517 4.55869)
(357.382 2.58349 -3.01979)
(351.657 0.000124661 0.070656)
(371.27 -3.34813 -6.18196)
(357.727 -0.602846 1.63101)
(330.632 13.3022 -18.0916)
(344.704 -0.00273242 -0.385618)
(326.415 18.6548 -39.1049)
(361.003 -15.6421 7.18742)
(322.869 18.0631 -4.87256)
(338.415 14.7504 -17.4372)
(362.186 -0.00361686 0.0847619)
(348.821 -0.0388393 -0.290416)
(306.372 15.1641 8.7321)
(354.643 -4.15533 17.4428)
(314.735 3.11363 1.07475)
(345.782 4.96266 -9.51308)
(361.462 1.14759 -12.5113)
(358.374 0.664802 -3.77165)
(359.367 6.10973 -18.7069)
(344.143 -12.766 -18.4734)
(358.938 0.622663 -1.10421)
(348.67 5.02417 1.89623)
(352.745 2.47813 -3.04681)
(344.05 -10.0079 -0.964716)
(351.045 7.05247 -4.13995)
(326.333 6.75241 10.7685)
(346.795 -1.77299 -1.25482)
(353.766 0.581329 -7.3181)
(301.58 -0.705153 21.1439)
(359.277 -0.00168898 -0.0452342)
(340.687 17.5377 -9.66815)
(328.02 15.0828 -19.6395)
(361.057 1.76177 -5.86807)
(330.004 1.66726 -7.43941)
(361.728 0.0998595 -0.0466543)
(351.874 3.0898 1.39395)
(353.003 9.86992 29.5128)
(363.445 -5.35099 0.839932)
(350.786 4.171 10.1557)
(360.682 0.555684 -0.147894)
(382.141 -4.30745 16.2687)
(365.613 -1.82254 -2.83844)
(358.349 0.348825 -1.54931)
(362.872 7.9795e-05 -0.0192259)
(349.171 -2.55743 7.95902)
(342.204 -5.68784 -7.52577)
(366.199 0.262722 12.6898)
(316.068 4.24882 -9.04467)
(360.76 -1.98154 10.2644)
(361.238 -0.202059 -0.294971)
(353.227 2.58478 -0.902882)
(362.276 1.93346 -1.6577)
(366.243 1.60459 -2.19396)
(344.176 -3.73725 4.06434)
(354.046 1.75058 0.714841)
(366.694 4.44648 -7.08159)