/*--------------------------------*- C++ -*----------------------------------*\
  =========                 |
  \\      /  F ield         | OpenFOAM: The Open Source CFD Toolbox
   \\    /   O peration     | Website:  https://openfoam.org
    \\  /    A nd           | Version:  7
     \\/     M anipulation  |
\*---------------------------------------------------------------------------*/
FoamFile
{
    version     2.0;
    format      ascii;
    class       vectorField;
    location    "0.1275/lagrangian/reactingCloud1";
    object      UTurb;
}
// * * * * * * * * * * * * * * * * * * * * * * * * * * * * * * * * * * * * * //


1153
(
(9.00842 8.75378 -1.63167)
(5.27842 -7.6113 -3.81809)
(-2.81234 -0.937346 -4.43938)
(0 0 0)
(0 0 0)
(0.209702 -1.58744 8.2693)
(0.194745 0.654554 -0.807138)
(-11.1681 -0.0270606 3.98219)
(0 0 0)
(-2.25939 3.29248 2.66662)
(-0.0368206 3.1412 -5.30683)
(3.5213 -0.652037 -1.15115)
(0 0 0)
(-0.680433 -0.149217 -0.123653)
(2.33553 2.12564 0.213726)
(0 0 0)
(17.4219 -9.1565 -8.30337)
(0 0 0)
(-1.11867 2.58105 -0.822668)
(3.22368 -11.5843 -3.61389)
(6.79225 -5.75465 -5.98053)
(8.87036 -12.9928 -32.4696)
(-6.94369 -8.04308 10.116)
(0 0 0)
(5.099 7.93262 2.59966)
(-0.081356 -2.31012 -1.292)
(0 0 0)
(2.93932 -0.44084 -0.532266)
(3.11455 7.04464 9.64359)
(-12.4204 -0.28484 10.3799)
(-3.99319 -0.954065 -3.3498)
(-0.929393 5.47805 -1.36519)
(-1.50751 9.59032 -19.9294)
(0 0 0)
(-0.242968 0.518715 -0.330934)
(-2.39164 0.145745 4.21317)
(0.247813 5.4031 1.29645)
(4.51426 -3.72009 7.53231)
(-0.135911 1.82212 -2.05516)
(-0.20076 -0.682169 9.92392)
(0 0 0)
(-1.41968 -6.6995 6.17074)
(-4.46384 19.7153 1.52073)
(4.70088 -8.73492 -6.17855)
(0 0 0)
(-11.7921 -3.53526 -10.9635)
(22.6619 -16.9001 4.92723)
(-14.1313 2.30735 7.41444)
(1.88628 -1.53099 -2.22956)
(0 0 0)
(-4.64538 1.90356 2.28785)
(0 0 0)
(2.1369 -0.173165 -2.72554)
(0 0 0)
(2.7981 -8.32732 -12.0792)
(0 0 0)
(-12.9111 -3.20221 -4.26942)
(0.0889842 -3.01271 -1.58511)
(0 0 0)
(0 0 0)
(0 0 0)
(1.26578 0.0972275 -0.966126)
(-0.126232 0.398619 -0.0438725)
(-8.32127 -0.621072 -2.41912)
(0 0 0)
(6.33014 -2.93529 -0.0585795)
(2.03724 -13.9061 -5.6277)
(1.59809 11.0285 -20.654)
(0.252136 -0.020376 -0.257382)
(-8.15781 4.67945 -1.91469)
(0 0 0)
(0 0 0)
(9.0311 -3.5667 2.39172)
(0 0 0)
(0 0 0)
(4.69035 -2.43598 -2.5516)
(1.37367 -0.568336 0.0301155)
(0 0 0)
(0 0 0)
(0 0 0)
(0 0 0)
(-3.38185 -1.96133 0.293375)
(-0.068241 -0.0437245 -0.306842)
(0 0 0)
(0 0 0)
(0 0 0)
(0 0 0)
(0 0 0)
(0 0 0)
(0 0 0)
(0 0 0)
(0 0 0)
(0 0 0)
(0 0 0)
(0 0 0)
(-0.996277 -2.38136 -3.15667)
(0 0 0)
(0 0 0)
(0 0 0)
(0 0 0)
(0 0 0)
(2.12698 1.4631 -0.530039)
(0 0 0)
(0 0 0)
(1.51664 -1.56176 1.05887)
(0 0 0)
(0 0 0)
(0 0 0)
(0 0 0)
(0 0 0)
(0 0 0)
(0 0 0)
(0 0 0)
(0 0 0)
(0 0 0)
(0 0 0)
(0 0 0)
(0 0 0)
(0 0 0)
(0 0 0)
(0 0 0)
(0 0 0)
(0 0 0)
(0 0 0)
(0 0 0)
(0 0 0)
(0 0 0)
(0 0 0)
(0 0 0)
(0 0 0)
(0 0 0)
(0 0 0)
(0 0 0)
(0 0 0)
(0 0 0)
(0 0 0)
(0 0 0)
(0 0 0)
(0 0 0)
(0 0 0)
(1.79834 -2.95692 -0.189525)
(-0.789212 0.530685 -0.891276)
(0 0 0)
(0 0 0)
(0 0 0)
(0 0 0)
(0 0 0)
(0 0 0)
(0 0 0)
(0 0 0)
(0 0 0)
(0 0 0)
(0 0 0)
(0 0 0)
(0 0 0)
(0 0 0)
(-0.5938 1.14886 0.572339)
(0 0 0)
(0 0 0)
(0 0 0)
(0 0 0)
(0 0 0)
(-2.87848 -0.961904 2.82897)
(0 0 0)
(0 0 0)
(0 0 0)
(0 0 0)
(0 0 0)
(0 0 0)
(0 0 0)
(0 0 0)
(0 0 0)
(0 0 0)
(0.51426 -4.59218 6.65417)
(0.94437 1.62901 0.112712)
(0 0 0)
(0 0 0)
(0 0 0)
(-2.2823 -11.6358 11.9773)
(0 0 0)
(0 0 0)
(0 0 0)
(0 0 0)
(0 0 0)
(0 0 0)
(0 0 0)
(0 0 0)
(0 0 0)
(0 0 0)
(0.950586 15.0058 -4.93062)
(0 0 0)
(-10.0165 -5.8731 -2.34323)
(-1.51753 1.73557 0.997983)
(0 0 0)
(0.730075 1.03139 -0.408061)
(0 0 0)
(4.15718 -4.1323 -6.26221)
(-1.36142 -7.97554 7.31607)
(-0.893311 -7.51272 5.45602)
(-0.0731112 0.143112 -0.104412)
(0 0 0)
(0 0 0)
(-0.18594 -4.73954 2.06257)
(0 0 0)
(2.61932 -1.85246 0.525658)
(0 0 0)
(0 0 0)
(4.13608 -3.77378 1.77643)
(0 0 0)
(0 0 0)
(0 0 0)
(0 0 0)
(-4.8837 4.25807 -6.19458)
(0 0 0)
(-5.30945 8.50578 0.618824)
(0 0 0)
(0 0 0)
(7.09842 3.11503 3.88655)
(0 0 0)
(0 0 0)
(0 0 0)
(0 0 0)
(1.40048 -2.76272 0.0872126)
(15.049 -17.3714 -1.07025)
(1.71816 0.189118 5.42425)
(0 0 0)
(0 0 0)
(0 0 0)
(0 0 0)
(0 0 0)
(0 0 0)
(0 0 0)
(0 0 0)
(0 0 0)
(0 0 0)
(11.3148 -11.7858 -7.89245)
(0 0 0)
(0 0 0)
(0 0 0)
(0 0 0)
(0 0 0)
(0 0 0)
(0 0 0)
(-1.76661 -0.830545 -0.875279)
(0 0 0)
(0 0 0)
(0 0 0)
(0 0 0)
(0 0 0)
(0 0 0)
(-4.50715 17.0328 12.0689)
(0 0 0)
(-7.90487 -2.15258 3.18563)
(0 0 0)
(0.718619 -3.91344 4.2114)
(1.9531 0.0739836 2.36737)
(0 0 0)
(0 0 0)
(0 0 0)
(0.982094 0.494356 -0.531596)
(0 0 0)
(-6.3538 -8.48373 0.233299)
(-3.47947 -2.83054 -4.4676)
(0 0 0)
(1.16429 0.422963 -2.00346)
(0 0 0)
(0 0 0)
(-5.42816 0.558588 2.55708)
(-0.813732 -1.81351 1.88406)
(0.398867 -0.039696 -0.799852)
(2.28352 1.61402 0.18689)
(-5.61591 1.27208 4.66895)
(22.5859 -13.7769 -6.71727)
(0.40192 -0.423667 -0.502912)
(0 0 0)
(-2.59959 -14.32 13.924)
(0 0 0)
(0 0 0)
(0 0 0)
(0.525027 -0.41106 1.35421)
(-0.575811 3.90004 2.38431)
(0 0 0)
(-4.79336 2.77816 1.44562)
(0 0 0)
(0 0 0)
(0 0 0)
(-2.24889 3.13248 -1.27972)
(-1.73719 18.1453 1.2397)
(-11.4695 2.16638 -9.81971)
(18.0696 30.9053 -7.58588)
(36.5953 -27.2909 7.95669)
(-2.18742 17.871 13.142)
(17.9485 -7.26442 6.83681)
(1.10821 -1.11986 -1.45902)
(7.52824 15.4311 3.59904)
(6.04801 13.2879 -3.37737)
(-5.42102 0.0580693 -0.390721)
(15.2029 8.9443 -0.51864)
(-4.32551 -1.74047 2.03651)
(2.21407 9.12409 -0.808539)
(4.83379 5.98926 -5.60014)
(7.78818 -1.1242 0.258629)
(2.34996 -9.08 -5.18169)
(0.268303 8.14004 9.13539)
(13.3649 2.67063 -10.1262)
(-6.49692 5.69113 -3.27713)
(0.289617 -2.1924 11.4206)
(0.102381 0.902141 14.6176)
(4.89574 2.53313 -1.95499)
(0.495102 10.3296 9.61283)
(1.12347 0.63526 -0.0813739)
(3.85011 2.91425 -0.74864)
(0.62443 -4.18217 -17.0023)
(-2.64555 -3.9435 -1.50458)
(4.18188 -0.774355 -1.3671)
(-0.0359787 -0.0135467 -0.0201722)
(-10.1076 -11.7079 14.7253)
(0.586901 -4.31514 -2.81237)
(0.595344 -0.545534 0.502281)
(-0.242536 -0.658652 -1.63565)
(-4.00574 -1.28156 4.31332)
(-1.59253 -0.307009 -1.02581)
(-0.0236326 0.0493089 -0.0221481)
(0.403662 0.227727 0.880086)
(12.2153 -9.03168 -6.63206)
(1.25474 -0.761081 -1.39571)
(-14.1602 0.277518 -0.693618)
(-0.0191936 0.0533886 0.0293877)
(-2.00517 -5.7506 -0.662507)
(-2.55209 4.18516 -2.47218)
(-0.457944 -5.63632 2.82796)
(-1.69601 1.87502 -8.6221)
(13.3184 -4.31135 11.4668)
(8.58503 -6.05553 5.14921)
(-0.345835 0.234542 -0.71122)
(-0.537442 -0.117859 -0.0976677)
(4.77311 2.7798 2.18138)
(0.263413 2.23589 1.74988)
(-2.37446 -1.04943 1.2095)
(-6.33558 1.18101 -4.34141)
(0.745333 -3.40907 -0.15467)
(0.0622906 0.194258 0.904597)
(-8.08189 -0.0195826 2.88175)
(-2.57611 -2.92701 3.55068)
(3.59104 9.29899 20.9737)
(-30.2047 8.45389 -21.1871)
(10.6958 -2.87316 -2.11349)
(1.87056 0.339079 0.717059)
(3.51592 -4.38148 7.20934)
(0.321775 -1.17418 3.20576)
(10.3247 -5.42638 -4.9208)
(6.78025 10.5482 3.45682)
(-16.8209 -0.385758 14.0574)
(2.42208 1.15026 -3.90674)
(0.0234779 -0.220123 -0.142089)
(-3.10276 -5.47089 4.33839)
(-2.22214 -19.212 -1.68429)
(-3.97653 7.92452 3.15057)
(6.87746 1.25521 -1.02661)
(0.050606 5.18941 1.22752)
(2.25548 5.10154 6.98363)
(13.7331 -10.1539 -7.45612)
(0.558536 0.481046 1.32912)
(-6.57898 -14.1852 10.2318)
(12.8879 18.4266 15.2867)
(0.676967 -3.10348 -1.42831)
(-4.08417 -7.86354 10.4703)
(-9.49229 -14.5437 10.1116)
(-1.68995 -0.563257 -2.66766)
(-2.73434 -6.47839 -3.49881)
(-0.00425614 0.00325481 -0.00495202)
(-19.8332 -6.67186 7.76724)
(-0.32911 -1.17756 -5.09623)
(-1.19653 2.59206 -1.31848)
(0.00190486 -2.36954 12.4752)
(4.78075 -7.11663 1.56282)
(-0.206302 -0.701001 10.1979)
(-1.75356 -12.8889 -4.2148)
(4.2616 13.8002 1.86276)
(0.696446 -1.0629 -1.2802)
(-13.704 -19.2446 26.6462)
(-8.23741 0.472005 1.45088)
(0 0 0)
(-8.39011 -1.46213 -5.61471)
(9.5558 -1.482 -6.00357)
(3.66333 -1.80461 0.296125)
(-7.27379 -14.8307 -6.96119)
(6.89208 -9.11122 3.4881)
(11.5107 14.8658 6.10544)
(1.8509 -7.70786 4.31586)
(7.82008 -4.46764 -22.5576)
(-1.2503 0.307893 -0.445141)
(13.5866 -3.33506 -15.7613)
(-1.91776 -5.12089 -1.17112)
(-0.297595 -1.81031 2.47335)
(-6.36223 -3.2019 1.11456)
(-1.84659 0.0127639 -3.64765)
(-7.20681 0.824085 -0.167799)
(0.899143 -1.67273 1.46205)
(-5.34538 -2.44526 3.42282)
(0.960193 -2.17634 -1.83314)
(-0.414737 -2.29237 -1.41963)
(1.06473 -4.86995 -0.22095)
(1.08693 1.22806 -1.39495)
(-2.92483 12.5157 -4.54677)
(-1.63124 1.5256 4.76186)
(-0.516923 -0.884307 6.28689)
(-0.227441 -0.137729 -0.587834)
(2.2992 3.33188 5.6801)
(-9.06398 20.0602 -6.78099)
(-1.08001 1.9744 10.3321)
(-4.74828 -3.69602 -2.74213)
(0.713231 -0.655907 0.1917)
(-4.63955 12.3833 -3.31036)
(-4.5871 -1.31563 3.0207)
(1.83026 -7.62191 4.26773)
(-0.43503 -2.79686 4.634)
(0.671959 -10.0981 2.50702)
(4.04392 4.90984 -4.89181)
(-10.8794 3.36036 8.46123)
(-5.60262 11.0887 -3.42802)
(2.3411 7.76348 -5.60787)
(-3.9678 0.436412 -2.5642)
(-7.85155 0.107417 0.90523)
(-2.42965 1.71544 6.39034)
(2.66102 6.7347 -5.21468)
(-5.90575 10.9742 -2.90904)
(-4.86135 4.38334 -0.70536)
(1.85181 -0.108961 -0.337218)
(-0.0149994 0.0344038 -0.00373317)
(4.72128 -0.444822 -0.686857)
(-2.50282 -3.24151 3.38519)
(-1.9444 -0.762915 -1.13506)
(-0.253169 3.53548 -0.759466)
(0.817123 1.37752 -2.06419)
(1.47707 2.47047 -0.459415)
(3.75501 4.58434 -8.94945)
(1.59572 3.76094 2.61254)
(-6.00731 -1.8063 5.80967)
(-2.23218 1.12955 1.05834)
(-0.813513 0.68119 2.97149)
(1.528 0.140354 0.0681441)
(0.00321443 0.00234003 0.0030833)
(-6.2583 3.7289 -1.12098)
(3.53866 -5.55571 -2.59084)
(0.977634 -1.46979 -1.52704)
(0.0721138 -0.182318 -1.20454)
(8.0448 -10.802 -1.40914)
(2.50432 -1.58398 3.1781)
(-0.0190575 -0.682486 1.90855)
(-3.94841 6.56651 0.536545)
(5.20355 -7.74601 1.70103)
(-1.16415 -1.55814 4.94827)
(0 0 0)
(-1.05849 -0.859862 -1.01421)
(-22.4039 -13.3359 -0.747703)
(1.32954 -0.0194442 -0.331374)
(-0.681651 3.35232 -0.408788)
(0 0 0)
(-0.855293 0.798575 1.94206)
(6.52864 -8.63076 3.30416)
(-20.1488 -11.9935 -0.672443)
(-1.21568 1.91086 -3.50417)
(-0.87695 -0.0312744 0.35143)
(5.48848 -2.07216 -3.93966)
(-0.110582 2.01222 -2.97891)
(-0.521541 1.24964 0.208338)
(0 0 0)
(0.0328468 -0.25702 -0.180277)
(1.45034 -14.599 -14.8369)
(0 0 0)
(0 0 0)
(0.919991 1.84953 9.85254)
(0.0727191 -0.975553 -0.226994)
(1.66779 5.66116 -4.49132)
(-0.825691 2.95922 -3.7507)
(6.3854 -0.921712 0.212046)
(-0.229072 4.35075 1.18544)
(0.414134 -6.22352 1.5451)
(0 0 0)
(0 0 0)
(0.398605 -3.87475 3.07481)
(-8.66752 7.36706 -3.95915)
(-4.70272 -2.90844 2.43378)
(1.78342 6.41518 0.590679)
(2.91458 -2.88354 -3.37408)
(0.132845 1.17057 18.967)
(14.8771 14.8314 5.43545)
(0 0 0)
(0.189441 -0.629755 0.119801)
(-2.29319 -1.13013 1.80041)
(-0.031969 1.68073 -1.11173)
(0.324637 -3.78819 -2.05236)
(0 0 0)
(-1.4493 1.60228 -7.36791)
(0.012507 -0.0355573 0.00950702)
(-2.29431 0.143783 -3.49633)
(-10.3442 13.369 12.5097)
(-8.012 -15.0842 7.64361)
(2.62285 -0.688095 3.01834)
(-7.91597 -3.62119 5.06885)
(-0.440624 2.79791 1.59997)
(5.36493 -0.302429 0.764831)
(-0.00422927 -0.155853 -0.0633846)
(14.3321 -11.0884 5.06881)
(-1.05272 0.310918 -0.0803601)
(0.145297 0.821903 0.222046)
(-1.18675 -1.59514 0.0692226)
(-7.87853 -14.8329 7.51627)
(-3.05247 0.801126 9.0544)
(4.43296 -16.4211 -2.41857)
(0 0 0)
(2.19849 -3.29153 -3.71783)
(-3.22069 -1.29592 1.51635)
(3.55131 0.182782 1.46843)
(1.34028 0.38661 0.29325)
(3.78693 1.95941 -1.51222)
(0.768753 -5.6522 -3.68379)
(0 0 0)
(-3.63421 -3.9367 8.04621)
(0 0 0)
(-3.154 -1.00906 3.39618)
(-1.67867 -2.24679 7.13524)
(-0.394585 0.0624978 -0.10088)
(-4.08357 -6.50563 8.0625)
(-2.55278 -9.97494 1.83942)
(7.61375 5.43008 -1.82626)
(-5.83481 6.69943 4.07992)
(0.588888 -0.00277474 0.198877)
(-1.26378 10.325 7.59279)
(-2.49175 1.28863 0.547648)
(0.746279 6.87397 -4.71058)
(-1.64321 -0.987723 5.34356)
(0 0 0)
(-13.7016 -6.43631 -2.52617)
(0.405713 8.46459 7.87725)
(-5.39257 -4.27915 2.36491)
(0 0 0)
(-2.0575 3.77594 1.46729)
(0 0 0)
(6.6795 0.239984 -2.45446)
(6.75861 5.11577 -1.31419)
(17.8032 -16.003 0.922439)
(-4.77136 -1.50026 0.15055)
(0 0 0)
(2.33115 0.918852 2.113)
(0 0 0)
(0 0 0)
(5.71033 -3.86197 -2.221)
(3.06896 -1.86153 -3.41377)
(0 0 0)
(-0.324796 41.8034 0.88039)
(9.18631 16.9177 11.1087)
(-0.307847 39.6219 0.834448)
(1.1042 22.8676 -11.3484)
(1.24067 25.6938 -12.7509)
(-25.8319 6.95415 27.651)
(-9.59753 15.3753 1.11861)
(2.67776 28.8344 4.10336)
(7.21673 8.9418 -8.36087)
(-16.6335 21.4973 20.1156)
(-2.06987 -0.399032 -1.33328)
(-34.2155 -11.51 13.3998)
(-0.978006 -0.190203 -2.90133)
(-9.46082 13.163 -18.809)
(1.56231 2.00404 -1.85478)
(-1.56664 -0.343561 -0.284701)
(-13.8281 11.7534 -6.3164)
(26.374 -7.08471 -5.21149)
(0.148464 -0.68735 -1.03213)
(-6.61909 4.67337 17.4092)
(0.584586 -0.664624 2.5524)
(0.00943149 -1.08563 0.650496)
(0.442715 0.656665 1.90296)
(2.13973 -1.96775 0.575111)
(3.7887 -4.35713 3.43299)
(-6.7656 3.23421 -1.34674)
(-7.1366 -2.49219 -8.29568)
(0.381264 11.5672 12.9816)
(-6.52328 -3.28295 1.14278)
(6.69933 -7.62146 5.36004)
(-14.6326 32.3845 -10.947)
(-0.563072 -1.00588 1.64033)
(8.28167 12.884 4.2223)
(0.00383457 -4.76999 25.1133)
(-0.402429 -0.612557 -0.221421)
(1.95819 7.13533 0.046551)
(-9.48906 1.08506 -0.220938)
(3.58509 0.912374 -22.6856)
(0.086279 0.760252 12.3185)
(-0.256302 -0.616188 0.340578)
(1.57581 4.6372 -14.0928)
(-2.73623 1.28576 -0.500355)
(-0.201156 0.211909 0.230802)
(-0.342833 4.78763 -1.02844)
(-8.50219 15.799 -4.188)
(-18.1425 1.69452 0.617694)
(0.0556433 -0.521698 -0.336755)
(-4.28424 -1.42793 -6.76283)
(-3.82435 7.56918 -2.33997)
(0.307021 0.0472677 -0.158364)
(-5.89832 7.36293 -2.89083)
(-0.295142 -1.00287 14.5894)
(-6.6589 -14.7887 -6.66152)
(28.0806 16.5206 -0.957954)
(2.57025 -11.9388 -1.69836)
(14.6944 17.4215 6.0387)
(-4.21675 0.0291468 -8.32952)
(1.83363 -1.11222 -2.03965)
(-1.53948 -1.21084 -3.36294)
(0.613898 12.8081 11.9193)
(2.3326 0.919425 2.11432)
(-4.34068 1.46218 0.703553)
(1.20405 -2.72905 -2.29869)
(-0.0468985 2.46563 -1.63091)
(10.9762 17.6534 -17.1547)
(3.63045 -2.60098 5.2103)
(21.5943 30.8747 25.6136)
(-6.4014 0.305919 11.0846)
(2.87662 6.08725 8.00915)
(-3.88605 3.98166 -1.59321)
(3.88833 0.613132 -9.37471)
(0.123507 0.698639 0.188745)
(-4.58452 -2.02619 2.33526)
(0.890935 -4.08439 -1.87975)
(-5.08556 -9.79157 13.0375)
(14.7413 12.8017 10.1217)
(6.03502 3.12261 -2.40994)
(6.22194 8.94583 -1.73381)
(5.98381 -8.62844 -4.32832)
(-0.0539552 0.981808 -1.45347)
(-2.04223 1.9068 4.63718)
(2.0951 0.379782 0.803134)
(-0.0796996 5.56871 -2.5427)
(0.362895 3.0803 2.41074)
(-2.40418 15.5841 4.00593)
(-14.0009 -0.0339246 4.9923)
(-0.0352112 0.0979428 0.0539126)
(4.90372 -7.08463 -6.45968)
(0.0935591 10.4869 -6.72226)
(-18.7888 -3.27429 -12.5736)
(-2.80488 -2.60597 -9.25569)
(0.329605 0.454644 0.774699)
(3.03321 5.705 7.34158)
(4.91971 -0.962188 4.87766)
(13.0265 -2.02028 -8.1841)
(-0.369566 14.4972 -16.8943)
(-4.52043 6.44757 -1.13539)
(0.129272 -4.40175 5.13915)
(5.50476 -3.48175 6.98579)
(-3.45377 14.7792 -5.36903)
(0.238613 -1.8063 9.40939)
(1.81351 -1.83257 -2.38758)
(-1.46613 -12.2477 -5.10393)
(-0.253117 -0.147726 0.553865)
(11.2181 -9.50444 -9.87749)
(2.43682 -13.2421 1.58495)
(-0.238116 -0.362449 -0.131014)
(2.24668 1.27037 -0.162729)
(1.55992 -2.0142 0.515903)
(-2.18864 -3.06 0.226915)
(-1.62017 -0.317324 -0.994753)
(1.57318 -2.40095 -2.89181)
(-2.60811 5.47386 -5.95331)
(-5.20964 0.971125 -3.56987)
(-0.927561 0.893792 -0.736767)
(-0.0286254 0.0656577 -0.00712454)
(-3.99462 1.59691 2.15587)
(4.18421 5.9684 6.63009)
(2.17873 3.64403 -0.677653)
(-7.37852 -4.51587 -5.79138)
(-4.6192 10.9189 -5.67452)
(15.8244 0.705742 -11.6868)
(-2.43155 0.260234 0.986156)
(-0.0775483 -1.06019 0.650591)
(14.5081 2.89906 -10.9923)
(-1.33009 2.88141 -1.46566)
(-1.79105 14.6328 10.7607)
(0.208245 -0.692265 0.131693)
(12.4884 -5.05451 4.75699)
(0.56805 -3.80456 -15.4672)
(5.39426 6.58563 -12.8563)
(2.95236 0.271188 0.131666)
(-1.04056 -1.7801 12.6555)
(3.08703 5.85104 -17.4194)
(7.94169 -2.12829 -1.8781)
(-27.011 7.56001 -18.9468)
(-1.68812 -4.04364 5.10048)
(-5.06051 0.918138 -3.51613)
(4.11386 -1.84074 -3.91603)
(-5.31574 8.71724 -5.14928)
(-5.06352 -8.92815 7.08)
(2.39713 0.257985 12.0911)
(-22.4999 -7.56892 8.81158)
(11.7539 -15.5384 5.94866)
(0.00856896 -0.98635 0.591007)
(3.48849 5.05534 8.61822)
(1.76627 1.64602 -1.59804)
(-11.7164 9.61737 9.43643)
(-2.66032 0.896143 0.431195)
(5.90811 -8.25312 12.845)
(-0.0901699 -0.0339509 -0.0505555)
(-11.772 1.77622 0.695912)
(-5.7765 10.9328 6.28042)
(-15.2014 4.09232 16.2718)
(1.84536 4.77856 10.778)
(7.92453 -3.90373 0.640579)
(5.54748 10.4938 -4.05832)
(4.20992 -0.0379521 9.75714)
(-0.793601 -0.15434 -2.35428)
(-5.85772 -13.3368 -2.73742)
(-29.6923 -3.65459 -5.88962)
(13.9773 -5.21643 8.31873)
(-2.05253 0.849896 2.83424)
(2.9282 1.70922 -2.58749)
(0.72261 0.668385 -0.877742)
(-2.42803 -1.38876 1.04674)
(15.2829 26.1389 -6.41596)
(5.66662 4.53966 -17.5951)
(3.84878 -25.2398 -13.0034)
(5.00979 1.65263 2.45113)
(3.85389 5.05808 -0.190226)
(0.305914 0.0470972 -0.157792)
(0.845412 9.10349 1.2955)
(3.00148 -11.5974 -6.61829)
(-5.06951 -2.55132 0.888098)
(-0.343549 -4.68214 -3.67195)
(-2.68334 -7.69553 -0.886575)
(-1.62233 5.64988 0.63578)
(4.70914 -3.32163 2.82449)
(-7.06248 -8.02446 9.73427)
(-9.85217 -10.8956 3.50079)
(-0.0660233 -6.79501 4.41701)
(0.516218 -0.473028 0.435523)
(-6.06065 -2.48986 3.69293)
(4.78803 4.82087 9.65759)
(6.56682 1.57261 3.59244)
(-27.9937 3.77242 -17.8086)
(0.304279 -1.11033 3.03145)
(-0.274061 0.185865 -0.563615)
(2.15652 -11.7189 1.40264)
(-4.87708 2.46795 2.31237)
(-0.0749513 -1.02469 0.628803)
(-0.467751 -5.75702 2.88852)
(6.63324 1.21064 -0.990156)
(-4.0694 0.240528 0.208369)
(-2.43187 -3.62498 -1.38305)
(-1.49955 -2.43323 6.68695)
(1.90969 0.62997 0.93435)
(-4.53898 -10.7541 -5.80799)
(-4.57967 -0.385192 0.109717)
(-7.72385 12.8454 1.04959)
(12.8303 -17.2276 -2.24738)
(1.94913 2.74778 -6.96491)
(1.75006 -7.28791 4.08071)
(-0.629958 0.513261 2.65397)
(-1.89142 -2.97092 2.50938)
(1.87788 0.0966525 0.776483)
(-2.06916 -3.73196 3.17308)
(1.96525 -1.24301 2.49399)
(-0.177015 0.186478 0.203104)
(0.114633 11.7551 2.78058)
(-0.763246 1.82878 0.304892)
(-5.65708 7.06178 -2.77259)
(-1.13278 -1.03787 -0.731382)
(2.30819 -0.507727 -0.637)
(1.8661 -0.82156 -1.58675)
(3.20344 1.86565 1.46402)
(-3.20737 3.28628 -1.31496)
(0.261171 -0.00134466 -0.132784)
(-5.10697 -10.4127 -4.88748)
(-5.78242 3.44441 -1.21108)
(-0.667557 -0.40756 0.863403)
(18.4202 -5.9629 15.8594)
(9.35509 -13.926 3.05816)
(-5.4712 -1.1135 3.75048)
(7.1614 3.68813 -5.02529)
(-5.44732 6.25453 3.80897)
(6.9019 8.91361 3.66086)
(-0.621287 -5.19006 -2.16284)
(1.53764 -1.56777 0.93101)
(2.05374 -0.0300354 -0.511872)
(0.108782 -0.361621 0.0687928)
(10.8951 9.46153 7.48081)
(-23.2432 16.0769 -21.6101)
(-37.0652 -22.063 -1.23701)
(0.981518 0.553725 2.13996)
(1.79448 0.282963 -4.32646)
(0.198792 1.12451 0.303797)
(-0.665493 -0.894506 0.0388179)
(-0.171681 -2.33979 -1.83497)
(0.422188 -4.92651 -2.66908)
(2.89232 5.87912 -6.51541)
(0.741648 -3.39221 -0.153905)
(-0.659546 0.68826 -2.84808)
(-4.14607 6.40262 4.07424)
(-9.75121 -13.6936 18.9604)
(-0.286767 -0.167365 0.627496)
(2.28563 4.32358 -1.67208)
(1.36435 -1.76167 0.45122)
(0.248337 -5.51474 -2.3913)
(-1.38058 -2.67878 -12.6174)
(10.1773 -7.8739 3.59938)
(-3.65695 -2.19248 2.1814)
(9.48256 -8.03399 -8.34933)
(4.62809 -6.68641 -6.09659)
(-0.343018 -1.22733 -5.31159)
(0.175368 -1.74136 1.13464)
(-5.07009 -4.82421 1.21204)
(-4.05769 5.74196 6.81736)
(-12.9842 11.0361 -5.93092)
(-1.48367 9.4387 -19.6144)
(-4.23836 -9.41294 -4.24003)
(-0.362871 -0.985443 -2.44718)
(-0.077117 1.40328 -2.07742)
(-6.03869 7.80445 7.30283)
(-1.02387 -1.60823 1.35839)
(4.85091 -3.73555 -8.47822)
(-11.349 -8.11209 -4.40737)
(15.2181 10.8534 -3.65026)
(-2.06041 3.23865 -5.9391)
(-2.63567 -0.920412 -3.06374)
(0.610816 1.21419 3.5895)
(-0.308245 0.0488224 -0.0788058)
(-0.518999 -1.82572 -3.20381)
(-2.42588 0.597387 -0.863681)
(2.94062 4.22798 -0.819434)
(10.6686 -2.77398 32.6026)
(-11.8709 26.2724 -8.88091)
(0.150487 -5.12412 5.98253)
(-0.0429448 2.25777 -1.49342)
(8.79317 6.28518 -8.36975)
(-2.75158 1.29298 -0.503162)
(-3.92039 9.26703 -4.81606)
(-0.980607 -0.589437 3.18884)
(-2.15258 -0.676834 0.0679199)
(1.42307 0.550009 -0.287041)
(-10.4703 -4.91842 -1.93041)
(-5.3626 -5.93056 1.9055)
(1.30005 -0.931402 1.86579)
(3.44419 1.35757 3.1219)
(-0.428223 0.390627 -0.436698)
(2.13332 -8.27835 -8.82273)
(-0.631001 0.186366 -0.0481681)
(-0.891793 -7.4498 -3.10453)
(-7.16714 14.1853 -4.3853)
(-1.52963 -0.874907 0.659436)
(-6.8565 -4.19638 -5.38165)
(1.20367 0.306324 -7.61656)
(-5.06922 13.5302 -3.61694)
(-4.78342 2.47379 1.05132)
(5.54438 -7.9948 -4.01047)
(0.222947 -0.00114786 -0.11335)
(-2.92717 -3.17081 6.48081)
(-27.9027 7.94985 -36.1759)
(2.57508 29.7288 -13.2734)
(7.8005 13.7554 3.58126)
(0.721898 -1.3497 0.870572)
(-19.0298 -13.3189 5.86042)
(3.27146 12.4967 2.9437)
(2.24453 0.786765 -7.93657)
(-2.14514 10.3305 25.7048)
(1.70871 1.83463 1.50328)
(-66.9836 4.71564 -36.3082)
(33.6597 7.57464 -12.3206)
(26.4188 -43.0442 7.35206)
(1.42499 -2.66426 1.71847)
(-4.34936 8.59149 20.5068)
(-25.1215 2.59307 0.187188)
(0.664328 -2.041 -1.99757)
(-11.9866 -6.53849 -1.73817)
(-3.22341 2.52333 2.72112)
(-14.7852 -14.8195 14.8753)
(14.3454 0.16638 6.89599)
(7.90613 -16.4624 -0.411623)
(4.87233 4.82058 7.60791)
(-16.8901 7.86878 -9.98113)
(13.5497 10.2951 10.0579)
(0.487583 10.6308 2.55081)
(2.66751 -2.99091 -3.931)
(-2.46646 -2.09219 5.68293)
(-2.25031 1.23787 9.13995)
(-3.54251 4.63544 0.411072)
(9.72477 7.78007 8.03391)
(3.68721 12.87 5.04343)
(0.0124259 0.142774 1.91629)
(2.26338 11.1498 -6.07591)
(16.7073 26.8709 -26.1117)
(0.0113594 0.184681 0.0733448)
(0.817099 -0.0878675 -0.0598837)
(-19.7932 13.2234 -2.70812)
(3.29946 0.601505 2.13899)
(4.57506 -6.89453 4.44229)
(12.1097 7.47987 5.31423)
(-2.57332 -4.74027 6.75974)
(23.9856 -11.1006 2.54586)
(19.3165 10.3426 -5.54298)
(-7.6172 7.71438 3.18895)
(-54.119 -3.3082 -3.67199)
(8.38439 9.03329 13.0577)
(-29.5078 13.1625 -22.5692)
(-6.04453 13.5866 -5.2057)
(0.424417 6.64729 1.08096)
(6.99031 0.274723 -10.7816)
(-4.3568 0.2655 7.67503)
(-11.1843 -12.0088 -26.6568)
(-43.1455 24.5893 15.657)
(27.6688 0.187904 1.02215)
(-4.04448 2.52582 1.79269)
(5.20187 15.7782 -3.02031)
(-8.73082 19.6247 -7.51921)
(-10.4484 16.7385 1.21778)
(-12.6435 12.8048 5.29322)
(-3.02701 11.8169 -7.47676)
(1.12313 10.3451 -7.0893)
(0.183855 0.201277 -0.0126599)
(6.58412 -1.01236 1.97983)
(-0.958196 0.484423 2.124)
(-7.80275 1.26811 -1.4876)
(-0.219908 -0.325301 0.665716)
(8.46862 9.50204 -6.34532)
(4.83398 18.4654 4.34967)
(-25.7822 2.66127 0.19211)
(-1.32773 3.80474 -6.52953)
(-3.14228 0.735092 0.885049)
(-9.87241 9.28756 -7.70424)
(-21.9599 4.02594 9.79884)
(4.76907 -3.06238 1.79877)
(-11.769 0.629037 11.5247)
(1.54471 17.8334 -7.96232)
(1.30842 -4.01983 -3.93428)
(-2.33053 2.63692 -5.88268)
(2.28058 2.44863 2.00639)
(6.44484 -3.26558 0.517425)
(-1.41598 -6.60621 -9.89278)
(-21.3449 3.48517 11.1992)
(2.58521 1.85689 -2.3573)
(10.5711 3.67837 7.34468)
(-18.5558 -8.97532 3.09564)
(6.97464 -6.53302 1.66727)
(-4.86879 8.64175 -14.8003)
(-3.38535 -12.141 -8.6917)
(4.42598 12.5199 31.433)
(-2.19863 5.24496 -5.14726)
(-7.14973 -9.9232 7.05249)
(-8.93798 -6.05956 12.8667)
(-3.20508 6.72676 -7.31595)
(5.0271 7.35654 -8.183)
(-0.843526 0.687267 3.55373)
(-11.2488 8.35237 6.3459)
(-3.64544 3.74973 4.44677)
(4.84347 -0.392492 -6.17766)
(3.18584 -5.60722 0.660428)
(-29.1239 -13.4415 -3.61132)
(-0.247162 -0.295334 -1.47495)
(0.612595 0.102337 -0.208189)
(3.99258 4.13216 -23.1058)
(4.03414 0.83484 -0.796397)
(35.678 19.103 -10.238)
(-6.04433 9.33403 5.9396)
(-5.13241 2.8233 20.8461)
(-12.2762 9.11516 6.92545)
(3.21971 4.53898 -11.5051)
(-5.55755 0.690791 2.66268)
(-2.97671 5.04849 4.99703)
(-0.560403 3.10617 -0.47389)
(2.58566 1.44813 -2.07459)
(2.72768 2.48255 0.249612)
(0.253861 -7.36896 9.5609)
(-4.57787 0.65484 0.542653)
(0.815227 4.93284 -11.7718)
(-3.31508 0.816359 -1.18026)
(3.9205 -1.13341 4.84485)
(-0.917434 -0.502383 0.225572)
(-4.15815 -7.49967 6.37656)
(-35.111 -3.92205 24.059)
(9.13958 -15.6898 -38.2073)
(1.36523 8.00047 -0.119223)
(1.37257 3.0877 1.63647)
(-2.52493 -4.89922 -23.076)
(-11.0099 6.60178 -2.81345)
(27.6274 17.0648 12.1241)
(-0.00607038 -0.00673636 -0.0114943)
(0.254803 5.94837 1.34257)
(9.92948 17.5096 4.55869)
(2.00449 2.67048 -3.0198)
(-5.13071 -6.93253 2.80977)
(16.9862 -3.22389 -6.18196)
(0.752876 -0.557212 1.63101)
(25.7818 13.2777 -18.0916)
(-12.9185 -4.85555 14.636)
(-2.95798 18.8178 -39.1049)
(3.38487 -15.6205 7.18743)
(-6.82901 18.2272 -4.87257)
(-0.381442 14.9631 -17.4372)
(4.35154 -0.780263 2.71705)
(-1.13622 0.179965 -0.290487)
(-8.03148 15.2006 8.73211)
(-1.25474 -3.9918 17.4427)
(2.8055 3.13537 1.07475)
(-3.30031 5.18758 -9.5131)
(3.5383 1.24026 -12.5113)
(-0.704621 0.689053 -3.77165)
(3.31521 6.28352 -18.7069)
(2.90667 -12.5421 -18.4735)
(-0.977764 0.657472 -1.10421)
(-6.08653 5.23337 1.89621)
(-0.201491 2.70133 -3.04682)
(9.09076 -9.81614 -0.964798)
(-8.20749 7.18955 -4.13997)
(6.89644 6.82319 10.7685)
(-2.55356 -1.53322 -1.25486)
(-7.14802 0.667476 -7.31812)
(-25.3004 -0.580221 21.1439)
(-2.04949 -4.13276 -1.73714)
(3.60156 17.7419 -9.66817)
(-14.7356 15.3134 -19.6395)
(4.38324 1.95988 -5.86809)
(2.39196 1.80283 -7.43942)
(-0.0497813 0.103868 -0.0466543)
(-6.34218 3.27992 1.39391)
(9.38235 10.1014 29.5127)
(10.3898 -5.11814 0.839857)
(-8.98114 4.34051 10.1557)
(-1.93741 0.572211 -0.147894)
(20.3645 -4.29429 16.2687)
(8.68264 -1.60776 -2.83845)
(-0.00831614 0.552973 -1.54933)
(-0.721335 -1.22043 1.09106)
(-11.6106 -2.36299 7.95901)
(-22.7586 -5.64459 -7.52578)
(2.51583 0.27076 12.6898)
(8.04503 4.20863 -9.04465)
(-3.15643 -1.89731 10.2644)
(-0.0713974 -0.0254177 -0.294988)
(-1.22795 2.83318 -0.90303)
(-2.08699 2.01101 -1.6577)
(1.8062 1.67066 -2.19396)
(-8.63256 -3.47352 4.06434)
(-12.0921 1.82453 0.714837)
(8.01415 4.67795 -7.08166)
(-19.5431 2.88339 -20.2897)
(18.7029 1.15633 -16.2477)
(-10.2556 11.7753 7.1711)
(8.489 -1.22536 0.281902)
(-9.54887 7.57826 -5.04748)
(-5.39945 -3.57342 -7.95779)
(2.31789 -7.26322 1.76174)
(-0.0919696 0.290423 -0.0319644)
(2.77667 5.64404 -6.25489)
(-5.94485 8.41244 9.98799)
(4.73987 1.88477 6.60846)
(16.9103 -7.16313 -0.98622)
(14.6311 3.50385 8.0041)
(-9.76788 -10.5809 21.6263)
(-0.862858 -1.63284 0.0582329)
(0.0862666 4.60209 2.52057)
(-14.3014 -11.7795 -2.20848)
(3.16198 2.94671 -2.86081)
(5.28231 1.46698 0.424661)
(-0.380273 1.75006 -0.462684)
(6.11645 13.8345 18.9384)
(4.34725 -1.91389 -3.69647)
(8.04131 17.6673 -4.49048)
(-0.443833 -0.656545 1.34359)
(-17.227 0.337623 -0.843841)
(12.3245 11.9761 -2.23229)
(4.56429 0.234919 1.88728)
(-5.70586 -0.479915 0.136697)
(0.150847 16.9082 -10.8384)
(-1.51076 -0.710262 -0.748517)
(0.796558 -0.128014 0.284088)
(-7.8425 -10.3693 3.93738)
(21.2768 15.1745 -5.10354)
(-6.89016 -8.55719 -4.61403)
(1.16652 -4.04369 17.917)
(0.667531 -0.225715 4.11146)
(3.70246 -2.61849 0.743028)
(1.16031 5.67255 -1.26631)
(-1.18016 -2.19381 -5.59846)
(-2.89682 2.38921 2.37329)
(2.12883 -35.4131 -7.36287)
(-11.4198 -5.07505 -3.22091)
(-2.09091 2.31161 -10.6297)
(2.27138 -4.48074 0.141446)
(15.7766 -21.1836 -2.76345)
(-20.2938 -11.2832 -3.75695)
(-11.8945 4.43564 4.29323)
(-5.08817 -10.1967 7.33003)
(0.472466 -1.90049 1.63586)
(2.52777 -1.49667 7.74343)
(-1.81174 -0.46303 1.2335)
(0.395819 -4.61881 -2.50238)
(0.523195 1.04002 3.07459)
(-18.603 -14.7552 2.35294)
(3.76472 1.78788 -6.07237)
(6.65498 3.72721 -5.3396)
(-5.43319 6.14746 -13.7143)
(6.31113 12.8498 -3.54342)
(2.39037 0.923866 -0.482152)
(-5.38378 -1.72243 5.79716)
(-1.41865 1.8918 -2.84204)
(-2.16839 -2.91458 0.126481)
(-1.87235 -1.12145 -1.84583)
(7.66733 13.2099 11.0735)
(0.819968 1.35601 0.354392)
(12.1706 8.69933 -11.5846)
(0.00423644 1.77783 11.4654)
(11.4355 6.45013 23.43)
(-0.537194 -1.88972 -3.31613)
(-25.0321 17.3143 -23.2733)
(-0.0338424 -3.483 2.26408)
(-2.29073 -2.09881 -1.47902)
(0.0385463 -0.058781 -0.221812)
(-19.1351 -22.1647 27.877)
(-8.67693 0.0929462 -0.625391)
(-12.3483 -13.6561 4.38774)
(-3.59053 -0.724167 -6.31939)
(0.487168 -4.83746 3.152)
(-2.5775 -1.16449 -3.19996)
(2.64203 0.739299 -2.13523)
(8.34651 6.31769 -1.62295)
(1.56725 6.45857 -0.572331)
(-0.871086 -0.531819 1.12664)
(-0.685527 0.715372 -2.96027)
(-1.3317 2.70528 0.329648)
(2.14126 12.6589 -31.2912)
(-19.9677 3.77154 -17.0955)
(10.7477 22.0302 5.13816)
(0.333896 -1.20802 -1.42456)
(-19.3923 15.918 15.6186)
(26.494 24.6699 -6.0202)
(2.38612 -4.43903 3.87993)
(3.97588 13.8776 5.43827)
(0.812256 1.12039 1.90912)
(-0.0532147 3.71817 -1.69773)
(3.80821 3.05084 -11.8246)
(0.164511 0.51304 2.38906)
(0.934207 -0.0110938 -0.992497)
(4.98731 7.11395 7.90265)
(-20.4631 -14.6267 -7.94681)
(-4.08241 -1.28363 0.128812)
(-0.478271 1.14596 0.191053)
(-12.9741 25.855 10.2792)
(-9.72854 -5.83261 5.80313)
(-1.32385 1.20762 -1.35005)
(-17.3208 -26.5382 18.4509)
(0.373368 -8.29128 -3.59526)
(-0.467544 60.176 1.26732)
(20.0728 7.62623 -24.8607)
(10.0961 18.5932 12.2088)
(5.41325 -2.00336 -1.81637)
(4.217 20.651 -0.506558)
)


// ************************************************************************* //
