/*--------------------------------*- C++ -*----------------------------------*\
  =========                 |
  \\      /  F ield         | OpenFOAM: The Open Source CFD Toolbox
   \\    /   O peration     | Website:  https://openfoam.org
    \\  /    A nd           | Version:  7
     \\/     M anipulation  |
\*---------------------------------------------------------------------------*/
FoamFile
{
    version     2.0;
    format      ascii;
    class       volScalarField;
    location    "0.12";
    object      alphat;
}
// * * * * * * * * * * * * * * * * * * * * * * * * * * * * * * * * * * * * * //

dimensions      [1 -1 -1 0 0 0 0];

internalField   nonuniform List<scalar> 
48560
(
0.00510937
0.00505727
0.00500397
0.00495166
0.00490094
0.00485229
0.00480619
0.00476303
0.00472318
0.00468697
0.00465469
0.00462662
0.004603
0.00458407
0.00457008
0.00456123
0.00455776
0.00455989
0.00456786
0.00458192
0.00460232
0.00462935
0.00466332
0.00470455
0.00475344
0.00481039
0.00487577
0.00494968
0.00505955
0.00518421
0.00532271
0.0054736
0.0056342
0.00580102
0.00596934
0.00614117
0.00631572
0.00649731
0.00668969
0.00690641
0.00715042
0.00742031
0.00771507
0.00801524
0.00828199
0.00837766
0.00797314
0.00694022
0.00546871
0.00391594
0.00126478
0.000499804
0.00055034
0.000574582
0.000615285
0.000635963
0.0006815
0.000708559
0.000775468
0.000834872
0.000960503
0.00103639
0.00108339
0.000986559
0.00108372
0.000849223
0.000856304
0.000890368
0.000947918
0.00101945
0.00110953
0.00120322
0.00130716
0.00140071
0.00148573
0.00153804
0.00154224
0.0014608
0.00128432
0.0010751
0.000947197
0.000984856
0.00104475
0.00104343
0.00101932
0.000973675
0.000931099
0.000894688
0.000871947
0.000857053
0.00085423
0.000853005
0.000852292
0.000848708
0.000843068
0.000831384
0.000813981
0.000787494
0.000751128
0.00070283
0.00484589
0.00483092
0.00481651
0.00480368
0.00479295
0.00478475
0.00477948
0.00477747
0.00477906
0.0047845
0.00479407
0.00480798
0.00482649
0.00484979
0.0048781
0.00491164
0.00495062
0.0049952
0.00504553
0.00510167
0.00516379
0.00523192
0.00530619
0.0053866
0.00547315
0.00556566
0.00566388
0.00576681
0.00591612
0.00607272
0.00623818
0.00641071
0.00659295
0.00678587
0.00699809
0.0072361
0.00750606
0.00781059
0.0081524
0.00852681
0.00893081
0.00933452
0.00965634
0.00973687
0.00945509
0.0087179
0.00757385
0.00623735
0.00511146
0.00460693
0.00507328
0.0090473
0.00945957
0.0099122
0.0103094
0.01061
0.0102356
0.0103999
0.00971426
0.00989572
0.00897493
0.00868235
0.00777502
0.00820605
0.00716815
0.00711941
0.0069365
0.00696789
0.00676147
0.00672303
0.00669263
0.00676882
0.0068539
0.00699398
0.00712507
0.00718042
0.00700453
0.00648415
0.00673289
0.00642509
0.00704643
0.00995715
0.00904563
0.00847817
0.0081916
0.00817035
0.00856039
0.00958178
0.0107124
0.012142
0.0136122
0.0151027
0.0167037
0.0185533
0.0205782
0.0229583
0.0258311
0.0300276
0.0369559
0.0528135
0.00520557
0.00522048
0.00523799
0.00525821
0.00528152
0.00530822
0.00533858
0.00537273
0.00541085
0.00545297
0.00549922
0.00554958
0.0056042
0.00566308
0.00572631
0.00579384
0.00586568
0.00594169
0.00602177
0.0061064
0.0061954
0.00628903
0.00638736
0.00649071
0.00659924
0.00671338
0.00683358
0.00695967
0.00715462
0.00737081
0.00760872
0.0078735
0.00816573
0.00849003
0.00884814
0.00924136
0.00967013
0.0101217
0.01057
0.0109346
0.0111542
0.0111
0.010737
0.0100238
0.00903425
0.00787472
0.00689143
0.00625215
0.00621196
0.00693546
0.00896763
0.014204
0.0146892
0.0152066
0.0148706
0.0159231
0.0148242
0.0161095
0.0141407
0.0149853
0.0131527
0.0126933
0.0114298
0.0115838
0.0104462
0.010715
0.0108317
0.0114201
0.011223
0.0118133
0.0117094
0.0116265
0.0116034
0.0116001
0.0116406
0.0116795
0.0117036
0.0115213
0.0113873
0.0102252
0.0145453
0.02302
0.0211959
0.020149
0.0198092
0.0165166
0.0190669
0.0195392
0.0258855
0.0318224
0.0386259
0.0429634
0.0475672
0.0529654
0.0592815
0.0672685
0.0697769
0.0636187
0.0592189
0.0580421
0.00629861
0.00632829
0.00636174
0.00639983
0.0064418
0.00648889
0.00654033
0.00659697
0.00665796
0.006724
0.00679461
0.00687051
0.00695146
0.00703809
0.00713033
0.00722882
0.0073337
0.00744571
0.00756533
0.00769289
0.0078288
0.00797357
0.00812744
0.00829108
0.00846512
0.00865043
0.00884758
0.00905758
0.00937545
0.00972071
0.0100927
0.0104921
0.0109129
0.0113469
0.0117701
0.0121503
0.0124375
0.0125724
0.0125144
0.0122131
0.0116745
0.0108999
0.0100029
0.00909919
0.00828876
0.00771665
0.00754576
0.00789066
0.00883874
0.0105878
0.0138509
0.0181513
0.0194493
0.0206602
0.0196316
0.0210331
0.0191192
0.0200132
0.0179698
0.0183776
0.0164769
0.0156706
0.0145916
0.0145783
0.0144101
0.0144292
0.0154212
0.0164503
0.0168048
0.0170125
0.0173072
0.0176551
0.0180519
0.0184747
0.0185946
0.0167343
0.0139865
0.0134947
0.0149953
0.0173609
0.0297883
0.0434108
0.0412316
0.0402566
0.0324961
0.030083
0.0328657
0.0306777
0.033176
0.033682
0.037784
0.0409485
0.0464349
0.0509813
0.0565194
0.0610302
0.0641498
0.0647124
0.0641721
0.0638483
0.00814581
0.00818889
0.00824007
0.00829976
0.00836722
0.00844372
0.00852851
0.00862261
0.00872524
0.00883727
0.00895818
0.00908883
0.00922886
0.00937908
0.00953922
0.00970997
0.00989105
0.010083
0.0102855
0.0104988
0.0107227
0.0109572
0.0112029
0.0114599
0.0117276
0.0120049
0.0122895
0.012579
0.0129566
0.0133247
0.0136491
0.0139171
0.0140883
0.0141476
0.0140707
0.0138426
0.0134497
0.0128966
0.012195
0.0114627
0.0107007
0.00999375
0.00939358
0.0089891
0.00886954
0.00913351
0.00984337
0.0110332
0.0128053
0.0145266
0.0185546
0.020502
0.0221462
0.0229204
0.0228977
0.0237655
0.0227115
0.0232876
0.0218372
0.0220477
0.0205884
0.0197336
0.0188536
0.0189804
0.0198202
0.0194333
0.0216724
0.0224366
0.024505
0.025303
0.0265941
0.0270816
0.0270484
0.025898
0.0234249
0.0202022
0.0174896
0.0170815
0.0170714
0.0221088
0.0336045
0.0407553
0.0428448
0.0286381
0.0266608
0.0273297
0.0286564
0.0288287
0.0324392
0.0341972
0.0393584
0.0430437
0.0495122
0.0550697
0.0622132
0.0667029
0.0685924
0.0697147
0.0709072
0.0717008
0.0113631
0.0114119
0.0114789
0.0115607
0.0116584
0.0117706
0.0118981
0.0120398
0.0121959
0.0123655
0.0125487
0.0127448
0.0129537
0.0131749
0.0134078
0.0136513
0.0139036
0.0141619
0.014422
0.0146806
0.014932
0.0151711
0.0153896
0.0155812
0.015739
0.0158598
0.0159407
0.0159953
0.0159354
0.0158174
0.015573
0.015248
0.0148006
0.0142703
0.0136798
0.0130638
0.0124304
0.0118163
0.0112478
0.010766
0.0104017
0.0102155
0.0102584
0.0105948
0.0112725
0.0123167
0.0137279
0.0155528
0.0156264
0.0173176
0.0204859
0.0222785
0.0242928
0.0255334
0.0261315
0.0263967
0.0263609
0.0262243
0.02561
0.0252509
0.0244495
0.0236183
0.0234069
0.0240629
0.025845
0.0253862
0.0284871
0.029009
0.0322178
0.0324189
0.0346493
0.0336118
0.0333111
0.0301689
0.0266213
0.022432
0.0201857
0.0202035
0.0210771
0.0262431
0.0335043
0.0377305
0.0377157
0.0299633
0.0307796
0.0303185
0.0316325
0.0321301
0.0350263
0.0371431
0.0416608
0.0451479
0.0508313
0.0561784
0.063155
0.0693889
0.0730203
0.0753359
0.0770306
0.0780992
0.0164159
0.0164099
0.0164373
0.0164845
0.0165596
0.0166514
0.0167645
0.0168882
0.0170235
0.0171614
0.0173017
0.0174364
0.0175636
0.0176761
0.0177713
0.0178434
0.0178907
0.0179093
0.0178935
0.0178418
0.017751
0.0176206
0.0174493
0.0172387
0.0169896
0.0167056
0.0163899
0.0160606
0.0155681
0.0150892
0.0145632
0.0140627
0.0135459
0.0130759
0.0126255
0.0122448
0.0119261
0.0117175
0.0116263
0.0117015
0.0119656
0.012466
0.0132232
0.0142582
0.0155673
0.0171394
0.0189974
0.0189297
0.0184369
0.0203957
0.0224523
0.0239232
0.0260084
0.0273756
0.0279916
0.0282543
0.028362
0.0282468
0.0278262
0.0275133
0.0271079
0.0268352
0.0272492
0.0286767
0.0308335
0.0307704
0.0338549
0.0345522
0.0376536
0.0380388
0.040129
0.0387584
0.0379091
0.0338296
0.0297644
0.0255256
0.0236306
0.0231697
0.0244189
0.0290098
0.0327359
0.0350722
0.0335574
0.0306312
0.0321504
0.0322162
0.0338247
0.0349211
0.0378832
0.0404928
0.0450398
0.049548
0.056086
0.0627207
0.0693354
0.0747067
0.0781279
0.0809557
0.0828152
0.0840066
0.0219644
0.0217621
0.0215764
0.0213996
0.0212384
0.0210786
0.0209243
0.0207623
0.0205954
0.0204128
0.0202173
0.0200013
0.0197679
0.0195114
0.019235
0.0189354
0.0186164
0.0182786
0.0179329
0.0175749
0.0172123
0.0168435
0.0164747
0.0161061
0.0157429
0.0153863
0.0150405
0.0147154
0.014352
0.0140549
0.013774
0.0135602
0.0133908
0.0133063
0.0132948
0.0133936
0.0136028
0.013957
0.0144658
0.015158
0.0160375
0.0171159
0.018383
0.0198318
0.0214509
0.023269
0.0230969
0.0210816
0.021182
0.0228001
0.0239304
0.0251869
0.027489
0.0289668
0.0294506
0.0297575
0.0298469
0.0296925
0.0293347
0.0289295
0.0288515
0.029008
0.0301171
0.032126
0.0345879
0.0352149
0.0379908
0.0388993
0.0417748
0.0426552
0.0442915
0.0429774
0.0411165
0.0364431
0.0318884
0.0280287
0.0265498
0.0262178
0.0276738
0.0309503
0.0329553
0.0352374
0.0340836
0.0336402
0.0347208
0.0353358
0.0366745
0.0382458
0.0409587
0.0440937
0.0486076
0.0537846
0.0603504
0.0674876
0.0747174
0.080307
0.0839379
0.0869143
0.0889197
0.0902094
0.0235075
0.0230863
0.0226571
0.022242
0.021833
0.0214336
0.0210395
0.0206514
0.0202683
0.0198902
0.0195181
0.0191513
0.0187924
0.0184402
0.0180979
0.0177648
0.017444
0.0171352
0.0168418
0.0165644
0.0163076
0.0160728
0.0158656
0.0156884
0.0155477
0.0154479
0.0153972
0.0154067
0.0154303
0.0155364
0.0156964
0.0159357
0.0162428
0.0166367
0.0171204
0.0177174
0.0184207
0.0192522
0.0202011
0.0212821
0.0224744
0.0237848
0.0251927
0.0267166
0.0283689
0.0279284
0.0248563
0.0235568
0.0236543
0.0247999
0.0251947
0.02632
0.0286487
0.0300435
0.0303635
0.0306611
0.0306034
0.0304849
0.0300303
0.029661
0.0297554
0.0303055
0.0318339
0.0342305
0.0369785
0.0383387
0.0405619
0.041611
0.0442236
0.0453914
0.0465793
0.045442
0.0429672
0.0384842
0.0341576
0.0309381
0.0294896
0.0291055
0.0303195
0.0321993
0.0332388
0.0353657
0.0350005
0.0358101
0.0368512
0.0378796
0.0392819
0.0413299
0.0442421
0.0479711
0.0528798
0.0587245
0.0658694
0.0732563
0.0804825
0.0860838
0.0900456
0.093033
0.0952299
0.0965956
0.0214524
0.021101
0.0207434
0.0204091
0.0200815
0.0197727
0.0194723
0.0191894
0.0189185
0.0186665
0.0184315
0.0182177
0.0180241
0.0178538
0.0177075
0.0175881
0.0174981
0.017441
0.0174214
0.0174442
0.0175164
0.0176445
0.017838
0.0181061
0.0184617
0.0189175
0.0194915
0.0202014
0.0206411
0.0211492
0.0217002
0.0223114
0.0229564
0.0236508
0.0244038
0.0252354
0.0261229
0.0270865
0.0281039
0.0291931
0.0303329
0.0315436
0.0328165
0.0341884
0.032851
0.0292728
0.0269315
0.025749
0.025715
0.0263746
0.026243
0.0272325
0.0294312
0.0306963
0.0308616
0.0311002
0.0308869
0.0307612
0.0301768
0.0298166
0.0300085
0.0308069
0.0325648
0.0351695
0.0381928
0.0401383
0.0418667
0.0430256
0.0454253
0.0468002
0.0478788
0.0470124
0.0444239
0.0403482
0.0364411
0.0337639
0.0323304
0.0318353
0.0323821
0.0332618
0.0339652
0.0363994
0.0367993
0.0382462
0.0393428
0.0405858
0.0421548
0.0445097
0.0477932
0.051934
0.057465
0.0638431
0.0717086
0.0793209
0.0868536
0.092146
0.0963932
0.0992329
0.101679
0.103093
0.0199065
0.019775
0.0196422
0.0195325
0.0194284
0.0193451
0.0192709
0.0192199
0.0191852
0.0191795
0.0191994
0.0192556
0.019345
0.0194757
0.0196473
0.0198678
0.02014
0.0204727
0.0208717
0.0213472
0.0219078
0.0225654
0.023331
0.0242183
0.0252404
0.0264116
0.0277473
0.029254
0.0298531
0.0304735
0.0311009
0.0317461
0.0323839
0.0330248
0.0336954
0.0344078
0.0351421
0.0359115
0.0367021
0.0375292
0.0383873
0.0392995
0.0402722
0.0368733
0.0337261
0.0307535
0.0287753
0.0275193
0.0273422
0.0275579
0.0271004
0.0279322
0.0298715
0.03096
0.0309559
0.0310874
0.0307424
0.0305781
0.0298747
0.0295263
0.0297544
0.0306751
0.0324702
0.0351415
0.0383349
0.0406884
0.0421469
0.0434531
0.0456329
0.0472764
0.0485015
0.0481284
0.0459333
0.0425694
0.0392035
0.0367893
0.0350443
0.0341726
0.0340056
0.0341647
0.0347619
0.0374439
0.0385249
0.0404535
0.0418035
0.0432607
0.0451164
0.0478119
0.0516318
0.0562425
0.0625866
0.0694454
0.0781149
0.0856686
0.093521
0.0984471
0.102958
0.1056
0.108287
0.109741
0.0206824
0.0207841
0.0208935
0.0210271
0.0211697
0.0213368
0.0215183
0.0217302
0.0219671
0.0222448
0.0225613
0.0229317
0.0233539
0.023838
0.0243818
0.0249959
0.0256814
0.0264486
0.0273004
0.0282472
0.0292929
0.0304453
0.0317103
0.0330918
0.0345914
0.0362063
0.037931
0.0397446
0.0401642
0.0405708
0.0409659
0.0413588
0.0417343
0.0420951
0.0424747
0.0428752
0.0432831
0.043704
0.0441353
0.043446
0.0424484
0.0409392
0.0392492
0.0368887
0.0345223
0.0319679
0.0301141
0.0288866
0.028482
0.0283581
0.0276911
0.0284325
0.0299887
0.0308788
0.0306953
0.0307025
0.030266
0.030046
0.0292646
0.0289227
0.0291614
0.0301036
0.0318176
0.0344299
0.0376756
0.0403244
0.0418817
0.0433568
0.0453706
0.0474442
0.0490419
0.049433
0.0479234
0.0453257
0.0423472
0.0398972
0.0376297
0.0362326
0.0353722
0.0350717
0.0357029
0.0386887
0.0403552
0.042735
0.0444147
0.0460871
0.0482458
0.0513436
0.0557588
0.060945
0.0681474
0.0755111
0.0849222
0.0923911
0.100389
0.104978
0.109644
0.112162
0.115006
0.116515
0.0238712
0.0242049
0.0245583
0.0249385
0.0253323
0.025753
0.0261919
0.0266634
0.0271632
0.0277076
0.028296
0.0289445
0.0296546
0.030436
0.0312827
0.0321999
0.0331818
0.0342322
0.0353455
0.0365236
0.0377613
0.0390586
0.0404015
0.041781
0.0431777
0.0445726
0.045942
0.0472664
0.047376
0.0471223
0.0461414
0.0443653
0.0434732
0.0423929
0.0416366
0.0408707
0.0402285
0.039475
0.038876
0.0382211
0.0377282
0.0371157
0.0365245
0.0355493
0.0342095
0.0325823
0.0311481
0.0298539
0.0292334
0.0288351
0.0280506
0.0288192
0.0298659
0.03051
0.0301184
0.0299923
0.0295006
0.029228
0.0284113
0.0280814
0.0283278
0.0292364
0.030797
0.0332499
0.0364358
0.0393587
0.0413178
0.0429588
0.0448726
0.0475118
0.0496521
0.0511121
0.0505477
0.0487645
0.0459096
0.043028
0.0401107
0.0380845
0.0365703
0.0359377
0.0365946
0.0398317
0.0420612
0.0449362
0.047084
0.0490502
0.051543
0.0551649
0.06024
0.0661651
0.0742291
0.0821442
0.0920935
0.0995067
0.107436
0.11173
0.116377
0.118838
0.121751
0.123327
0.0286392
0.0291862
0.0297622
0.0303645
0.0309801
0.0316179
0.0322674
0.0329375
0.0336216
0.0343307
0.035063
0.0358318
0.0366384
0.0374942
0.0383902
0.0393209
0.0402699
0.041228
0.0421788
0.0431108
0.044006
0.0448458
0.0456056
0.046264
0.0467948
0.0471771
0.0460304
0.0442004
0.043836
0.0411328
0.0406508
0.039029
0.0384378
0.0373588
0.0367192
0.0360284
0.035453
0.0349234
0.0343463
0.0338514
0.033357
0.0329387
0.0325813
0.0323026
0.0321215
0.0318051
0.0311661
0.0303064
0.0297253
0.0291332
0.0283761
0.0290923
0.0295543
0.0298657
0.0292439
0.0289935
0.028486
0.028201
0.0274179
0.0271257
0.0273766
0.0282177
0.0295756
0.0317917
0.0348199
0.0379726
0.0405093
0.0423689
0.0442643
0.0475954
0.0504614
0.0532983
0.053878
0.0528072
0.0496828
0.0460174
0.042397
0.0396903
0.0376654
0.0367379
0.0374123
0.0408376
0.0435782
0.0470394
0.0498158
0.0521626
0.0550356
0.059311
0.0651269
0.0719512
0.0808754
0.0894151
0.0996948
0.107021
0.114663
0.11866
0.123099
0.125537
0.128436
0.130081
0.0335052
0.0341771
0.0348779
0.0355982
0.0363241
0.03706
0.0377924
0.0385227
0.0392383
0.0399399
0.040619
0.0412796
0.0419194
0.0425468
0.0431621
0.0437584
0.0443126
0.0448041
0.0452073
0.0455015
0.0450488
0.0440951
0.0432665
0.0423677
0.0413865
0.0402416
0.0392733
0.0381805
0.038043
0.0358511
0.035801
0.0343872
0.0341889
0.0332988
0.0329708
0.0325034
0.0320657
0.0317901
0.0313309
0.0309565
0.0305543
0.0302437
0.0299478
0.0297884
0.029727
0.0297555
0.0298592
0.0300508
0.0298864
0.0296174
0.0288646
0.0294111
0.0292746
0.0290912
0.0281346
0.0277141
0.0271988
0.0269285
0.0262072
0.0259617
0.0262379
0.0270311
0.028202
0.0301752
0.0329854
0.0362543
0.0392774
0.0414879
0.0436905
0.0475835
0.0514783
0.0558741
0.05784
0.0572721
0.0534516
0.0487838
0.0443782
0.041032
0.0386339
0.0374332
0.0380819
0.0415951
0.04482
0.0490015
0.0524958
0.0554802
0.0588744
0.0638805
0.0705877
0.0784322
0.088238
0.0973458
0.107738
0.114879
0.122068
0.125722
0.129757
0.132136
0.134948
0.136651
0.0368341
0.0374726
0.0381272
0.0387878
0.0394406
0.0400881
0.040716
0.0413216
0.0418884
0.0424095
0.0428682
0.0432572
0.0435651
0.0437917
0.0439365
0.0440075
0.0433601
0.0419397
0.0402489
0.0386215
0.0371363
0.0359137
0.0349345
0.0341642
0.0334903
0.0328335
0.0323332
0.0319301
0.0320045
0.0304088
0.0307632
0.0295352
0.0297414
0.0290727
0.0290806
0.0288147
0.0285789
0.0284515
0.0281832
0.0280757
0.0279682
0.0279745
0.0279883
0.0280471
0.0280974
0.0282104
0.0285112
0.028949
0.0294195
0.0298428
0.0294225
0.0296613
0.0288496
0.0279767
0.0266586
0.0260974
0.0256345
0.0254788
0.0249537
0.0248241
0.0251387
0.0258789
0.0268376
0.0285201
0.03097
0.0341473
0.0373836
0.0402092
0.0432878
0.0472601
0.0526663
0.0585404
0.0621428
0.0617391
0.0568435
0.0511786
0.0461128
0.0422644
0.0395554
0.0381215
0.0386769
0.0422119
0.0459639
0.0509237
0.0552496
0.0593512
0.0634879
0.0692272
0.0770672
0.0859672
0.0966832
0.106076
0.116202
0.122869
0.129454
0.132756
0.136226
0.138425
0.141068
0.142811
0.037526
0.0379742
0.038418
0.0388527
0.039266
0.0396612
0.0400279
0.0403625
0.0406487
0.0408808
0.0410409
0.0411162
0.0410872
0.0409421
0.0406704
0.0377863
0.0359854
0.0349068
0.0335775
0.031896
0.0301819
0.0286619
0.0274107
0.0264916
0.0258647
0.0254605
0.0253128
0.0254191
0.0258364
0.0252158
0.0261045
0.0250473
0.0256189
0.0250769
0.0253657
0.0251351
0.0251519
0.0249721
0.0249374
0.0249715
0.0250609
0.025205
0.0255026
0.0258352
0.0263304
0.0267945
0.0273332
0.0278355
0.0285971
0.0294845
0.0300616
0.030226
0.0291268
0.0273341
0.0252421
0.0242288
0.0237211
0.0236664
0.0233442
0.0232916
0.0236552
0.0244143
0.0252225
0.026729
0.0288037
0.0318315
0.0350961
0.0385717
0.0426297
0.0465956
0.053648
0.0608995
0.0661516
0.0655962
0.0596078
0.0530394
0.0475034
0.0433689
0.0404267
0.0388132
0.0392062
0.0427108
0.0470498
0.0528701
0.0584562
0.0643208
0.0695722
0.0762621
0.0855943
0.0955316
0.106999
0.116039
0.125097
0.130595
0.136281
0.139396
0.142346
0.144187
0.146441
0.148167
0.0353972
0.0355756
0.0357321
0.0358692
0.0359779
0.0360624
0.0361173
0.0361392
0.0361159
0.0360452
0.0359176
0.0357231
0.0354458
0.0350705
0.0345797
0.033962
0.0324308
0.0296377
0.0280231
0.0264764
0.0245935
0.0226434
0.0210196
0.0197773
0.0190171
0.0186526
0.0185865
0.017483
0.0179496
0.0184121
0.0188578
0.0193701
0.0199298
0.0205997
0.0212888
0.0217871
0.0221394
0.0220598
0.0223023
0.022381
0.0226134
0.0227471
0.0231034
0.0234077
0.0239812
0.0246233
0.0254937
0.0263778
0.0274008
0.028603
0.029624
0.0301393
0.0282863
0.0255441
0.0230038
0.0217297
0.0212632
0.021485
0.0216966
0.0219912
0.0223907
0.0233203
0.0238754
0.0252172
0.0266641
0.0293117
0.0323953
0.0361461
0.0406819
0.0461363
0.0535624
0.0627026
0.0689707
0.0679803
0.0611853
0.0542127
0.0485458
0.0443842
0.0413642
0.0396377
0.0398143
0.0431759
0.0478999
0.0546339
0.0619221
0.0701911
0.077488
0.0860829
0.0973704
0.108542
0.119938
0.127576
0.134374
0.138111
0.142392
0.145524
0.148248
0.149648
0.150974
0.152393
0.0310513
0.0309796
0.0308792
0.030758
0.0306109
0.0304408
0.0302428
0.0300162
0.0297556
0.0294621
0.0291303
0.0287583
0.0283375
0.0278605
0.0273131
0.0266811
0.0259474
0.0251024
0.0241465
0.0218633
0.0199685
0.0179871
0.016084
0.0145501
0.0134772
0.0128495
0.0126082
0.0113173
0.0117069
0.0120794
0.0124333
0.0128594
0.0133127
0.0138743
0.0144512
0.015095
0.0157719
0.0165099
0.0172942
0.0181527
0.0190881
0.0201285
0.0206333
0.0209359
0.0214856
0.0221565
0.0231722
0.0243624
0.0259012
0.0277407
0.0296828
0.0324044
0.0320694
0.0279281
0.0229438
0.0201022
0.0189296
0.0189786
0.0192449
0.0200105
0.0202416
0.0214603
0.0217339
0.0231824
0.024198
0.0268612
0.0298308
0.0335964
0.0378694
0.0452924
0.052846
0.0637085
0.0705872
0.068823
0.0616023
0.0545904
0.0490236
0.0449189
0.0419394
0.040067
0.0397874
0.0423755
0.0475244
0.0549687
0.0639349
0.0748166
0.0856433
0.0966632
0.109305
0.12161
0.129054
0.133022
0.137076
0.141118
0.145053
0.148741
0.15202
0.153949
0.154688
0.155554
0.0254659
0.0252312
0.02497
0.0246926
0.024397
0.0240835
0.0237495
0.0233952
0.0230191
0.0226222
0.0222025
0.02176
0.0212917
0.020796
0.0202669
0.0196978
0.0190766
0.0183899
0.0176218
0.0167628
0.0158201
0.0148046
0.0134787
0.0111376
0.0094315
0.0084633
0.00826023
0.00730578
0.00752613
0.0077487
0.00795028
0.00822032
0.00850533
0.00888155
0.00927055
0.00972523
0.0102084
0.0107532
0.011334
0.0119861
0.0127048
0.0135247
0.0144466
0.0155014
0.0166937
0.0180409
0.0195315
0.0209279
0.0225595
0.0244742
0.0262335
0.0277692
0.0287831
0.0254615
0.0197712
0.0176463
0.0171575
0.0173054
0.0177632
0.019229
0.0192852
0.0207563
0.020903
0.0223476
0.022871
0.0249311
0.0268261
0.0301928
0.0341524
0.0405086
0.0501125
0.0582596
0.0646084
0.0631948
0.0580021
0.0523313
0.0478861
0.044458
0.0417645
0.0398839
0.0393499
0.0417036
0.0464092
0.0532178
0.062735
0.074106
0.0874878
0.0952922
0.0989343
0.102936
0.107319
0.112105
0.117307
0.122913
0.128866
0.135074
0.141342
0.147345
0.152581
0.156372
0.0196243
0.0193298
0.0190161
0.0186922
0.0183587
0.0180141
0.0176584
0.0172909
0.0169117
0.0165206
0.0161172
0.0157016
0.0152733
0.0148324
0.014378
0.0139096
0.0134246
0.0129191
0.0123846
0.0118082
0.0111735
0.0104687
0.00969966
0.00887374
0.00735146
0.00587811
0.00546198
0.0051253
0.00517017
0.00523535
0.00529703
0.00541064
0.00553604
0.00572242
0.0059171
0.0061613
0.00642392
0.00673472
0.00706801
0.0074563
0.00788918
0.00839364
0.00898484
0.00968233
0.0104959
0.0114407
0.0125162
0.0137155
0.0150063
0.0163421
0.0176415
0.0188366
0.019447
0.0198792
0.0203855
0.0211832
0.0188643
0.0172732
0.0170911
0.0190855
0.018599
0.0204972
0.0204269
0.0212729
0.0217456
0.0227809
0.0257279
0.0297909
0.034848
0.0402153
0.0534665
0.056802
0.0565168
0.0564345
0.0552674
0.0490671
0.0445175
0.0414808
0.0392294
0.0376136
0.0363602
0.0364191
0.0390693
0.0450336
0.0544758
0.0605342
0.0627889
0.0656887
0.0687374
0.0722294
0.0762277
0.0808179
0.086064
0.0921109
0.0990872
0.107189
0.116556
0.127251
0.138942
0.150368
0.0143737
0.014108
0.0138313
0.0135489
0.013264
0.0129733
0.0126788
0.0123786
0.012074
0.0117637
0.0114487
0.0111282
0.0108027
0.0104719
0.0101362
0.00979567
0.00945031
0.00909972
0.00874235
0.00837575
0.007991
0.00757468
0.00711183
0.00660385
0.00605136
0.00493552
0.00384244
0.00403847
0.00405205
0.00402226
0.0039967
0.00400939
0.00403113
0.00408815
0.00415065
0.00424158
0.00434078
0.00446704
0.00460186
0.00476543
0.00494935
0.00517
0.00543385
0.00576087
0.0061569
0.00663618
0.00720084
0.00785608
0.00858487
0.00936573
0.0101539
0.010913
0.0112649
0.0114578
0.011595
0.0118088
0.00946827
0.00959915
0.0147003
0.0206136
0.0225666
0.0255815
0.0264289
0.028042
0.0290674
0.0290952
0.0308665
0.029278
0.0287869
0.028926
0.031652
0.0334643
0.0330736
0.0328267
0.0326492
0.0324683
0.0322728
0.0320552
0.0315152
0.0301561
0.0290852
0.0296072
0.0308564
0.0313192
0.0317294
0.0322984
0.0333938
0.0350793
0.0368734
0.03899
0.0414666
0.0443941
0.0478316
0.0519971
0.0571063
0.0636071
0.0721156
0.0837675
0.100424
0.125293
0.0103886
0.0102091
0.0100248
0.00983708
0.00965039
0.00946037
0.00927029
0.00907699
0.00888276
0.00868539
0.00848631
0.00828399
0.00807901
0.00787025
0.00765782
0.00744141
0.00722155
0.00699917
0.00677521
0.00655013
0.0063231
0.00609113
0.00583871
0.00553628
0.00515632
0.00451195
0.00270571
0.00298451
0.00347693
0.00345338
0.0033959
0.00338093
0.00335788
0.00336392
0.0033646
0.00338402
0.00340099
0.00342999
0.00345569
0.00349185
0.00353199
0.00358761
0.00365876
0.00375323
0.00387455
0.00403184
0.00422858
0.00446616
0.00474144
0.00504137
0.00534683
0.00563552
0.00576287
0.00579736
0.00576181
0.0057318
0.0057823
0.00628958
0.00861142
0.010947
0.0114769
0.0119757
0.0127212
0.013532
0.0141801
0.015059
0.0157902
0.016334
0.0168691
0.0167817
0.0153313
0.0156792
0.0154197
0.0147451
0.0143863
0.014075
0.0137924
0.0135798
0.01327
0.0130256
0.0127614
0.0127778
0.0129699
0.0130033
0.0128001
0.0126728
0.0129073
0.0133885
0.013862
0.0144561
0.0151923
0.016089
0.0171315
0.0184127
0.0199876
0.0220596
0.0249074
0.0292281
0.0366542
0.0539218
0.00750335
0.00740223
0.00729584
0.00718518
0.00707333
0.00695686
0.00683859
0.00671529
0.00658944
0.00645806
0.00632326
0.00618229
0.0060367
0.00588403
0.00572543
0.00555898
0.00538522
0.00520185
0.00500844
0.0048032
0.0045876
0.00436152
0.00412228
0.0038587
0.00354932
0.00318458
0.00275579
0.000638861
0.000618592
0.000613324
0.000606694
0.000607368
0.00060944
0.000614672
0.000620267
0.000626352
0.000632415
0.0006375
0.000641088
0.000642457
0.000642458
0.000641154
0.000639429
0.000638105
0.000638145
0.000640108
0.000644178
0.000651016
0.000660489
0.000672944
0.000687144
0.000699379
0.0007048
0.000705109
0.000701671
0.000695769
0.000683673
0.000649545
0.000672563
0.000733418
0.000780293
0.000824326
0.000858456
0.000891227
0.000918741
0.000946411
0.000971186
0.00100788
0.00104763
0.00109388
0.00114319
0.00118108
0.00121331
0.00123602
0.00124349
0.00124204
0.00123294
0.00121667
0.00119516
0.00117003
0.00114484
0.00113424
0.00112301
0.00110729
0.00108731
0.00106339
0.0010385
0.00101774
0.000999782
0.000984183
0.000969963
0.000956387
0.0009417
0.000924999
0.000904903
0.000880375
0.000850296
0.000813765
0.000769872
0.000717689
0.000376874
0.0196669
0.0223962
0.0224854
0.0224883
0.022488
0.0224875
0.0224869
0.0224863
0.0224858
0.0224854
0.0224854
0.0224856
0.0224861
0.0224867
0.0224872
0.0224877
0.0224881
0.0224884
0.0224887
0.000403022
0.0176242
0.022216
0.0224617
0.0224721
0.0224721
0.0224717
0.0224711
0.0224707
0.0224702
0.0224701
0.0224704
0.0224714
0.0224729
0.0224745
0.0224759
0.0224772
0.0224781
0.022479
0.0224795
0.00042782
0.0161198
0.0219891
0.0224322
0.0224558
0.0224567
0.0224564
0.0224559
0.0224556
0.0224552
0.0224553
0.0224561
0.0224578
0.0224604
0.0224629
0.0224653
0.0224674
0.022469
0.0224703
0.0224712
0.000451214
0.0149563
0.0217302
0.0223967
0.0224395
0.0224417
0.0224416
0.0224412
0.022441
0.0224407
0.022441
0.0224422
0.0224447
0.0224482
0.0224519
0.0224552
0.022458
0.0224603
0.022462
0.0224632
0.000473211
0.0140185
0.0214488
0.0223546
0.0224227
0.0224269
0.022427
0.0224268
0.0224266
0.0224266
0.022427
0.0224287
0.022432
0.0224365
0.0224412
0.0224454
0.022449
0.0224519
0.0224541
0.0224557
0.000493887
0.0132074
0.0211481
0.0223057
0.0224051
0.0224121
0.0224126
0.0224126
0.0224126
0.0224127
0.0224134
0.0224156
0.0224197
0.0224251
0.0224309
0.022436
0.0224405
0.022444
0.0224466
0.0224485
0.000513247
0.0124531
0.0208272
0.0222496
0.0223866
0.0223975
0.0223984
0.0223985
0.0223987
0.0223991
0.0224001
0.0224028
0.0224076
0.0224141
0.0224209
0.022427
0.0224322
0.0224364
0.0224396
0.0224417
0.000531397
0.0117425
0.0204879
0.0221863
0.022367
0.0223828
0.0223843
0.0223847
0.0223851
0.0223857
0.022387
0.0223903
0.022396
0.0224034
0.0224112
0.0224184
0.0224244
0.0224293
0.0224329
0.0224352
0.000548358
0.0110855
0.0201344
0.0221158
0.0223462
0.022368
0.0223703
0.0223711
0.0223717
0.0223726
0.0223743
0.0223781
0.0223847
0.0223931
0.022402
0.0224101
0.0224169
0.0224225
0.0224266
0.0224292
0.000564246
0.0104897
0.0197712
0.0220382
0.0223241
0.0223533
0.0223566
0.0223577
0.0223586
0.0223597
0.0223619
0.0223663
0.0223737
0.0223832
0.0223932
0.0224022
0.0224099
0.0224161
0.0224207
0.0224236
0.000579065
0.00995636
0.0194033
0.0219539
0.0223007
0.0223385
0.022343
0.0223445
0.0223458
0.0223473
0.0223498
0.0223549
0.0223632
0.0223737
0.0223848
0.0223948
0.0224034
0.0224102
0.0224153
0.0224185
0.000592927
0.00948182
0.0190352
0.0218632
0.0222759
0.0223238
0.0223297
0.0223317
0.0223333
0.0223352
0.0223382
0.0223439
0.022353
0.0223647
0.0223768
0.0223878
0.0223972
0.0224047
0.0224104
0.0224138
0.00060582
0.00906096
0.0186707
0.0217668
0.0222496
0.022309
0.0223167
0.0223191
0.0223211
0.0223235
0.022327
0.0223334
0.0223434
0.0223561
0.0223693
0.0223814
0.0223916
0.0223998
0.0224059
0.0224097
0.000617847
0.00868768
0.0183128
0.0216653
0.0222221
0.0222943
0.022304
0.022307
0.0223094
0.0223123
0.0223164
0.0223234
0.0223344
0.0223481
0.0223623
0.0223754
0.0223866
0.0223955
0.0224021
0.0224061
0.00062897
0.00835541
0.0179641
0.0215595
0.0221932
0.0222796
0.0222917
0.0222953
0.0222982
0.0223016
0.0223062
0.022314
0.0223259
0.0223407
0.022356
0.0223702
0.0223822
0.0223918
0.022399
0.0224032
0.000639223
0.0080546
0.0176262
0.0214501
0.0221631
0.0222652
0.0222799
0.0222842
0.0222876
0.0222915
0.0222967
0.0223053
0.0223181
0.022334
0.0223505
0.0223656
0.0223785
0.0223888
0.0223965
0.0224011
0.000648553
0.00778228
0.0173007
0.0213381
0.0221322
0.0222511
0.0222687
0.0222737
0.0222777
0.0222822
0.0222881
0.0222974
0.0223111
0.0223282
0.0223458
0.0223619
0.0223757
0.0223867
0.0223949
0.0223997
0.000657006
0.00753563
0.016989
0.0212245
0.0221004
0.0222375
0.0222582
0.022264
0.0222687
0.0222738
0.0222803
0.0222904
0.0223051
0.0223233
0.0223421
0.0223593
0.0223739
0.0223856
0.0223943
0.0223994
0.00066445
0.00731242
0.0166922
0.0211104
0.0220683
0.0222245
0.0222486
0.0222553
0.0222608
0.0222664
0.0222737
0.0222845
0.0223003
0.0223195
0.0223395
0.0223577
0.0223733
0.0223856
0.0223949
0.0224003
0.000671124
0.00711074
0.0164115
0.020997
0.0220363
0.0222124
0.02224
0.0222479
0.0222541
0.0222604
0.0222683
0.02228
0.0222967
0.0223171
0.0223382
0.0223575
0.022374
0.022387
0.0223969
0.0224026
0.000676552
0.00692914
0.0161482
0.020886
0.0220048
0.0222016
0.0222329
0.0222422
0.0222489
0.0222559
0.0222645
0.022277
0.0222947
0.0223162
0.0223385
0.0223589
0.0223762
0.02239
0.0224004
0.0224064
0.000681132
0.00676657
0.0159041
0.0207791
0.0219745
0.0221925
0.0222276
0.0222384
0.0222458
0.0222534
0.0222626
0.0222759
0.0222946
0.0223172
0.0223406
0.0223621
0.0223803
0.0223948
0.0224058
0.022412
0.000684666
0.00662212
0.0156803
0.0206782
0.0219459
0.0221856
0.0222248
0.022237
0.022245
0.0222532
0.022263
0.022277
0.0222967
0.0223204
0.0223449
0.0223674
0.0223866
0.0224017
0.0224132
0.0224198
0.000686675
0.00648862
0.015471
0.0205835
0.0219194
0.0221815
0.0222253
0.0222389
0.0222472
0.0222558
0.0222661
0.0222807
0.0223013
0.0223261
0.0223516
0.0223752
0.0223953
0.0224111
0.0224231
0.02243
0.000689629
0.00634956
0.0152565
0.0204903
0.0218947
0.0221813
0.0222298
0.0222446
0.022253
0.0222618
0.0222723
0.0222875
0.0223089
0.0223346
0.0223613
0.0223858
0.0224068
0.0224233
0.0224357
0.0224431
0.000696019
0.00620448
0.0150323
0.020135
0.0218728
0.0221863