/*--------------------------------*- C++ -*----------------------------------*\
  =========                 |
  \\      /  F ield         | OpenFOAM: The Open Source CFD Toolbox
   \\    /   O peration     | Website:  https://openfoam.org
    \\  /    A nd           | Version:  7
     \\/     M anipulation  |
\*---------------------------------------------------------------------------*/
FoamFile
{
    version     2.0;
    format      ascii;
    class       volScalarField;
    location    "0.12";
    object      p;
}
// * * * * * * * * * * * * * * * * * * * * * * * * * * * * * * * * * * * * * //

dimensions      [1 -1 -2 0 0 0 0];

internalField   nonuniform List<scalar> 
48560
(
25764.8
25776.4
25785.3
25792.1
25797.3
25801.1
25804
25806.2
25807.8
25809.1
25810.1
25810.9
25811.7
25812.4
25813.1
25813.8
25814.7
25815.7
25816.9
25818.3
25820.1
25822.2
25824.8
25827.9
25831.8
25836.4
25841.6
25846.9
25854.8
25865.1
25877.7
25892.8
25910.6
25931.2
25955.8
25985.8
26021.7
26065.3
26116.9
26174.3
26239.1
26314
26396.6
26482
26579.5
26685.5
26813.5
26955.5
27061.6
27224.6
28083.3
32823.9
35725
38068.7
40291.5
42113.2
43912.4
45503.6
47053
48409.5
49614.4
50611.6
51050.3
51152.2
51271.8
51075.8
50941.6
50839.4
50678.7
50529.3
50340.8
50107.9
49796.1
49384.2
48813.8
48024.3
46893.8
45108.9
41889.1
37748.2
36622.5
37703
37703
37386.1
36736.1
36103.3
35863.5
35876.9
36106.5
36668
37400.4
38167.2
38907.6
39602.6
40226.1
40771
41225.9
41586.9
41838.4
41934.7
25804.1
25815.9
25824.7
25830.9
25835.2
25838.1
25840
25841.1
25841.7
25842
25842.2
25842.2
25842.2
25842.3
25842.3
25842.4
25842.6
25843
25843.5
25844.3
25845.4
25846.9
25848.7
25851.1
25854
25857.6
25861.6
25865.6
25871.7
25880.1
25890.9
25904.5
25921.3
25941.6
25965.3
25993.3
26028
26069
26114.8
26166.1
26227.2
26301.6
26383.6
26487.9
26612.5
26699.2
26734.7
26765.4
26882.1
27415.8
29242.7
32841.4
35375.9
37786.4
39875
41783.1
43544.3
45186.3
46729.5
48121.6
49346.1
50351.8
50840.5
51059.2
51142
50957.7
50876.2
50771.1
50609.2
50448.5
50231.5
49964.9
49604.6
49126.3
48464.2
47545.9
46184
44011
41067.7
38912.3
38347.3
38053.6
37762.6
37317.5
36932.8
36808.6
36810
36898.7
37175.1
37604.8
38127.9
38737.6
39360
39965.2
40514.7
40995.1
41381.3
41664.6
41838.3
41896.2
25846.2
25858.8
25867.8
25873.8
25877.6
25879.7
25880.8
25881.2
25881.2
25881.1
25880.6
25879.8
25878.7
25877.3
25875.8
25874.3
25872.9
25871.8
25871
25870.7
25870.6
25870.7
25871.1
25871.9
25873.4
25875.7
25878.7
25882.1
25887.8
25895.4
25905.3
25918.2
25933.5
25950.2
25968.4
25992.2
26024.6
26065.5
26109.4
26162.4
26233.5
26315.2
26390.3
26462.1
26534
26601.8
26682.7
26832
27204.1
28130.6
30069.3
32960.2
35403.7
37713.6
39760.1
41638.9
43395.1
45018.3
46562.2
47949.4
49173.8
50132.2
50632.2
50856.3
50884.4
50783.4
50741
50617.4
50475.9
50310.1
50098.3
49826.8
49458.3
48963.3
48277.6
47308.1
45851.2
43615.8
40872.8
39112.2
38604.4
38213
37794.1
37335.2
37004.8
36937.1
36949.1
37060.6
37343.1
37768.2
38299.4
38875.3
39465.9
40034.3
40563.8
41032
41412.8
41684.1
41840
41889.5
25895.3
25909.1
25918.3
25923.6
25926.3
25927.3
25927.4
25927.3
25926.6
25925.1
25922.9
25920.1
25916.8
25913.2
25909.6
25906.4
25903.7
25901.6
25900.2
25899.4
25899
25898.9
25899
25899.3
25900
25901
25902.3
25903.6
25905.7
25908.7
25914.3
25924.1
25937.8
25953.2
25971.3
25997.4
26034.4
26083.4
26132.2
26177.1
26220.1
26267.3
26322.7
26378.2
26432.8
26502.6
26631.3
26868
27415.5
28555.8
30501.5
33045.5
35300.1
37535.6
39494.7
41389.4
43110.9
44762.6
46290.2
47697.7
48909.4
49857.4
50377.6
50603.7
50616.5
50573
50540.6
50414
50288.7
50102.9
49878.1
49572.6
49170.8
48624.1
47871.3
46797.2
45218.2
43068
40916.5
39588.3
38931
38407.1
37961
37634.6
37506
37494.3
37524.2
37652.4
37909.8
38276
38735.7
39248.8
39779.3
40293.7
40764.3
41168.9
41489.6
41714.4
41845.5
41888
25944
25959.2
25968.8
25974.3
25976.8
25977.7
25977.8
25977.5
25976.6
25975
25972.5
25969.3
25965.5
25961.3
25956.6
25951.8
25946.8
25941.9
25937.1
25932.7
25928.7
25925.3
25922.6
25920.4
25918.9
25917.8
25917.3
25917.2
25917.7
25920.4
25927.1
25939.4
25958.3
25980.9
26004.1
26028.4
26052.6
26077.5
26108.2
26142.8
26183.3
26223.8
26265.3
26312.2
26375.4
26479.3
26658.7
27018.8
27721.5
28956.9
30808.8
33107
35259.2
37386.1
39316.4
41171.6
42884.6
44523.8
46049.5
47449.7
48645.4
49562.6
50087.3
50314.7
50341.1
50331.3
50301.6
50199.2
50085.9
49903.6
49681.3
49366.7
48952.9
48378.6
47584.6
46444.4
44823.3
42802.1
40994.2
39881.2
39160.2
38560
38122.9
37854.6
37782.4
37781.5
37824.4
37961.7
38216.2
38571
39001.4
39471
39957.5
40431.8
40872.8
41249.7
41539.7
41734.7
41847.6
41885
25994.9
26013.5
26025.5
26032.6
26036.1
26037.5
26037.7
26037.4
26036.2
26033.9
26030.3
26025.3
26019.1
26011.7
26003.4
25994.4
25984.9
25975.4
25966.5
25958.8
25953
25949.2
25947.5
25947.1
25947.7
25950
25953.6
25956.6
25959.7
25964.1
25968.6
25974.4
25981.3
25991.8
26006.8
26025.3
26045.2
26065.3
26087.6
26115.2
26144.1
26176
26214.9
26269.7
26354.5
26488.9
26735.8
27193.3
27993.1
29255.4
31003.3
33126.2
35187.3
37213.6
39098.1
40923.9
42618.2
44254.7
45770.4
47168.7
48346.1
49247.9
49774.9
50015.7
50064.8
50064.5
50036.8
49955.9
49843.4
49662.1
49431.1
49100.3
48662.5
48048.9
47201.3
46003.3
44410.2
42629.5
41129
40109.9
39353.6
38755.7
38375.3
38195.6
38159.9
38162
38212.3
38348.7
38583.5
38906
39297.5
39727.6
40173.3
40603.2
40994.8
41326.1
41579.4
41748.9
41848.1
41881.5
26052.8
26074.9
26089.1
26096.7
26099.9
26100.7
26100.5
26099.3
26096.6
26092.3
26086.6
26079.9
26072.5
26065
26057.7
26050.9
26044.4
26037.7
26031
26024.5
26018.2
26012.2
26006.3
26000.8
25995.7
25991.4
25988.7
25988.1
25988.1
25989.6
25992
25996.6
26002.3
26009.9
26018.6
26029
26040.9
26055.1
26071.6
26091.3
26115.4
26147.7
26193.3
26260.1
26363.6
26542.5
26855.3
27387.8
28238.9
29486.1
31132.2
33126.9
35100.7
37042.6
38886.4
40674.4
42355.6
43978.2
45488.1
46873
48033.2
48917.4
49449.9
49709.7
49785.6
49790.3
49770.8
49708.7
49601.5
49428.2
49194.1
48856.5
48401
47759.5
46875.2
45655.8
44128.7
42547.8
41246.9
40283.8
39525.7
38958.3
38627.2
38495.3
38472.9
38478.3
38533.4
38666
38886.9
39185.5
39545.3
39940.6
40346.9
40739.6
41095
41389.9
41612.1
41760.3
41848.1
41878.3
26113.8
26143.1
26164.4
26178.3
26186.8
26191.2
26193
26193.4
26193.2
26192.1
26189.7
26185.5
26179.5
26171.3
26161.2
26149.5
26136.9
26124.3
26112
26100
26088.5
26077.5
26067.1
26057.5
26048.7
26041
26034.8
26030.8
26027.5
26026.2
26025.5
26025.6
26026
26027.4
26030
26034.5
26041
26051
26064.1
26081.9
26106
26140.8
26192.1
26274
26408.2
26631.9
26998.7
27580.1
28450
29659.5
31212.6
33107.8
34993.5
36857.1
38658.3
40410
42075.8
43684.9
45186.2
46557.6
47702.1
48575.7
49117
49398.6
49497.5
49509.1
49496.7
49446.7
49344.2
49176.5
48937.4
48590.9
48115.1
47446
46534.5
45326.6
43909
42518.8
41354.6
40435.2
39706.2
39189.6
38908.9
38808.3
38791.4
38798.7
38852.8
38977.8
39181.4
39455.2
39783.2
40142.9
40511.7
40865.1
41182.1
41443.6
41639.1
41769.5
41847.7
41875.2
26206.6
26248.7
26281.3
26304.8
26320.8
26330.7
26336.1
26338.5
26339.2
26339.2
26338.5
26336.3
26332.3
26326
26317.3
26306.1
26292.4
26276.4
26258.4
26238.8
26218.2
26196.9
26175.4
26154.3
26133.9
26114.8
26097.9
26084.7
26072.4
26062.9
26055.8
26051.6
26049.2
26048.3
26048.2
26048.8
26051.2
26056.6
26066.5
26083
26109.1
26150.3
26215.3
26319.2
26485.1
26747.9
27154.8
27764.1
28630.3
29792.1
31260.5
33067.3
34869.1
36662.2
38418.6
40135.2
41783.9
43377.6
44868.9
46224.2
47355
48222
48777.2
49083.6
49206.4
49227.4
49221.5
49181.4
49086.2
48925
48684.3
48332.3
47841.3
47154.9
46235.1
45065.5
43761.1
42516
41452.4
40579.5
39893.9
39425.1
39179.9
39095.2
39081.6
39090.1
39142.4
39259.7
39447.1
39698.3
39997.5
40324.9
40658.4
40976.4
41258.5
41489.9
41662
41777.1
41847.1
41872.2
26329.1
26391.1
26442.3
26482.4
26511.9
26532.1
26544.6
26551.4
26554.2
26554.8
26554.6
26553
26548.8
26541.5
26530.4
26515.2
26495.9
26472.7
26445.9
26416
26383.6
26349.4
26314.3
26278.9
26244
26210.3
26179.4
26154.2
26130
26109.6
26093.9
26082.9
26075.8
26071.7
26070.2
26070
26070.9
26074.6
26083.7
26101.4
26132.3
26183
26264.2
26391
26586
26880.8
27315.7
27936.5
28785.7
29896.1
31286
33007.5
34727.1
36453.5
38163.5
39845.8
41475.5
43053.5
44532.7
45871.8
46991.1
47856
48428.2
48761.6
48910.1
48943.9
48942.4
48910.4
48823.3
48668.1
48426.7
48070
47566.9
46871.5
45961.2
44851.8
43662.8
42534.5
41550.7
40729.5
40092.9
39667.9
39449
39373
39360.5
39368.8
39417
39524.7
39695.4
39924
40195
40491.1
40790.9
41075.2
41325.5
41530
41681.7
41783.7
41846.4
41869.3
26466.7
26553.1
26628.3
26690.4
26738.7
26774.1
26797.8
26812
26819
26821.5
26821.7
26820.8
26817.2
26809.4
26796.2
26777.1
26751.7
26720
26682.6
26640
26593.2
26543
26490.6
26437.1
26383.8
26331.5
26282.6
26241.6
26202.4
26168.7
26142.2
26122.8
26109.5
26101.3
26097.5
26096.5
26097
26100.7
26110.9
26132.2
26170.2
26232.9
26331.5
26480.9
26702.4
27023.1
27476.3
28097.6
28922.6
29980.8
31296.7
32932.6
34570.4
36231.1
37892.5
39540.8
41149.6
42711.4
44176.9
45500
46609.7
47475.9
48068.1
48431.6
48609.5
48660
48661.7
48637.3
48559.4
48411
48171.9
47813.6
47305.3
46612.2
45727.4
44687.8
43603.2
42571.6
41656.9
40889.1
40299
39907.9
39705.7
39633.8
39621.2
39628.6
39672.1
39769.8
39924.1
40130.9
40375.2
40641.6
40909.9
41162.9
41384.5
41565
41698.9
41789.4
41845.7
41866.8
26604.7
26717.9
26820.9
26910
26983.1
27039.9
27080.9
27107.8
27123.2
27130.2
27132.2
27132.2
27130.1
27123.7
27110.7
27089.6
27059.7
27020.7
26972.4
26915.6
26852.4
26784.1
26711.4
26636
26559.7
26484
26411.9
26350.3
26291
26239.8
26198.8
26168.1
26146.6
26133.2
26126.5
26124.4
26124.7
26128.7
26141
26167.1
26214.1
26290.5
26407.9
26580.5
26826.6
27168.7
27633.4
28249.4
29046.7
30053.4
31298.8
32846.3
34400.6
35993.9
37604.2
39217.5
40803.9
42349
43799.8
45107.5
46209.2
47079.4
47693.7
48090
48301.7
48373.1
48379.8
48362.6
48294.5
48153.7
47919.4
47562.9
47056.5
46376.8
45530.6
44565.9
43576
42626.3
41775.7
41060.3
40511.3
40146
39953.1
39881.5
39867.4
39873.2
39911.1
39997.9
40135.7
40321.1
40539.8
40777.8
41016.6
41241
41436.6
41595.8
41714
41794.4
41845.2
41864.4
26726.5
26864.4
26995.3
27114.1
27217.3
27302.9
27369.7
27418.3
27450.2
27468.5
27476.7
27478.9
27478.7
27475.3
27465.3
27445.7
27414.7
27371.1
27314.2
27244.9
27165.7
27077.7
26981.4
26879.7
26775.1
26670.5
26569.7
26482.6
26399.2
26326.9
26268.5
26223.9
26192.1
26171.2
26160.1
26156.3
26156.2
26160.1
26173.7
26204.2
26259.9
26350.2
26486.1
26680.4
26949.5
27311.5
27785.6
28394.2
29163.2
30119.8
31296.9
32752.9
34220.5
35742.7
37297.9
38874
40436.4
41964.6
43400.3
44693.5
45788.6
46664.2
47301.9
47733.7
47984.2
48082.5
48097.8
48087.4
48029.9
47898.8
47672.7
47323.2
46826.8
46170.9
45372.6
44482.4
43574
42698.2
41908.7
41242.3
40727.7
40379.8
40190.2
40115.3
40098.3
40102
40133.7
40209.2
40330.8
40495.3
40689.6
40900.9
41112.3
41310.5
41483
41623.2
41727.6
41799.1
41844.7
41862.4
26829.4
26987.1
27142.2
27289.2
27424.2
27543.6
27644.4
27724.8
27784.3
27824.3
27847.3
27857.7
27860.3
27859.8
27854.2
27839.4
27811.9
27769.2
27709.9
27633.5
27540.4
27431.4
27309.3
27177.2
27039.5
26900.6
26766.6
26650.5
26535.7
26433.8
26349.5
26283.7
26236
26204.4
26187.5
26181.2
26180.7
26184.2
26198.7
26232.9
26296.6
26400.8
26557
26777.2
27071.2
27450.3
27930.3
28533.3
29276.8
30185.7
31294
32655.9
34032.7
35477.5
36972.2
38507
40043.7
41554.7
42975.3
44255.4
45345.4
46227.4
46888.9
47358.1
47653.1
47786.8
47816.8
47812.8
47766.7
47648.2
47434.1
47097.2
46619
45995.7
45250.7
44432.3
43595.3
42787.8
42056.4
41434.4
40947.8
40610.4
40418.4
40336.5
40314.6
40316
40341.1
40404.9
40510.4
40654.6
40825.8
41012.2
41198.3
41372.6
41524.3
41647.7
41739.9
41803.4
41844.5
41860.7
26915
27086.4
27259.5
27429.5
27592.5
27745
27882.8
28002.3
28100.4
28175.5
28227.5
28258.8
28273.5
28277.4
28277
28270.2
28251.5
28216.3
28160.6
28082.1
27979.4
27853.3
27706.2
27542.1
27366.8
27186.6
27009.8
26852.7
26697.8
26560.6
26446.8
26357.4
26292.1
26247.3
26221.5
26210.9
26209.5
26212.2
26226.3
26261.9
26329.7
26441.7
26609.9
26846.6
27162.8
27568
28069.3
28670.5
29391.2
30256.2
31294.5
32560.6
33842.5
35202.1
36628.5
38116
39624.5
41118.8
42526.2
43794.8
44880.8
45768.5
46452.4
46958.7
47303.1
47483.2
47538.8
47539.9
47506.5
47404.3
47206.6
46889
46436.4
45852.5
45163
44412.2
43640.5
42895.5
42217.8
41635.5
41171.1
40838.4
40639.6
40546.3
40516.5
40515.5
40533.6
40585.7
40675.2
40799.8
40949.1
41112.2
41275.4
41428.2
41561.2
41669.7
41751.1
41807.5
41844.5
41859.2
26988.5
27168.3
27352.8
27538
27721.1
27899.5
28069.3
28226.7
28366.9
28486
28580.8
28649.7
28693.5
28715.8
28722.9
28722.9
28716.1
28694.9
28652.4
28583
28482.7
28349.4
28183.6
27989.2
27772.9
27543.6
27312.9
27102.6
26895.2
26712.3
26561.2
26442.2
26355.7
26294.8
26257.8
26239
26234.7
26237.5
26251.6
26288.3
26359.6
26478
26656
26905.5
27236.6
27657.8
28174.9
28790.4
29505.8
30331.8
31303
32471.4
33652.7
34916.1
36263.1
37694.2
39170.6
40648
42042.6
43301.3
44386.6
45281.4
45988
46531.7
46929.3
47166.4
47262.1
47272.7
47252.5
47170.2
46993.6
46701.7
46281.5
45741.5
45107.5
44416.7
43706.9
43020.6
42392
41844.9
41398
41065.6
40855.1
40746.3
40705.3
40700.1
40711.4
40751.8
40825.9
40931.8
41060.6
41202.4
41344.5
41477.9
41594.4
41689.6
41761.3
41811.5
41844.7
41858.1
27054.6
27238.9
27429.7
27623.5
27818.3
28012.9
28206.3
28393.8
28570.4
28733
28876.9
28997.2
29090
29153.4
29189.2
29203
29204.4
29199.5
29178
29129.8
29046
28919.6
28746.6
28527.8
28269.2
27982.5
27684.4
27405
27130.3
26889.5
26691.8
26534.9
26421.3
26341.1
26292.7
26266.5
26256.9
26259.8
26275
26310.1
26381.9
26504
26689.4
26949.8
27295.1
27731.4
28262.3
28887.4
29605.4
30415.6
31325.4
32397.8
33477.1
34635.6
35889.5
37250.5
38687.5
40149.5
41539.1
42791.8
43876.8
44775.8
45500
46075.9
46525.1
46827.5
46980.9
47015.7
47008.8
46948.9
46798.8
46538.5
46155.8
45662.4
45082.4
44446.3
43793.2
43160.6
42576.5
42060.9
41628.4
41293.2
41066.7
40938.4
40882.3
40869.6
40874.5
40903.6
40962.7
41050.9
41160.7
41282.9
41406.3
41522.4
41624
41707.4
41770.7
41815.3
41845.2
41857.4
27116
27303
27497.3
27695.5
27896.1
28099.8
28307
28512.8
28712.7
28905.9
29089.5
29258.5
29407
29528.9
29619.3
29676.3
29702.9
29708.6
29706.7
29687.5
29635.8
29537.4
29379.5
29154.2
28861.2
28511.4
28129.1
27759.5
27399.4
27084.5
26831.8
26629.8
26485.8
26383.5
26322.5
26290.2
26278.9
26279.5
26291.3
26324.5
26395.8
26519.2
26709.2
26977.4
27334.1
27784.5
28330.3
28967.7
29689.8
30487.5
31357.2
32341.2
33310.3
34346.1
35486.6
36759.6
38146.3
39591
40974.2
42221.8
43314.5
44223.9
44970.8
45582.9
46086.1
46460.9
46691.2
46775.9
46779.2
46743.4
46626.3
46402.2
46061.2
45615.2
45084.9
44501.5
43900.8
43317
42773
42285.2
41864.6
41524.1
41277.7
41125.2
41048.9
41024.1
41023.4
41041.6
41086.2
41157.8
41250.1
41354.6
41461.2
41562
41650.6
41723.5
41779.3
41818.9
41845.8
41856.9
27173.4
27362.4
27559.2
27760.5
27965
28173.4
28385.4
28598.4
28809.8
29019.1
29225.7
29427.1
29619.5
29797.6
29954.6
30082.6
30174.5
30227.4
30246.3
30246.9
30233.9
30181.6
30064.7
29859
29547.9
29133.9
28648.5
28165.5
27704.4
27294.8
26979.8
26725.2
26547.1
26419.7
26343.7
26303.2
26290.1
26289.6
26297.9
26329.3
26399.6
26523.2
26715.3
26988.5
27354.1
27816.7
28377.1
29029.5
29762.8
30559.1
31401.2
32314.1
33193.9
34114.1
35124
36278.7
37589.5
39014.9
40416.7
41670.4
42768.8
43683.7
44440
45072.1
45612.2
46051.9
46372.7
46540.9
46572.8
46560.7
46479.3
46296
45999.3
45599.5
45114
44577.4
44022.4
43481.1
42972.2
42509.2
42099.7
41754.3
41488.8
41308.5
41207.2
41165.8
41157.8
41166.6
41198.1
41254.5
41331.1
41419.7
41511.4
41598.6
41675.5
41739
41787.7
41822.6
41846.7
41856.8
27227.2
27418
27617.3
27821.4
28029.4
28240.9
28455
28670.8
28887.6
29104.9
29322.3
29539.3
29754.6
29965.8
30169.2
30358.4
30524.3
30655.6
30742.1
30781.3
30786.9
30778.6
30722.7
30577.6
30298.8
29852.5
29252.1
28610.5
28036.7
27508.4
27121.3
26812.8
26601.1
26449.4
26360
26311.7
26295.1
26293.4
26299.6
26328.5
26396.6
26519.1
26712.2
26988.6
27358.5
27828.8
28399.7
29064.8
29809.7
30609.9
31435.4
32284.4
33053.9
33828.4
34685.8
35700.4
36914.8
38307
39714.2
40974.4
42098.1
43033.2
43814.8
44490.1
45083.7
45605.7
46031.3
46310.1
46407.5
46411.4
46366.5
46228.4
45974.6
45616.5
45175.5
44683.3
44172.1
43669.1
43191.1
42750.5
42352.3
42004
41708.9
41493.2
41359.2
41296
41277.2
41278.9
41299.7
41343.2
41405.7
41480.5
41559.4
41634.8
41701.3
41755.8
41797.5
41827.5
41848.5
41857.5
27276.4
27469.3
27670.9
27877.5
28088.1
28302
28518.4
28736.5
28955.9
29176.2
29397.1
29618.3
29839.5
30060.3
30279.9
30496.9
30708.7
30909.6
31089.6
31233
31322.9
31353.6
31353.2
31304
31115.5
30684.7
29933.4
29047.9
28356.7
27717.6
27261.8
26906.4
26661.2
26486
26382.9
26325.5
26303.9
26299.7
26303.9
26330.3
26394.9
26513.8
26704.2
26980.4
27352
27825.9
28403.5
29078.7
29835.9
30649
31480.8
32324.4
33068.4
33761.1
34478.1
35319.6
36363.7
37654.6
39120.6
40431.2
41550.5
42500.7
43287
43964.2
44567.1
45119.2
45618
46031.7
46246.3
46293.8
46281.7
46186.4
45970.6
45651
45244.9
44790.3
44311.2
43838.5
43386.8
42964.6
42574.1
42217.7
41918.6
41673.8
41502.4
41411.4
41380.2
41377.3
41389.1
41421.5
41472.8
41536.7
41605.4
41671.5
41729.5
41776.2
41811.1
41835.9
41853.3
41860.9
27320.8
27516
27719.8
27928.4
28141
28356.7
28575
28795.2
29017.1
29240.2
29464.4
29689.2
29915
30141.5
30369.3
30598.4
30828.9
31059.7
31288.4
31507.5
31699.4
31832.4
31882.4
31882.3
31803.5
31493.8
30721.8
29484.9
28690.9
27927.4
27378.8
26980.6
26698.8
26510.5
26392.3
26327.4
26299.8
26293.2
26294.3
26312.6
26368.6
26478.3
26662.4
26936.3
27307.7
27784.5
28368.5
29052.4
29820.6
30645.2
31482.8
32300.2
32972.4
33530
33990.5
34510.9
35344.4
36623.2
38133.5
39484.8
40630.8
41646.5
42467.4
43195.8
43867
44516.9
45171.5
45767.7
46148.3
46286.1
46295
46236.4
46070
45786
45418.3
44991.6
44539.7
44087.7
43650.1
43239.5
42863.7
42525.8
42194
41889.4
41650.8
41513
41461.8
41454.3
41460.3
41484.7
41528
41584.1
41646.1
41706.3
41759.2
41800.9
41830.9
41851.1
41864.8
41870.6
27359.3
27556.6
27762.3
27972.3
28186.6
28404
28624.6
28847.4
29072.3
29298.8
29526.7
29755.8
29985.6
30215.3
30443.9
30670.2
30894.1
31116.9
31340.5
31567.1
31797.5
32026.8
32235.8
32376.1
32405.8
32344.2
31717.8
29783
28867.8
28067.6
27446
27040.7
26730
26537.9
26408.6
26346.2
26319
26315.4
26316.7
26333.6
26382.8
26491
26679.6
26948.8
27312.6
27787.2
28371
29057
29827.8
30656.5
31501.7
32350.3
33063.3
33620.4
34062.5
34536.7
35243.3
36284.6
37600.5
39095.8
40319.3
41318
42136.4
42857.5
43499.8
44118.6
44741.7
45379.3
45967.5
46243.6
46277.7
46242.7
46083.5
45822.4
45468.1
45059.6
44625.3
44195.3
43785.8
43397.9
43030.4
42665.4
42338.8
42044.7
41786.4
41608.6
41527.7
41511.7
41512.8
41530.6
41567.5
41618.5
41676.6
41734
41785.3
41826.4
41855.5
41873.3
41884.6
41889.2
27391.4
27591.3
27799.6
28011.6
28227.8
28446.6
28668.5
28892
29117.8
29344.8
29574
29803.8
30034.5
30263.5
30491
30717.3
30945.9
31177
31412.1
31652.9
31904.8
32174.9
32450
32678.2
32762.1
32743.8
32318.6
30135.4
29089.6
28230
27544.1
27108.6
26772.9
26562.6
26418.5
26344
26309.4
26302.9
26303.8
26318.6
26363.3
26454.6
26612.1
26863
27222
27686.8
28262.6
28943.1
29710.4
30538.1
31379.2
32229
32976.6
33593.4
33967.7
34052.1
34042.4
34062.9
35555.9
37715.9
39126
40213.2
41078.7
41857.5
42554.4
43243.4
44051.8
44958.8
45959.4
46437.2
46521.7
46508.5
46377.9
46103.1
45749.3
45361.1
44938.3
44522.5
44123.4
43730.7
43377.9
43046.6
42717.2
42389.6
42037.2
41729.3
41571.8
41529.3
41527.7
41549.9
41589.4
41636.8
41689.9
41744.8
41795.1
41838.1
41871.7
41895.3
41908.2
41911.5
42057
42058.3
42057.1
42057.7
42057.6
42057.7
42057.8
42057.9
42058
42058.1
42058.2
42058.3
42058.3
42058.4
42058.5
42058.5
42058.5
42058.6
42058.6
42058.5
42056
42057.8
42056.7
42057.4
42057.3
42057.5
42057.7
42057.9
42058.1
42058.3
42058.5
42058.6
42058.7
42058.8
42058.9
42059
42059.1
42059.1
42059.1
42059.1
42055.7
42056.8
42055.9
42056.5
42056.6
42057
42057.4
42057.8
42058.3
42058.7
42059
42059.3
42059.6
42059.8
42060
42060.1
42060.3
42060.4
42060.4
42060.4
42055.3
42055.9
42055
42055.8
42055.9
42056.5
42057.1
42057.8
42058.5
42059
42059.5
42060
42060.4
42060.7
42061
42061.3
42061.5
42061.6
42061.7
42061.8
42054.5
42054.8
42053.9
42054.7
42055.1
42055.9
42056.8
42057.7
42058.6
42059.4
42060.2
42060.8
42061.4
42061.9
42062.4
42062.8
42063.1
42063.3
42063.5
42063.6
42053.2
42053.3
42052.5
42053.4
42054.1
42055.2
42056.4
42057.7
42058.9
42060
42061
42061.9
42062.7
42063.5
42064.1
42064.7
42065.1
42065.4
42065.7
42065.9
42051.1
42051.2
42050.7
42051.8
42052.8
42054.3
42055.9
42057.6
42059.2
42060.7
42062
42063.3
42064.4
42065.4
42066.3
42067
42067.6
42068.1
42068.4
42068.6
42048.4
42048.7
42048.5
42049.8
42051.3
42053.2
42055.3
42057.5
42059.6
42061.5
42063.3
42064.9
42066.4
42067.7
42068.9
42069.8
42070.6
42071.2
42071.6
42071.9
42045.1
42045.7
42045.7
42047.5
42049.5
42052
42054.7
42057.5
42060.1
42062.5
42064.7
42066.8
42068.7
42070.4
42071.9
42073.1
42074.1
42074.9
42075.3
42075.7
42041.1
42042
42042.6
42044.8
42047.4
42050.6
42054
42057.5
42060.6
42063.6
42066.4
42069
42071.4
42073.5
42075.3
42076.8
42078.1
42079
42079.6
42080
42036.5
42037.8
42038.8
42041.7
42045.1
42049.1
42053.3
42057.5
42061.3
42065
42068.4
42071.5
42074.4
42076.9
42079.1
42081
42082.5
42083.6
42084.3
42084.7
42031.1
42032.9
42034.6
42038.2
42042.5
42047.4
42052.5
42057.6
42062.2
42066.5
42070.6
42074.4
42077.8
42080.8
42083.5
42085.7
42087.5
42088.8
42089.6
42090.1
42025.1
42027.3
42029.7
42034.3
42039.6
42045.6
42051.8
42057.7
42063.2
42068.3
42073.1
42077.6
42081.6
42085.2
42088.3
42090.9
42092.9
42094.5
42095.4
42096
42018.1
42020.9
42024.2
42030
42036.4
42043.7
42051
42058
42064.4
42070.4
42076.1
42081.2
42085.9
42090.1
42093.7
42096.6
42099
42100.8
42101.9
42102.5
42010.2
42013.7
42018
42025.1
42033
42041.7
42050.4
42058.4
42065.8
42072.9
42079.4
42085.4
42090.8
42095.5
42099.6
42103
42105.7
42107.7
42108.9
42109.6
42001.1
42005.5
42011
42019.8
42029.3
42039.7
42049.9
42059.1
42067.6
42075.7
42083.2
42090.1
42096.2
42101.6
42106.2
42110.1
42113.1
42115.4
42116.8
42117.5
41990.2
41996.2
42003.1
42014.1
42025.4
42037.7
42049.5
42060
42069.8
42079.1
42087.6
42095.4
42102.3
42108.4
42113.6
42117.9
42121.4
42123.9
42125.4
42126.2
41977
41985.5
41994.2
42007.8
42021.3
42035.8
42049.3
42061.2
42072.5
42083
42092.7
42101.4
42109.2
42116
42121.8
42126.7
42130.4
42133.2
42134.9
42135.8
41961.3
41973.4
41984.2
42001.2
42017.1
42034.1
42049.4
42062.9
42075.7
42087.6
42098.5
42108.3
42117
42124.6
42131
42136.3
42140.5
42143.6
42145.4
42146.4
41942.6
41959.6
41972.8
41994.1
42012.8
42032.7
42049.7
42065.2
42079.7
42093.1
42105.3
42116.2
42125.8
42134.2
42141.3
42147.1
42151.7
42155
42157
42158.1
41919.8
41944
41959.8
41986.9
42008.6
42031.7
42050.6
42068.2
42084.6
42099.6
42113.1
42125.2
42135.8
42145
42152.8
42159.1
42164.1
42167.7
42169.9
42171
41890.1
41926.6
41945.2
41979.7
42004.5
42031.2
42052.1
42072.1
42090.5
42107.2
42122.2
42135.5
42147.1
42157.1
42165.6
42172.5
42177.8
42181.7
42184
42185.3
41849.5
41907.4
41928.6
41973
42000.8
42031.2
42054.5
42077.3
42097.8
42116.2
42132.7
42147.2
42159.9
42170.8
42179.9
42187.3
42193.1
42197.2
42199.7
42201
41794.8
41887.5
41910.1
41967.3
41997.6
42032
42058.2
42083.9
42106.5
42126.9
42144.9
42160.7
42174.4
42186.1
42195.9
42203.8
42209.9
42214.3
42216.9
42218.3
41727.4
41868.9
41890.2
41963.2
41995.1
42034.1
42063.5
42092.3
42117.2
42139.4
42159
42176
42190.7
42203.2
42213.6
42222
42228.5
42233.2
42235.8
42237.2
41667.3
41852.9
41871.2
41960.8
41993.8
42038
42070.7
42102.7
42129.8
42154.1
42175.1
42193.4
42209
42222.3
42233.3
42242.1
42248.9
42253.8
42256.4
42258
41629.1
41839.3
41856.3
41960
41993.8
42044.4
42080.3
42115.6
42144.9
42171
42193.5
42212.9
42229.5
42243.4
42254.9
42264.2
42271.2
42276.3
42278.9
42280.6
41608.9
41829.6
41848
41960.2
41995.7
42053.7
42092.7
42131.2
42162.6
42190.5
42214.2
42234.7
42252.1
42266.7
42278.6
42288.2
42295.5
42300.7
42303.3
42305
41600.9
41825.1
41845.2
41962.5
42001.2
42066.3
42108.5
42149.9
42183.2
42212.7
42237.6
42259
42277
42292.1
42304.5
42314.3
42321.7
42327.1
42329.8
42331.4
41599.9
41824.7
41845.5
41969.2
42011.9
42083.1
42128
42172.2
42207.1
42238
42263.8
42285.9
42304.5
42319.9
42332.5
42342.5
42350.1
42355.4
42358.2
42359.8
41602.5
41827.6
41851.1
41982.9
42029.2
42104.8
42151.6
42198.2
42234.4
42266.4
42293
42315.6
42334.5
42350.1
42362.9
42373
42380.5
42385.9
42388.6
42390.1
41618.5
41840.9
41867.6
42005.7
42053.9
42132.3
42180
42228.3
42265.3
42298.2
42325.2
42348.1
42367.1
42382.8
42395.5
42405.6
42413.1
42418.3
42421
42422.4
41656.7
41870.8
41898.8
42038.8
42087
42166.3
42213.7
42263
42300.1
42333.3
42360.4
42383.3
42402.3
42417.9
42430.5
42440.4
42447.7
42452.8
42455.3
42456.7
41718.2
41919.2
41945.9
42082.6
42129
42207.3
42253.3
42302.5
42339
42372
42398.7
42421.3
42440
42455.3
42467.6
42477.2
42484.3
42489.2
42491.5
42492.8
41798.1
41983.9
42007.6
42136.7
42179.9
42255.3
42298.9
42346.9
42382.1
42414.2
42440.1
42462.1
42480.2
42495
42506.8
42516
42522.8
42527.4
42529.5
42530.7
41891.6
42061.1
42081.2
42200.1
42239.3
42309.9
42350.3
42396.2
42429.4
42460.1
42484.6
42505.6
42522.7
42536.8
42548
42556.6
42563
42567.3
42569.1
42570.2
41994.8
42147.4
42164.1
42271.6
42306.1
42370.6
42407.3
42450.1
42480.6
42509.3
42532.1
42551.6
42567.6
42580.6
42591
42599
42604.8
42608.6
42610.1
42611
42104.6
42240.5
42254
42349.5
42379.3
42436.6
42469.3
42508
42535.5
42561.6
42582.3
42600
42614.5
42626.3
42635.6
42642.8
42648
42651.3
42652.5
42653.2
42219.3
42338.6
42349.3
42432.5
42457.5
42507.1
42535.5
42569.5
42593.6
42616.6
42634.8
42650.5
42663.3
42673.6
42681.8
42688
42692.4
42695.2
42696
42696.4
42337.8
42440.5
42448.5
42519.4
42539.8
42581.3
42605.1
42634.1
42654.3
42674
42689.5
42702.8
42713.6
42722.4
42729.2
42734.4
42737.9
42740.1
42740.4
42740.7
42459.7
42545.6
42550.7
42609.2
42624.9
42658.3
42677.5
42701
42717.3
42733.3
42745.7
42756.5
42765.2
42772.2
42777.6
42781.6
42784.2
42785.7
42785.6
42785.6
42584.3
42653.2
42655.2
42701.5
42712.2
42737.4
42751.9
42769.6
42781.9
42793.9
42803.3
42811.3
42817.7
42822.8
42826.6
42829.4
42831.1
42831.9
42831.2
42831
42711.2
42762.6
42761.1
42795.6
42800.8
42818.1
42827.6
42839.5
42847.5
42855.6
42861.6
42866.8
42870.8
42873.9
42876.1
42877.5
42878.2
42878.2
42877.1
42876.6
42839.8
42873.4
42867.8
42891
42890.1
42899.7
42904.1
42910.2
42913.9
42917.7
42920.4
42922.6
42924.2
42925.2
42925.7
42925.7
42925.3
42924.6
42922.9
42922.2
42969.6
42985.2
42975
42987.2
42979.7
42981.9
42980.6
42981
42980.3
42979.9
42979.2
42978.4
42977.4
42976.3
42975
42973.6
42972.1
42970.6
42968.4
42967.6
43100
43097.8
43082.4
43083.7
43068.8
43064.5
43056.5
43051.9
43046.2
43041.8
43037.5
43033.7
43030.1
43026.9
43023.8
43021
43018.4
43016.1
43013.5
43012.4
43230.8
43210.8
43189.3
43180
43157.1
43146.9
43131.8
43122
43111.3
43102.9
43095
43088.2
43082.1
43076.7
43071.9
43067.6
43063.9
43060.9
43057.7
43056.5
43363
43322.3
43295.1
43275.5
43244.7
43227.9
43206
43190.8
43175.3
43162.9
43151.4
43141.7
43133
43125.4
43118.9
43113.3
43108.4
43104.7
43101.1
43099.7
43495.1
43432.9
43400.7
43368.4
43331
43306.8
43278.6
43258.2
43237.9
43221.5
43206.6
43193.8
43182.6
43173
43164.7
43157.7
43151.8
43147.4
43143.3
43141.8
43628.5
43542.2
43504.7
43458.7
43415.5
43383.3
43349.4
43323.7
43298.8
43278.5
43260.1
43244.5
43230.8
43219.1
43209.2
43200.8
43193.9
43188.7
43184.2
43182.6
43760.3
43649.8
43606.6
43546.3
43497.7
43457.3
43418.1
43387
43357.8
43333.7
43312
43293.5
43277.4
43263.7
43252.1
43242.4
43234.5
43228.6
43223.7
43221.9
43890
43753.7
43705.6
43630.8
43577
43528.5
43484.3
43448.1
43414.7
43386.8
43361.9
43340.7
43322.3
43306.6
43293.4
43282.4
43273.5
43266.9
43261.6
43259.7
44011.7
43854
43800.7
43711.9
43653.2
43596.8
43547.9
43506.6
43469.3
43437.8
43409.8
43386
43365.3
43347.7
43332.9
43320.7
43310.8
43303.6
43297.8
43295.9
44106.2
43947.3
43888.3
43788.5
43725.5
43661.7
43608.6
43562.5
43521.5
43486.6
43455.7
43429.3
43406.4
43387
43370.6
43357.2
43346.4
43338.5
43332.4
43330.4
44176.2
44029.3
43965.6
43859.5
43792.7
43722.6
43665.9
43615.4
43571.1
43532.9
43499.3
43470.5
43445.6
43424.4
43406.6
43392
43380.2
43371.7
43365.2
43363.1
44230
44098.5
44031.9
43923.7
43854.1
43779.2
43719.5
43665.1
43617.8
43576.7
43540.6
43509.6
43482.7
43459.9
43440.7
43425
43412.3
43403.2
43396.2
43394
44272.2
44155.8
44088
43980.6
43909.2
43830.9
43768.8
43711.2
43661.4
43617.8
43579.4
43546.4
43517.7
43493.4
43472.8
43456
43442.6
43432.8
43425.5
43423.1
44305.8
44202.6
44134.8
44029.9
43957.6
43877.4
43813.7
43753.5
43701.7
43655.8
43615.6
43580.7
43550.5
43524.7
43503
43485.2
43470.9
43460.5
43452.9
43450.3
44332.4
44240.5
44173.4
44072
43999.5
43918.5
43853.8
43791.8
43738.5
43690.7
43648.9
43612.5
43580.8
43553.8
43531
43512.3
43497.2
43486.3
43478.3
43475.6
44352.2
44270.4
44204.5
44107.2
44035
43954.2
43889.1
43825.9
43771.6
43722.4
43679.3
43641.6
43608.8
43580.7
43556.8
43537.2
43521.5
43510.1
43501.8
43498.9
44368.1
44293.9
44229.1
44135.9
44064.7
43984.7
43919.6
43855.8
43800.9
43750.7
43706.7
43667.9
43634.2
43605.1
43580.3
43560
43543.7
43531.9
43523.3
43520.3
44380.3
44311.7
44248.2
44158.7
44088.9
44010.3
43945.5
43881.7
43826.5
43775.7
43731.1
43691.5
43656.9
43626.9
43601.4
43580.5
43563.7
43551.5
43542.8
43539.6
44389.2
44324.8
44262.2
44176.5
44107.9
44031
43967.1
43903.6
43848.4
43797.3
43752.4
43712.2
43676.9
43646.3
43620.2
43598.8
43581.6
43569.1
43560.2
43556.8
44395.1
44333.8
44271.7
44189.7
44122.1
44047.3
43984.4
43921.5
43866.8
43815.7
43770.6
43730
43694.2
43663.1
43636.7
43614.9
43597.4
43584.6
43575.6
43572
44398.5
44338.9
44277.5
44198.5
44132.2
44059.5
43997.7
43935.8
43881.6
43830.7
43785.7
43744.9
43708.8
43677.5
43650.7
43628.6
43610.9
43597.9
43588.8
43585.1
44399.6
44340.7
44280.1
44203.5
44138.7
44067.9
44007.3
43946.5
43893
43842.6
43797.8
43756.9
43720.8
43689.3
43662.4
43640.1
43622.2
43609
43600
43596.2
44398.9
44340.4
44280.5
44205.4
44141.9
44072.9
44013.6
43954
43901.3
43851.5
43806.9
43766.1
43730.1
43698.6
43671.6
43649.3
43631.3
43618.1
43609.1
43605.1
44394.2
44336.5
44278.8
44205.3
44142.6
44075.1
44016.9
43958.5
43906.7
43857.5
43813.3