/*--------------------------------*- C++ -*----------------------------------*\
  =========                 |
  \\      /  F ield         | OpenFOAM: The Open Source CFD Toolbox
   \\    /   O peration     | Website:  https://openfoam.org
    \\  /    A nd           | Version:  7
     \\/     M anipulation  |
\*---------------------------------------------------------------------------*/
FoamFile
{
    version     2.0;
    format      ascii;
    class       volScalarField;
    location    "0.12";
    object      rho;
}
// * * * * * * * * * * * * * * * * * * * * * * * * * * * * * * * * * * * * * //

dimensions      [1 -3 0 0 0 0 0];

internalField   nonuniform List<scalar> 
48560
(
0.39576
0.395859
0.395927
0.395971
0.395994
0.396001
0.395996
0.395981
0.395959
0.39593
0.395896
0.395857
0.395814
0.395767
0.395716
0.395661
0.395601
0.395537
0.395468
0.395394
0.395313
0.395225
0.39513
0.395026
0.394913
0.394791
0.394654
0.394469
0.394199
0.393903
0.393566
0.39317
0.392695
0.392082
0.39125
0.390304
0.389199
0.388021
0.386814
0.385799
0.384656
0.383382
0.381872
0.379873
0.377309
0.374005
0.370667
0.369448
0.37165
0.377135
0.393968
0.456578
0.47882
0.504481
0.525055
0.544197
0.559968
0.576124
0.589022
0.602435
0.611734
0.621262
0.623464
0.624892
0.62469
0.622236
0.620683
0.619322
0.617188
0.615379
0.613316
0.610978
0.608007
0.604282
0.599226
0.59235
0.582754
0.567765
0.539769
0.501116
0.501342
0.512874
0.508141
0.506709
0.499977
0.496599
0.494405
0.496176
0.498695
0.505879
0.51455
0.523123
0.53122
0.538779
0.545492
0.551377
0.556286
0.560239
0.563025
0.564144
0.395712
0.395811
0.395868
0.395898
0.395899
0.395884
0.39585
0.395805
0.395748
0.395683
0.39561
0.395531
0.395443
0.395348
0.395243
0.395128
0.395003
0.394866
0.394717
0.394557
0.394383
0.394195
0.39399
0.393768
0.393524
0.393255
0.392952
0.392549
0.391888
0.391125
0.390268
0.389284
0.388211
0.387036
0.385874
0.384643
0.383419
0.382058
0.380622
0.378949
0.377034
0.374951
0.372657
0.37059
0.370045
0.372285
0.375489
0.379607
0.382739
0.391636
0.413436
0.458051
0.478984
0.506137
0.524845
0.545497
0.560704
0.577696
0.590566
0.604394
0.614127
0.623413
0.626019
0.628241
0.628055
0.625264
0.625263
0.624311
0.622797
0.621659
0.619786
0.617893
0.614942
0.611379
0.605988
0.598769
0.587536
0.569656
0.544783
0.526713
0.523833
0.520819
0.517751
0.514189
0.510577
0.510225
0.510312
0.511972
0.514684
0.519682
0.524893
0.531623
0.537883
0.544414
0.549895
0.554995
0.558783
0.561755
0.563568
0.564166
0.39506
0.395157
0.395186
0.395191
0.395149
0.395092
0.395003
0.394908
0.39479
0.394668
0.394523
0.394366
0.394185
0.393987
0.393764
0.39352
0.393247
0.392944
0.392598
0.392234
0.391832
0.391402
0.390932
0.39043
0.389888
0.389313
0.388699
0.387979
0.386961
0.385998
0.384902
0.383819
0.382591
0.381312
0.379868
0.378289
0.376648
0.374875
0.373117
0.371303
0.370065
0.369867
0.371387
0.374118
0.378178
0.381164
0.384416
0.387191
0.392466
0.403492
0.42608
0.45898
0.482015
0.507834
0.526543
0.546614
0.562261
0.57877
0.592199
0.60573
0.616044
0.624706
0.627985
0.630095
0.629996
0.628038
0.629029
0.627671
0.62702
0.6257
0.624342
0.622245
0.619437
0.615447
0.609799
0.601645
0.589223
0.57001
0.546082
0.531062
0.527346
0.524079
0.519414
0.515323
0.511869
0.511863
0.511948
0.513724
0.516587
0.52147
0.52688
0.53315
0.539124
0.545188
0.550534
0.555491
0.559303
0.562118
0.563706
0.564183
0.393162
0.393241
0.393199
0.393141
0.392991
0.392841
0.392625
0.392416
0.392149
0.391875
0.391544
0.391202
0.39081
0.390406
0.389962
0.38951
0.389032
0.388552
0.388063
0.387557
0.387032
0.386489
0.385912
0.385309
0.384673
0.384008
0.383304
0.382534
0.38139
0.380176
0.378841
0.37746
0.375977
0.374513
0.372955
0.371492
0.370331
0.369675
0.370328
0.371274
0.373605
0.375973
0.37882
0.381519
0.383858
0.385468
0.387541
0.390685
0.397104
0.410348
0.432584
0.460846
0.483086
0.507356
0.526045
0.545843
0.561845
0.578386
0.592262
0.605877
0.616638
0.625232
0.629186
0.631232
0.63119
0.630009
0.631096
0.629378
0.629218
0.627296
0.626018
0.623167
0.62012
0.615231
0.608996
0.599607
0.586206
0.567546
0.548933
0.537347
0.531685
0.527092
0.522568
0.520002
0.518796
0.519139
0.519468
0.521178
0.523757
0.527767
0.532346
0.537769
0.543056
0.548406
0.553046
0.557173
0.560257
0.562494
0.563797
0.564189
0.38946
0.389471
0.38937
0.38923
0.389012
0.388777
0.38849
0.388199
0.387859
0.387507
0.387107
0.386693
0.386234
0.385759
0.385243
0.384711
0.384138
0.383545
0.382912
0.382251
0.381548
0.380809
0.380047
0.37927
0.378474
0.377663
0.376831
0.376004
0.374766
0.373569
0.372389
0.371412
0.370669
0.370533
0.370775
0.371573
0.372884
0.374566
0.376145
0.378306
0.380344
0.382205
0.383782
0.385047
0.386184
0.387601
0.389873
0.394084
0.402228
0.416392
0.437316
0.46266
0.484429
0.507164
0.526122
0.54523
0.561626
0.577874
0.592133
0.605605
0.616538
0.624882
0.629196
0.631205
0.631328
0.630765
0.631537
0.630088
0.629971
0.628002
0.626729
0.62367
0.620523
0.615263
0.60869
0.598573
0.584711
0.566804
0.551136
0.541201
0.534874
0.52933
0.525096
0.522859
0.522225
0.522501
0.522971
0.524589
0.527153
0.530918
0.535233
0.540102
0.544961
0.549827
0.554206
0.558012
0.5608
0.562706
0.563818
0.564156
0.385143
0.385107
0.384983
0.38477
0.384498
0.384172
0.383808
0.383413
0.382979
0.382511
0.381997
0.381449
0.380856
0.380235
0.379573
0.378889
0.378171
0.377436
0.376678
0.375924
0.375175
0.374464
0.373789
0.373166
0.372619
0.372207
0.371988
0.372297
0.372051
0.372492
0.37284
0.373713
0.37456
0.375571
0.37673
0.3781
0.379473
0.380787
0.381996
0.383188
0.384114
0.384942
0.385645
0.386448
0.38754
0.389173
0.392106
0.3974
0.406613
0.420936
0.440533
0.463837
0.484982
0.506464
0.525242
0.543955
0.560398
0.57661
0.590964
0.604457
0.615368
0.623676
0.628185
0.630327
0.630659
0.630384
0.63081
0.629736
0.629368
0.62748
0.625962
0.622783
0.619328
0.613726
0.606631
0.595983
0.582325
0.566493
0.553456
0.544179
0.537503
0.531954
0.528452
0.526858
0.526604
0.526735
0.527296
0.528786
0.53117
0.53451
0.538451
0.542844
0.547301
0.551636
0.555491
0.558774
0.5612
0.562839
0.563813
0.564116
0.380833
0.380681
0.380521
0.38019
0.379862
0.379434
0.379021
0.378539
0.378052
0.377511
0.376962
0.376386
0.375819
0.375263
0.374753
0.374311
0.373977
0.373768
0.373613
0.373595
0.37367
0.373892
0.374217
0.37468
0.375234
0.375876
0.376535
0.377429
0.37767
0.37876
0.379193
0.380292
0.380793
0.381787
0.382338
0.383204
0.383672
0.384355
0.38473
0.385278
0.385603
0.386139
0.386709
0.387579
0.388819
0.390967
0.394609
0.400759
0.41046
0.424521
0.442856
0.464695
0.485105
0.505617
0.524153
0.542434
0.5589
0.574975
0.589404
0.602788
0.613635
0.621841
0.626526
0.628858
0.629462
0.629343
0.629631
0.628886
0.628384
0.626697
0.625023
0.621887
0.618181
0.612395
0.604874
0.594012
0.580761
0.566631
0.555227
0.54637
0.539619
0.534314
0.531298
0.530062
0.529936
0.530024
0.530651
0.532039
0.534303
0.537355
0.540987
0.544988
0.549051
0.55299
0.556496
0.559394
0.561521
0.562943
0.563805
0.564079
0.378007
0.377909
0.377866
0.377648
0.377504
0.377258
0.377107
0.376919
0.376845
0.376771
0.376802
0.376852
0.376999
0.377174
0.377431
0.377706
0.378022
0.378337
0.378762
0.379195
0.379703
0.380212
0.380758
0.381289
0.381822
0.382324
0.38281
0.383464
0.383295
0.384051
0.384078
0.384641
0.384662
0.385101
0.385146
0.385494
0.385565
0.385874
0.386014
0.386344
0.386626
0.387138
0.387741
0.388795
0.390364
0.393026
0.397246
0.40392
0.41374
0.427311
0.444505
0.465215
0.484795
0.50445
0.522662
0.540567
0.556989
0.572951
0.587395
0.600679
0.611451
0.619612
0.624464
0.627017
0.627858
0.627866
0.628099
0.627559
0.626985
0.625428
0.623605
0.620445
0.616456
0.61045
0.602588
0.591833
0.579454
0.567005
0.556686
0.548217
0.541691
0.536869
0.53432
0.533378
0.533276
0.53337
0.533969
0.535258
0.537335
0.540111
0.543413
0.547035
0.550716
0.554238
0.557355
0.559913
0.561782
0.563027
0.563795
0.564045
0.378856
0.379303
0.379719
0.380052
0.380388
0.380675
0.381
0.381308
0.381679
0.382051
0.382486
0.382905
0.38336
0.38378
0.384211
0.38459
0.384963
0.385281
0.385588
0.385833
0.386062
0.386229
0.386379
0.386474
0.386555
0.386592
0.386631
0.386746
0.386336
0.386585
0.386448
0.386601
0.386519
0.386669
0.386624
0.386769
0.386758
0.386944
0.387037
0.387343
0.387637
0.388224
0.388976
0.390274
0.392183
0.395277
0.399904
0.406839
0.416546
0.42952
0.445693
0.465404
0.484169
0.503073
0.520911
0.538468
0.554808
0.570644
0.585074
0.598231
0.608941
0.617084
0.622136
0.624941
0.626028
0.626158
0.626388
0.625995
0.625422
0.623972
0.622069
0.618892
0.614703
0.608552
0.600535
0.590094
0.578619
0.567433
0.557931
0.549899
0.54373
0.539357
0.53712
0.536335
0.536242
0.536355
0.536912
0.538122
0.54002
0.542566
0.545566
0.548859
0.552177
0.555341
0.558104
0.560359
0.562002
0.563097
0.563783
0.564013
0.38326
0.384271
0.385078
0.385877
0.386504
0.38711
0.387597
0.388071
0.388475
0.38888
0.389254
0.389614
0.389928
0.390193
0.390401
0.390541
0.390621
0.390628
0.39058
0.390465
0.39031
0.390102
0.389873
0.38961
0.389349
0.389075
0.388831
0.388667
0.38822
0.388203
0.387968
0.38798
0.387849
0.387919
0.387863
0.387969
0.387953
0.388101
0.388192
0.388494
0.388843
0.389516
0.390444
0.391972
0.394198
0.397609
0.402504
0.409513
0.41897
0.431311
0.446558
0.465305
0.483259
0.501462
0.518896
0.536124
0.552354
0.568067
0.582456
0.59549
0.606151
0.614316
0.619587
0.622663
0.624011
0.624276
0.624512
0.624223
0.623683
0.622308
0.620354
0.617138
0.612787
0.606545
0.598553
0.588632
0.578121
0.567954
0.559126
0.551584
0.545838
0.541885
0.539879
0.539183
0.539084
0.539197
0.539695
0.540809
0.542523
0.54484
0.547545
0.55052
0.553492
0.556314
0.558758
0.560745
0.56219
0.563157
0.563772
0.563982
0.388417
0.389714
0.390698
0.391704
0.392409
0.393101
0.393546
0.393983
0.394245
0.394525
0.3947
0.394907
0.395019
0.395116
0.395106
0.39505
0.394892
0.394678
0.394378
0.394031
0.393623
0.393182
0.392711
0.392232
0.391752
0.391288
0.390863
0.390548
0.390016
0.389805
0.389488
0.389377
0.389207
0.389199
0.38914
0.389203
0.389201
0.389312
0.389428
0.389732
0.390166
0.390934
0.392055
0.393799
0.396302
0.399945
0.405007
0.411964
0.421107
0.432811
0.447202
0.464981
0.482124
0.499638
0.516644
0.533549
0.549649
0.565236
0.579567
0.592481
0.603111
0.611327
0.616841
0.620217
0.621859
0.622291
0.622531
0.622329
0.621848
0.620542
0.618575
0.615341
0.610902
0.604664
0.59685
0.58753
0.577906
0.568588
0.560358
0.553316
0.547973
0.544343
0.542483
0.541827
0.541719
0.541822
0.542265
0.543275
0.544817
0.546913
0.549344
0.552018
0.55467
0.557176
0.559331
0.561082
0.562353
0.563209
0.563761
0.563955
0.392226
0.393685
0.394847
0.396011
0.396849
0.397637
0.39813
0.398577
0.398799
0.399015
0.399094
0.399217
0.39925
0.399289
0.399206
0.399086
0.398841
0.398538
0.398116
0.397637
0.397067
0.396449
0.395788
0.395105
0.394416
0.393738
0.393104
0.392604
0.391886
0.391461
0.391012
0.390752
0.390513
0.39042
0.390345
0.390368
0.390374
0.390463
0.39061
0.390944
0.391482
0.392375
0.393698
0.395656
0.398403
0.40223
0.407388
0.414233
0.423032
0.434115
0.447702
0.464485
0.480795
0.497604
0.514153
0.53073
0.546682
0.562145
0.576405
0.58921
0.599824
0.608116
0.61389
0.617593
0.619569
0.6202
0.620472
0.62034
0.619933
0.618696
0.616745
0.613515
0.609057
0.602918
0.595413
0.58675
0.577945
0.569349
0.561684
0.555127
0.550146
0.546759
0.544981
0.544326
0.544201
0.544283
0.544665
0.545561
0.546935
0.54881
0.550983
0.553368
0.555723
0.557938
0.559837
0.561376
0.562497
0.563255
0.563751
0.563929
0.394682
0.396303
0.397708
0.399094
0.400198
0.40121
0.401929
0.402536
0.402895
0.403181
0.403303
0.403422
0.403473
0.40354
0.403505
0.403409
0.403167
0.402828
0.402326
0.401717
0.400987
0.400204
0.399314
0.398391
0.397426
0.396473
0.395556
0.394813
0.393847
0.393195
0.392573
0.392156
0.391822
0.391634
0.391524
0.391511
0.391522
0.391591
0.391759
0.392122
0.392752
0.393768
0.395276
0.397431
0.400405
0.40441
0.409643
0.416358
0.424813
0.435301
0.448116
0.463872
0.479309
0.495375
0.511423
0.527654
0.543442
0.558786
0.572974
0.58568
0.59629
0.604673
0.610718
0.614775
0.617136
0.618018
0.618354
0.618286
0.617966
0.61681
0.614915
0.611731
0.607334
0.601388
0.594284
0.586276
0.578177
0.570243
0.563123
0.557016
0.552338
0.549113
0.547361
0.546674
0.54652
0.546576
0.546894
0.547671
0.548881
0.550541
0.55247
0.554582
0.556664
0.558615
0.560285
0.561637
0.562624
0.563297
0.563743
0.563907
0.396473
0.39826
0.399918
0.401569
0.403007
0.404346
0.405423
0.406342
0.406993
0.40749
0.407778
0.407981
0.408078
0.408177
0.408197
0.408139
0.407933
0.407586
0.407056
0.406373
0.405525
0.404529
0.403388
0.402157
0.400859
0.399555
0.398299
0.397264
0.395964
0.394998
0.39411
0.393456
0.392972
0.392652
0.392504
0.392446
0.392466
0.392513
0.392697
0.393084
0.393804
0.394958
0.396688
0.399107
0.402333
0.406483
0.411743
0.418359
0.426504
0.436431
0.448475
0.463182
0.477696
0.492955
0.508438
0.524287
0.539895
0.555123
0.56924
0.581864
0.592486
0.600972
0.607293
0.611724
0.614527
0.615738
0.616193
0.616184
0.615965
0.614913
0.613115
0.610026
0.60577
0.600097
0.593454
0.586081
0.578602
0.571286
0.564683
0.558983
0.55455
0.551422
0.549643
0.54889
0.548688
0.548716
0.548964
0.549619
0.550668
0.55212
0.553818
0.555677
0.557506
0.559217
0.560682
0.561868
0.562739
0.563336
0.563737
0.563887
0.397952
0.399875
0.401737
0.403625
0.405374
0.407057
0.408533
0.409852
0.410907
0.411753
0.412334
0.41273
0.412941
0.413072
0.41315
0.41318
0.413077
0.412813
0.412334
0.411629
0.410673
0.409484
0.408076
0.406501
0.404805
0.403062
0.401347
0.399871
0.39817
0.396825
0.395654
0.394732
0.394091
0.3936
0.393381
0.393269
0.393287
0.393313
0.393493
0.393883
0.394644
0.395873
0.397731
0.400328
0.403805
0.408247
0.413732
0.420288
0.428148
0.437565
0.448824
0.462475
0.476014
0.490383
0.505215
0.520623
0.536027
0.551156
0.565227
0.577789
0.58843
0.59701
0.603594
0.608399
0.611695
0.613342
0.614018
0.614046
0.61395
0.613034
0.611382
0.608449
0.604409
0.599074
0.592918
0.586149
0.57924
0.572487
0.566361
0.561023
0.556784
0.553701
0.551853
0.550988
0.550711
0.550711
0.550885
0.551416
0.552304
0.553557
0.555036
0.556657
0.558257
0.559751
0.561034
0.562074
0.562842
0.563372
0.563733
0.563871
0.399256
0.401268
0.403267
0.405322
0.407301
0.409264
0.411093
0.412814
0.414319
0.41562
0.416641
0.417411
0.417908
0.418205
0.418346
0.418439
0.418448
0.418309
0.417942
0.417304
0.416342
0.415048
0.413421
0.411504
0.409359
0.407078
0.404774
0.402708
0.400514
0.398672
0.397144
0.395884
0.395065
0.394372
0.394042
0.393855
0.393847
0.393896
0.394067
0.394485
0.395279
0.396588
0.39855
0.401294
0.404934
0.409557
0.415221
0.421945
0.429731
0.438692
0.449203
0.461786
0.474283
0.487642
0.501695
0.516571
0.531732
0.546767
0.560798
0.57332
0.584019
0.592715
0.599572
0.604759
0.608594
0.610783
0.611818
0.611916
0.611951
0.611211
0.60975
0.607041
0.603282
0.598336
0.592669
0.58643
0.580073
0.573847
0.568159
0.563139
0.559054
0.555971
0.554008
0.552994
0.552608
0.552564
0.552663
0.553072
0.553801
0.554863
0.556136
0.55754
0.558929
0.560226
0.561346
0.562256
0.562934
0.563405
0.56373
0.563857
0.400415
0.402476
0.404552
0.406701
0.408817
0.410959
0.413051
0.415099
0.416996
0.418757
0.420291
0.421583
0.422566
0.423253
0.423645
0.423824
0.423881
0.423884
0.423696
0.423239
0.422408
0.421151
0.419413
0.417212
0.414597
0.411686
0.408638
0.405797
0.403027
0.400531
0.398583
0.39686
0.395808
0.394916
0.394484
0.394227
0.394163
0.394243
0.394432
0.394843
0.395652
0.397012
0.399065
0.401943
0.405746
0.410546
0.416368
0.423207
0.431031
0.439828
0.449653
0.461206
0.472657
0.484922
0.498047
0.512245
0.527089
0.542064
0.556153
0.568681
0.579433
0.588205
0.595278
0.60079
0.605154
0.607966
0.609542
0.609833
0.610002
0.609475
0.608252
0.605836
0.602411
0.597887
0.592702
0.586947
0.581093
0.575345
0.570055
0.565321
0.561365
0.558255
0.556134
0.554938
0.554406
0.554288
0.554314
0.554601
0.555175
0.556052
0.55713
0.558329
0.559526
0.560646
0.561619
0.562414
0.563014
0.563434
0.563728
0.563845
0.401416
0.403492
0.405606
0.407791
0.409967
0.412197
0.414439
0.41668
0.418824
0.420898
0.422847
0.424634
0.426181
0.427441
0.428353
0.428918
0.429175
0.429232
0.429222
0.429031
0.42849
0.427473
0.425842
0.42353
0.42051
0.416898
0.412906
0.409029
0.405662
0.402219
0.399925
0.397585
0.396317
0.395203
0.394667
0.394366
0.3943
0.394358
0.394533
0.39493
0.395748
0.397138
0.399253
0.402233
0.406174
0.411145
0.417137
0.42412
0.431988
0.440654
0.450055
0.460666
0.470983
0.481974
0.493959
0.507301
0.521716
0.536609
0.550724
0.56328
0.574191
0.583118
0.590495
0.596384
0.601334
0.604844
0.607168
0.607879
0.608128
0.607843
0.606928
0.604851
0.601813
0.597725
0.592989
0.587709
0.582323
0.577012
0.57208
0.567599
0.563749
0.560585
0.558271
0.556848
0.556123
0.55589
0.555857
0.556022
0.556443
0.557139
0.558032
0.559039
0.560057
0.561016
0.561857
0.56255
0.563079
0.563457
0.563725
0.563834
0.402217
0.404291
0.406426
0.408625
0.410834
0.413098
0.415372
0.417659
0.419907
0.422141
0.424315
0.426437
0.428435
0.430276
0.431865
0.43314
0.434017
0.434491
0.434619
0.434567
0.434366
0.433745
0.432457
0.430257
0.426962
0.422588
0.417403
0.412134
0.408368
0.403555
0.400907
0.398031
0.396498
0.395153
0.394502
0.39415
0.394098
0.394179
0.394316
0.394741
0.395548
0.396974
0.399118
0.40218
0.406228
0.411353
0.417515
0.424672
0.432662
0.441306
0.450398
0.460253
0.469703
0.479566
0.490257
0.502451
0.516193
0.531028
0.545478
0.558156
0.569203
0.578169
0.585716
0.591749
0.597126
0.601217
0.604465
0.605912
0.606422
0.606341
0.605798
0.604094
0.601495
0.597836
0.593505
0.588641
0.583658
0.578725
0.574107
0.56985
0.566099
0.56289
0.560406
0.558723
0.55777
0.557384
0.557283
0.557344
0.557627
0.558151
0.558867
0.559693
0.560546
0.561359
0.562079
0.562675
0.563138
0.563474
0.563719
0.563823
0.402778
0.404847
0.406998
0.409197
0.411423
0.413681
0.41595
0.418234
0.420511
0.422793
0.425058
0.427313
0.429527
0.431688
0.433737
0.43562
0.437225
0.438448
0.439176
0.439408
0.439295
0.439031
0.438237
0.436504
0.433379
0.428482
0.42185
0.414466
0.410441
0.40431
0.401202
0.397869
0.396107
0.394586
0.393874
0.393512
0.393485
0.393617
0.393769
0.394235
0.395055
0.396507
0.398696
0.401815
0.40594
0.411165
0.417467
0.42477
0.432889
0.441551
0.450409
0.459454
0.467596
0.475884
0.4851
0.496014
0.508965
0.523656
0.538293
0.550999
0.562566
0.571703
0.579736
0.586178
0.592277
0.59714
0.601529
0.603951
0.605106
0.605065
0.604931
0.603646
0.601482
0.598214
0.594302
0.589846
0.585269
0.580683
0.576347
0.572292
0.568644
0.565403
0.56262
0.560591
0.559333
0.558748
0.558556
0.558536
0.558697
0.559072
0.559625
0.560294
0.561009
0.561696
0.562309
0.562815
0.563208
0.563497
0.563716
0.563815
0.402929
0.404973
0.407136
0.409314
0.411546
0.413785
0.416054
0.418321
0.420598
0.422865
0.425129
0.427378
0.429612
0.431823
0.434
0.43613
0.438174
0.440075
0.441714
0.442932
0.443545
0.443505
0.443083
0.442042
0.439468
0.434286
0.425595
0.414678
0.410994
0.40389
0.400464
0.396838
0.394902
0.393292
0.392568
0.392225
0.392264
0.392475
0.392701
0.393206
0.394142
0.395583
0.39785
0.401004
0.405221
0.410518
0.41694
0.424378
0.432664
0.441484
0.450438
0.459464
0.467342
0.474723
0.482356
0.491346
0.5025
0.516475
0.532227
0.545439
0.557211
0.566429
0.574729
0.581054
0.587375
0.592403
0.597584
0.60127
0.603635
0.60392
0.604112
0.603286
0.601497
0.598612
0.595006
0.590882
0.586577
0.58226
0.578157
0.574255
0.57065
0.567319
0.564583
0.562296
0.560707
0.559853
0.559563
0.55949
0.559549
0.559798
0.560237
0.560798
0.56142
0.562019
0.562553
0.562984
0.563314
0.563556
0.563741
0.563828
0.402105
0.404121
0.406301
0.40845
0.410693
0.412904
0.415176
0.417414
0.41969
0.421932
0.424193
0.426421
0.428654
0.430857
0.433058
0.43523
0.437381
0.439472
0.441466
0.443295
0.444737
0.44548
0.445245
0.444369
0.442415
0.437817
0.428268
0.412138
0.409732
0.40177
0.397644
0.393926
0.391825
0.390343
0.389648
0.38945
0.389584
0.389975
0.390336
0.390891
0.391857
0.393403
0.395686
0.398978
0.403281
0.408731
0.415301
0.422913
0.431368
0.440332
0.449313
0.457915
0.46477
0.470423
0.474971
0.480423
0.489473
0.503663
0.52031
0.533536
0.54598
0.555893
0.564897
0.571938
0.579324
0.585719
0.592731
0.598517
0.602679
0.603932
0.604058
0.603739
0.602416
0.599933
0.596703
0.59283
0.588759
0.584607
0.580605
0.5768
0.573338
0.570173
0.567047
0.564104
0.561838
0.560497
0.560036
0.55993
0.559965
0.560161
0.560561
0.561076
0.561672
0.562244
0.56276
0.563165
0.563465
0.563676
0.563834
0.563905
0.398284
0.400261
0.402431
0.404527
0.40675
0.408904
0.411153
0.413336
0.415586
0.417773
0.420002
0.422169
0.424353
0.426462
0.428546
0.430529
0.432456
0.434304
0.436141
0.437938
0.439736
0.441448
0.442829
0.44326
0.442206
0.43969
0.430447
0.405888
0.404492
0.39676
0.392137
0.388527
0.386483
0.385115
0.384654
0.384638
0.385113
0.385703
0.386402
0.387178
0.388291
0.389955
0.392625
0.395978
0.400476
0.406026
0.412809
0.42055
0.429209
0.438359
0.447666
0.456889
0.46451
0.470604
0.475426
0.480765
0.488416
0.499974
0.515112
0.529356
0.542656
0.552164
0.561141
0.567923
0.574886
0.580786
0.58736
0.593533
0.59997
0.602544
0.602625
0.602405
0.601049
0.598717
0.595579
0.591908
0.58801
0.584109
0.580377
0.576761
0.573329
0.569886
0.566973
0.564193
0.561856
0.560176
0.559572
0.559473
0.559572
0.5598
0.560254
0.560808
0.561466
0.562098
0.56269
0.563166
0.563535
0.563779
0.56396
0.564048
0.384679
0.3865
0.388446
0.390324
0.392279
0.39415
0.396082
0.397916
0.399795
0.40157
0.403378
0.405076
0.40678
0.408351
0.409895
0.41132
0.412749
0.414099
0.415451
0.416739
0.418119
0.419574
0.421038
0.422053
0.421553
0.420026
0.415223
0.397435
0.394791
0.386316
0.381478
0.3771
0.375359
0.373348
0.373312
0.372806
0.373773
0.37408
0.375351
0.375967
0.377634
0.379095
0.381888
0.385147
0.389959
0.395895
0.403005
0.411121
0.419844
0.429078
0.438178
0.447143
0.455119
0.461579
0.465506
0.465908
0.466529
0.468268
0.487653
0.512881
0.52696
0.538107
0.547105
0.555326
0.562674
0.569997
0.578641
0.588081
0.598286
0.602076
0.601074
0.601563
0.600113
0.597092
0.593556
0.589851
0.585837
0.581977
0.578287
0.574628
0.571408
0.56836
0.565354
0.562356
0.559082
0.55641
0.555449
0.555548
0.555906
0.556472
0.557378
0.558185
0.559054
0.559959
0.560822
0.561634
0.562356
0.562993
0.563527
0.563985
0.245935
0.245959
0.245955
0.245958
0.245957
0.245958
0.245958
0.245958
0.245959
0.245959
0.245959
0.245959
0.24596
0.24596
0.24596
0.24596
0.24596
0.24596
0.24596
0.24596
0.245921
0.245956
0.245953
0.245957
0.245956
0.245957
0.245957
0.245958
0.245959
0.24596
0.24596
0.245961
0.245961
0.245962
0.245962
0.245962
0.245962
0.245963
0.245963
0.245963
0.245902
0.24595
0.245949
0.245953
0.245953
0.245954
0.245956
0.245958
0.24596
0.245961
0.245963
0.245964
0.245965
0.245966
0.245967
0.245967
0.245968
0.245968
0.245968
0.245968
0.245883
0.245944
0.245945
0.24595
0.24595
0.245953
0.245955
0.245958
0.245961
0.245963
0.245965
0.245967
0.245968
0.24597
0.245971
0.245972
0.245973
0.245973
0.245974
0.245974
0.245863
0.245937
0.24594
0.245945
0.245947
0.24595
0.245954
0.245958
0.245961
0.245965
0.245968
0.24597
0.245973
0.245975
0.245977
0.245978
0.245979
0.24598
0.245981
0.245982
0.245839
0.245927
0.245933
0.24594
0.245942
0.245947
0.245952
0.245957
0.245962
0.245967
0.245971
0.245975
0.245978
0.245981
0.245984
0.245986
0.245988
0.245989
0.24599
0.245991
0.245815
0.245915
0.245924
0.245932
0.245937
0.245943
0.24595
0.245957
0.245964
0.24597
0.245975
0.245981
0.245985
0.245989
0.245993
0.245996
0.245999
0.246
0.246002
0.246003
0.245786
0.245901
0.245914
0.245924
0.24593
0.245939
0.245948
0.245957
0.245966
0.245973
0.245981
0.245987
0.245994
0.245999
0.246004
0.246008
0.246011
0.246014
0.246015
0.246017
0.245756
0.245884
0.245901
0.245914
0.245923
0.245934
0.245945
0.245957
0.245968
0.245978
0.245987
0.245995
0.246003
0.24601
0.246016
0.246022
0.246026
0.246029
0.246031
0.246032
0.245722
0.245865
0.245887
0.245902
0.245914
0.245928
0.245942
0.245957
0.24597
0.245982
0.245994
0.246005
0.246015
0.246023
0.246031
0.246037
0.246042
0.246046
0.246049
0.246051
0.245687
0.245843
0.24587
0.245888
0.245904
0.245921
0.245939
0.245957
0.245973
0.245988
0.246002
0.246015
0.246027
0.246038
0.246047
0.246055
0.246061
0.246066
0.246069
0.246071
0.245648
0.245818
0.24585
0.245873
0.245893
0.245914
0.245936
0.245958
0.245977
0.245995
0.246012
0.246028
0.246042
0.246055
0.246066
0.246075
0.246082
0.246088
0.246091
0.246093
0.245607
0.245791
0.245828
0.245856
0.24588
0.245907
0.245933
0.245958
0.245981
0.246003
0.246023
0.246041
0.246058
0.246073
0.246086
0.246097
0.246105
0.246112
0.246116
0.246118
0.245561
0.24576
0.245803
0.245836
0.245867
0.245899
0.24593
0.24596
0.245986
0.246011
0.246035
0.246057
0.246076
0.246094
0.246109
0.246121
0.246131
0.246138
0.246143
0.246146
0.245512
0.245725
0.245775
0.245815
0.245852
0.24589
0.245927
0.245962
0.245992
0.246022
0.246049
0.246074
0.246097
0.246117
0.246134
0.246148
0.24616
0.246168
0.246173
0.246176
0.245457
0.245686
0.245743
0.245792
0.245836
0.245882
0.245925
0.245964
0.246
0.246034
0.246066
0.246094
0.24612
0.246143
0.246162
0.246178
0.246191
0.2462
0.246206
0.24621
0.245396
0.245641
0.245707
0.245767
0.245819
0.245873
0.245924
0.245968
0.24601
0.246048
0.246084
0.246117
0.246146
0.246171
0.246193
0.246211
0.246226
0.246236
0.246242
0.246246
0.245324
0.245591
0.245667
0.245739
0.245802
0.245866
0.245924
0.245974
0.246021
0.246065
0.246106
0.246142
0.246175
0.246204
0.246228
0.246248
0.246264
0.246276
0.246283
0.246287
0.245243
0.245535
0.245622
0.24571
0.245783
0.245859
0.245924
0.245981
0.246035
0.246085
0.24613
0.246172
0.246208
0.24624
0.246267
0.246289
0.246307
0.246319
0.246327
0.246332
0.245146
0.245472
0.245571
0.245679
0.245765
0.245853
0.245926
0.245991
0.246052
0.246108
0.246159
0.246205
0.246245
0.24628
0.24631
0.246335
0.246354
0.246368
0.246376
0.246381
0.245037
0.245401
0.245512
0.245648
0.245746
0.245849
0.24593
0.246004
0.246073
0.246136
0.246192
0.246243
0.246287
0.246326
0.246359
0.246385
0.246406
0.246421
0.24643
0.246436
0.244891
0.245322
0.245446
0.245617
0.245729
0.245848
0.245936
0.24602
0.246098
0.246168
0.246231
0.246286
0.246335
0.246377
0.246413
0.246442
0.246464
0.24648
0.24649
0.246496
0.244709
0.245236
0.24537
0.245588
0.245712
0.245849
0.245946
0.246042
0.246128
0.246206
0.246275
0.246336
0.246389
0.246435
0.246473
0.246504
0.246528
0.246546
0.246556
0.246562
0.244479
0.245147
0.245286
0.245564
0.245698
0.245852
0.245962
0.24607
0.246166
0.246251
0.246327
0.246393
0.24645
0.246499
0.24654
0.246574
0.246599
0.246618
0.246628
0.246635
0.244165
0.245065
0.245193
0.245548
0.245687
0.245861
0.245984
0.246106
0.24621
0.246304
0.246386
0.246458
0.246519
0.246572
0.246615
0.24665
0.246678
0.246697
0.246708
0.246715
0.243872
0.244994
0.245101
0.24554
0.24568
0.245878
0.246014
0.24615
0.246264
0.246366
0.246454
0.246531
0.246596
0.246652
0.246698
0.246735
0.246764
0.246784
0.246795
0.246802
0.243687
0.244934
0.245025
0.245539
0.245678
0.245905
0.246054
0.246205
0.246327
0.246437
0.246531
0.246613
0.246682
0.246741
0.246789
0.246828
0.246857
0.246879
0.246889
0.246897
0.243578
0.244889
0.244979
0.245542
0.245682
0.245945
0.246107
0.246271
0.246402
0.246519
0.246619
0.246705
0.246777
0.246839
0.246889
0.246929
0.246959
0.246982
0.246992
0.247
0.243522
0.244865
0.244956
0.245552
0.245702
0.245999
0.246173
0.24635
0.246489
0.246613
0.246717
0.246807
0.246882
0.246946
0.246997
0.247039
0.24707
0.247092
0.247103
0.247111
0.243494
0.244858
0.244948
0.245581
0.245745
0.24607
0.246255
0.246444
0.246589
0.246719
0.246827
0.24692
0.246998
0.247062
0.247115
0.247157
0.247189
0.247211
0.247222
0.24723
0.243483
0.244864
0.244961
0.245638
0.245816
0.246162
0.246354
0.246554
0.246705
0.24684
0.24695
0.247045
0.247124
0.247189
0.247243
0.247285
0.247317
0.247339
0.24735
0.247358
0.243527
0.244912
0.24502
0.245733
0.245919
0.246278
0.246473
0.246682
0.246836
0.246974
0.247086
0.247182
0.247261
0.247327
0.24738
0.247422
0.247453
0.247475
0.247486
0.247493
0.243665
0.24503
0.245143
0.245871
0.246056
0.246421
0.246615
0.246828
0.246982
0.247122
0.247235
0.247331
0.24741
0.247475
0.247527
0.247568
0.247599
0.24762
0.24763
0.247637
0.243899
0.245225
0.245332
0.246053
0.246232
0.246592
0.246781
0.246994
0.247146
0.247285
0.247397
0.247492
0.247569
0.247633
0.247684
0.247724
0.247753
0.247773
0.247782
0.247789
0.244213
0.245487
0.245584
0.246277
0.246444
0.246793
0.246971
0.247181
0.247327
0.247463
0.247571
0.247663
0.247739
0.2478
0.247849
0.247888
0.247916
0.247935
0.247943
0.247949
0.244582
0.245801
0.245886
0.24654
0.246692
0.247022
0.247187
0.247388
0.247526
0.247656
0.247759
0.247846
0.247918
0.247976
0.248023
0.248059
0.248085
0.248103
0.24811
0.248115
0.244994
0.246153
0.246228
0.246835
0.246971
0.247276
0.247425
0.247613
0.247741
0.247863
0.247958
0.24804
0.248107
0.248161
0.248204
0.248237
0.248261
0.248277
0.248283
0.248288
0.245431
0.246532
0.2466
0.247157
0.247277
0.247551
0.247684
0.247856
0.247971
0.248082
0.248169
0.248243
0.248304
0.248353
0.248392
0.248422
0.248443
0.248457
0.248461
0.248465
0.245892
0.246932
0.246995
0.2475
0.247604
0.247845
0.247961
0.248114
0.248214
0.248313
0.248389
0.248455
0.248509
0.248552
0.248586
0.248611
0.24863
0.248641
0.248644
0.248647
0.246366
0.247346
0.247406
0.247857
0.247946
0.248154
0.248252
0.248383
0.248468
0.248553
0.248618
0.248675
0.24872
0.248756
0.248785
0.248806
0.248821
0.24883
0.24883
0.248833
0.246858
0.247773
0.247829
0.248227
0.248301
0.248475
0.248554
0.248663
0.248731
0.248801
0.248854
0.2489
0.248936
0.248965
0.248988
0.249004
0.249015
0.249021
0.24902
0.249021
0.247358
0.248209
0.248262
0.248606
0.248664
0.248804
0.248864
0.248949
0.249001
0.249055
0.249094
0.249129
0.249156
0.249177
0.249193
0.249204
0.249211
0.249214
0.249211
0.249211
0.247871
0.248652
0.2487
0.248992
0.249033
0.249138
0.24918
0.249241
0.249275
0.249312
0.249338
0.249361
0.249378
0.249391
0.2494
0.249406
0.249409
0.249409
0.249403
0.249403
0.248388
0.2491
0.249141
0.249383
0.249404
0.249477
0.249499
0.249535
0.249552
0.249572
0.249584
0.249594
0.249601
0.249605
0.249607
0.249607
0.249606
0.249603
0.249595
0.249593
0.248913
0.249551
0.249585
0.249778
0.249775
0.249817
0.249818
0.24983
0.249829
0.249831
0.249829
0.249827
0.249823
0.249819
0.249814