/*--------------------------------*- C++ -*----------------------------------*\
  =========                 |
  \\      /  F ield         | OpenFOAM: The Open Source CFD Toolbox
   \\    /   O peration     | Website:  https://openfoam.org
    \\  /    A nd           | Version:  7
     \\/     M anipulation  |
\*---------------------------------------------------------------------------*/
FoamFile
{
    version     2.0;
    format      ascii;
    class       volVectorField;
    location    "0.12";
    object      U;
}
// * * * * * * * * * * * * * * * * * * * * * * * * * * * * * * * * * * * * * //

dimensions      [0 1 -1 0 0 0 0];

internalField   nonuniform List<vector> 
48560
(
(221.944 -5.36767 -4.90614e-11)
(221.752 -6.19685 -5.89075e-11)
(221.583 -7.02824 -7.81787e-11)
(221.435 -7.84026 -1.00117e-10)
(221.303 -8.63316 -1.31218e-10)
(221.183 -9.40112 -1.65888e-10)
(221.072 -10.1469 -2.09104e-10)
(220.966 -10.8664 -2.55709e-10)
(220.864 -11.5638 -3.09298e-10)
(220.764 -12.2365 -3.65447e-10)
(220.664 -12.8901 -4.2595e-10)
(220.563 -13.5231 -4.87195e-10)
(220.46 -14.1406 -5.4942e-10)
(220.353 -14.741 -6.0971e-10)
(220.241 -15.3282 -6.66196e-10)
(220.122 -15.9004 -7.1696e-10)
(219.994 -16.4602 -7.58798e-10)
(219.855 -17.006 -7.89779e-10)
(219.702 -17.5398 -8.06704e-10)
(219.533 -18.0608 -8.07716e-10)
(219.344 -18.5704 -7.89857e-10)
(219.132 -19.0683 -7.51069e-10)
(218.893 -19.5549 -6.89648e-10)
(218.619 -20.0295 -6.02802e-10)
(218.311 -20.4914 -4.92886e-10)
(217.957 -20.9395 -3.56805e-10)
(217.557 -21.3723 -1.98109e-10)
(217.039 -21.8647 1.68855e-11)
(216.285 -22.4137 3.11363e-10)
(215.392 -22.9119 5.95877e-10)
(214.305 -23.3846 8.81982e-10)
(212.962 -23.8068 1.15973e-09)
(211.28 -24.1917 1.37799e-09)
(209.08 -24.5152 1.5385e-09)
(206.057 -24.7616 1.44271e-09)
(202.491 -24.8964 1.19437e-09)
(198.252 -24.8758 5.65317e-10)
(193.602 -24.7462 -1.40014e-10)
(188.788 -24.4533 -1.37764e-09)
(184.854 -24.0506 -2.54029e-09)
(180.81 -23.2557 -4.16494e-09)
(176.733 -22.6201 -4.54982e-09)
(172.876 -21.4534 -5.91281e-09)
(169.147 -20.0223 -6.4042e-09)
(165.803 -18.7134 -7.02669e-09)
(165.08 -16.0974 -9.50385e-09)
(171.767 -12.248 -1.25218e-08)
(191.386 -6.88496 -1.71161e-08)
(221.307 -4.08082 -2.21799e-08)
(250.054 -7.78901 -2.61585e-08)
(271.685 -31.468 -2.92581e-08)
(263.863 -74.1586 -3.08598e-08)
(229.269 -57.65 -2.97242e-08)
(214.68 -60.7853 -2.98105e-08)
(195.662 -51.6234 -2.9205e-08)
(183.877 -51.0944 -2.92444e-08)
(165.482 -43.5363 -2.86418e-08)
(153.75 -41.3576 -2.86563e-08)
(133.696 -34.3429 -2.79989e-08)
(121.443 -31.2415 -2.8037e-08)
(99.3231 -24.1237 -2.73081e-08)
(85.683 -20.4169 -2.73037e-08)
(66.0758 -11.0083 -2.64211e-08)
(66.3462 -8.54305 -2.67555e-08)
(55.7816 -5.57971 -2.62839e-08)
(52.6455 1.12771 -2.607e-08)
(56.5749 2.22471 -2.63141e-08)
(58.823 4.44238 -2.65317e-08)
(60.5569 6.50872 -2.67373e-08)
(63.5758 8.64365 -2.70215e-08)
(67.9238 11.4707 -2.74312e-08)
(73.4448 14.9745 -2.788e-08)
(80.3088 19.2409 -2.83835e-08)
(88.7299 24.4694 -2.89242e-08)
(98.929 30.8337 -2.95072e-08)
(111.36 38.4928 -3.01173e-08)
(127.427 48.2364 -3.07929e-08)
(149.438 61.6846 -3.15042e-08)
(182.284 78.9862 -3.22175e-08)
(220.441 84.7195 -3.2866e-08)
(259.689 66.4918 -3.37696e-08)
(254.786 60.4472 -3.40173e-08)
(246.368 53.3835 -3.43828e-08)
(251.803 56.0633 -3.43919e-08)
(256.211 56.6905 -3.46364e-08)
(267.566 53.7093 -3.5382e-08)
(271.759 43.0844 -3.55519e-08)
(275.782 36.6796 -3.59199e-08)
(275.79 26.9354 -3.60877e-08)
(275.43 19.8337 -3.63728e-08)
(273.263 14.3846 -3.64733e-08)
(270.017 8.44321 -3.66507e-08)
(266.521 3.74695 -3.67997e-08)
(263.136 -0.00116135 -3.69398e-08)
(260.008 -3.04811 -3.70464e-08)
(257.305 -5.5127 -3.71517e-08)
(255.074 -7.47894 -3.72316e-08)
(253.41 -8.90355 -3.7295e-08)
(252.353 -9.71776 -3.73408e-08)
(252.112 -9.95823 -3.73645e-08)
(221.189 -5.08784 -5.89656e-10)
(221.006 -5.94566 -6.17884e-10)
(220.839 -6.80021 -6.46766e-10)
(220.703 -7.64501 -6.73325e-10)
(220.575 -8.46248 -6.98973e-10)
(220.464 -9.26009 -7.18563e-10)
(220.353 -10.0282 -7.35732e-10)
(220.248 -10.7747 -7.43009e-10)
(220.138 -11.4972 -7.45553e-10)
(220.025 -12.2042 -7.34466e-10)
(219.906 -12.8956 -7.18404e-10)
(219.78 -13.5729 -6.87707e-10)
(219.644 -14.2348 -6.47499e-10)
(219.496 -14.8797 -5.90199e-10)
(219.333 -15.5069 -5.19784e-10)
(219.152 -16.1139 -4.31285e-10)
(218.951 -16.702 -3.28244e-10)
(218.726 -17.2692 -2.08787e-10)
(218.475 -17.819 -7.69161e-11)
(218.195 -18.3514 6.59955e-11)
(217.88 -18.8697 2.22114e-10)
(217.527 -19.3711 3.85795e-10)
(217.125 -19.8552 5.59748e-10)
(216.669 -20.3191 7.3527e-10)
(216.145 -20.7627 9.17214e-10)
(215.536 -21.184 1.09033e-09)
(214.824 -21.5813 1.25724e-09)
(213.847 -22.0214 1.41455e-09)
(212.233 -22.4904 1.51272e-09)
(210.277 -22.9014 1.40464e-09)
(208.018 -23.2593 1.20307e-09)
(205.367 -23.5389 6.84983e-10)
(202.47 -23.7666 1.11567e-10)
(199.345 -23.9087 -9.0114e-10)
(196.47 -23.9689 -1.93599e-09)
(193.654 -23.8486 -3.34101e-09)
(191.144 -23.7679 -3.7947e-09)
(188.655 -23.5227 -5.07282e-09)
(186.651 -23.2637 -5.89735e-09)
(184.844 -22.727 -6.76933e-09)
(183.405 -22.2538 -7.20604e-09)
(183.039 -21.7388 -8.15375e-09)
(184.914 -20.8175 -1.09398e-08)
(190.623 -20.8878 -1.25627e-08)
(204.544 -21.4823 -1.69143e-08)
(229.832 -22.8105 -2.2058e-08)
(255.634 -23.8672 -2.63451e-08)
(277.805 -24.7598 -2.96215e-08)
(288.942 -26.5146 -3.09958e-08)
(295.84 -34.6629 -3.23883e-08)
(287.448 -53.5422 -3.27495e-08)
(275.13 -72.0736 -3.3241e-08)
(246.996 -67.1274 -3.26799e-08)
(235.293 -67.332 -3.25967e-08)
(216.33 -61.472 -3.22315e-08)
(206.915 -58.3938 -3.20948e-08)
(189.502 -52.6491 -3.17828e-08)
(179.974 -48.5889 -3.15778e-08)
(162.665 -42.4782 -3.12922e-08)
(152.775 -37.7518 -3.10317e-08)
(136.166 -31.2762 -3.07739e-08)
(125.728 -26.056 -3.03894e-08)
(113.384 -16.8047 -3.00662e-08)
(111.847 -12.2643 -2.98465e-08)
(107.957 -6.6826 -2.98517e-08)
(105.468 1.30449 -2.93675e-08)
(111.121 3.49159 -2.98164e-08)
(113.938 8.65579 -2.98975e-08)
(116.835 11.7532 -3.0145e-08)
(121.023 15.5199 -3.03205e-08)
(124.798 18.9556 -3.06243e-08)
(130.436 23.1842 -3.08711e-08)
(135.908 27.5026 -3.1225e-08)
(143.594 32.9526 -3.15366e-08)
(151.845 39.109 -3.19425e-08)
(163.024 46.9509 -3.23225e-08)
(176.868 56.9036 -3.28016e-08)
(197.309 71.4787 -3.32719e-08)
(221.3 90.273 -3.38488e-08)
(241.907 94.658 -3.44533e-08)
(258.387 73.9816 -3.50242e-08)
(263.721 63.9365 -3.55018e-08)
(266.057 61.5185 -3.57001e-08)
(270.263 62.6655 -3.61563e-08)
(272.857 63.4659 -3.5938e-08)
(275.839 59.6064 -3.69358e-08)
(277.532 51.035 -3.65078e-08)
(279.534 43.4011 -3.72339e-08)
(278.851 33.3396 -3.68478e-08)
(278.004 24.7954 -3.75671e-08)
(274.971 16.7012 -3.71471e-08)
(272.278 10.845 -3.76902e-08)
(268.296 5.71673 -3.7362e-08)
(265.214 1.9854 -3.77551e-08)
(261.551 -1.19582 -3.74854e-08)
(258.96 -3.59793 -3.77585e-08)
(256.277 -5.67089 -3.75448e-08)
(254.712 -7.14224 -3.7705e-08)
(253.724 -7.74747 -3.75962e-08)
(253.359 -7.93815 -3.76185e-08)
(219.986 -4.79948 -1.82312e-10)
(219.791 -5.71116 -1.57213e-10)
(219.575 -6.62088 -1.04059e-10)
(219.422 -7.52521 -6.28984e-11)
(219.244 -8.39285 3.71263e-12)
(219.106 -9.24195 6.15946e-11)
(218.936 -10.0543 1.41602e-10)
(218.786 -10.8539 2.16337e-10)
(218.602 -11.6303 3.0915e-10)
(218.422 -12.3959 3.9881e-10)
(218.206 -13.1354 5.04458e-10)
(217.98 -13.8553 6.104e-10)
(217.716 -14.5412 7.26326e-10)
(217.428 -15.1989 8.40819e-10)
(217.092 -15.819 9.5653e-10)
(216.712 -16.4094 1.0645e-09)
(216.261 -16.9671 1.15982e-09)
(215.731 -17.5019 1.23275e-09)
(215.085 -18.0148 1.26593e-09)
(214.395 -18.5117 1.28262e-09)
(213.61 -18.9918 1.25224e-09)
(212.768 -19.4574 1.18895e-09)
(211.832 -19.9045 1.06256e-09)
(210.828 -20.3305 9.20281e-10)
(209.728 -20.7365 6.76473e-10)
(208.559 -21.1165 4.14034e-10)
(207.315 -21.4731 2.75623e-11)
(205.832 -21.8558 -4.54804e-10)
(203.892 -22.2597 -1.321e-09)
(202.307 -22.6013 -2.156e-09)
(200.519 -22.8638 -3.27163e-09)
(199.023 -23.0901 -3.59778e-09)
(197.413 -23.2614 -4.62277e-09)
(196.135 -23.3988 -5.19714e-09)
(194.943 -23.4175 -5.9508e-09)
(193.887 -23.3379 -6.42616e-09)
(193.272 -23.171 -7.12755e-09)
(193.114 -22.9856 -8.07504e-09)
(194.528 -22.8287 -1.00601e-08)
(197.552 -23.0409 -1.12207e-08)
(204.152 -23.6032 -1.3759e-08)
(215.88 -24.703 -1.69566e-08)
(233.741 -26.1255 -2.12548e-08)
(253.353 -27.6657 -2.46751e-08)
(273.409 -28.0498 -2.86262e-08)
(287.783 -27.1185 -3.03323e-08)
(299.471 -26.4195 -3.21761e-08)
(305.306 -27.0863 -3.2671e-08)
(307.592 -31.1722 -3.32116e-08)
(303.598 -41.4129 -3.32774e-08)
(292.417 -57.7443 -3.32418e-08)
(276.517 -68.0655 -3.30811e-08)
(256.591 -61.9597 -3.29039e-08)
(244.506 -65.3499 -3.26499e-08)
(227.863 -57.558 -3.24918e-08)
(217.675 -57.0995 -3.22034e-08)
(202.677 -49.8135 -3.20824e-08)
(192.626 -47.5255 -3.17712e-08)
(178.162 -40.712 -3.16882e-08)
(168.183 -37.2399 -3.13553e-08)
(155.111 -30.7832 -3.1306e-08)
(145.973 -26.3742 -3.09544e-08)
(137.71 -18.2056 -3.09138e-08)
(136.059 -13.8374 -3.06425e-08)
(135.386 -5.90472 -3.0737e-08)
(132.908 0.995019 -3.0442e-08)
(138.64 4.57929 -3.07928e-08)
(139.529 10.9696 -3.07347e-08)
(143.233 14.6249 -3.10219e-08)
(145.455 19.6312 -3.10656e-08)
(149.132 23.9291 -3.13764e-08)
(152.45 28.994 -3.15049e-08)
(156.904 34.149 -3.18473e-08)
(162.028 40.1 -3.20592e-08)
(168.645 46.7089 -3.245e-08)
(177.393 54.5427 -3.27562e-08)
(189.892 64.2625 -3.32263e-08)
(208.61 76.267 -3.36567e-08)
(232.074 84.8541 -3.42107e-08)
(250.996 79.6589 -3.4664e-08)
(260.317 67.7102 -3.5014e-08)
(265.185 63.5584 -3.5283e-08)
(267.593 61.0894 -3.55793e-08)
(272.03 59.6338 -3.60992e-08)
(274.945 55.1726 -3.59225e-08)
(277.792 48.5679 -3.67477e-08)
(278.732 41.1951 -3.62518e-08)
(280.056 33.9935 -3.69629e-08)
(278.899 26.4906 -3.65727e-08)
(277.592 20.1403 -3.70962e-08)
(274.455 14.266 -3.68259e-08)
(271.703 9.30766 -3.71912e-08)
(267.975 5.10045 -3.69763e-08)
(264.962 1.73823 -3.72333e-08)
(261.556 -1.00203 -3.70541e-08)
(258.988 -3.07319 -3.72277e-08)
(256.461 -4.57347 -3.7078e-08)
(254.881 -5.47511 -3.7181e-08)
(253.926 -5.7758 -3.7106e-08)
(253.57 -5.88515 -3.71182e-08)
(216.941 -4.51599 6.05599e-10)
(216.665 -5.45247 6.62191e-10)
(216.269 -6.37367 6.72441e-10)
(216.01 -7.29286 7.0557e-10)
(215.63 -8.16727 7.0361e-10)
(215.341 -9.02746 7.07255e-10)
(214.927 -9.84949 6.85091e-10)
(214.567 -10.6652 6.52427e-10)
(214.091 -11.4556 5.99451e-10)
(213.656 -12.2356 5.21201e-10)
(213.122 -12.9853 4.23624e-10)
(212.616 -13.7172 2.87761e-10)
(212.027 -14.4178 1.30054e-10)
(211.452 -15.0984 -7.59851e-11)
(210.809 -15.7498 -3.07744e-10)
(210.178 -16.3814 -5.93489e-10)
(209.503 -16.9858 -9.05226e-10)
(208.857 -17.5685 -1.26628e-09)
(208.221 -18.1217 -1.63956e-09)
(207.582 -18.6475 -2.0713e-09)
(206.95 -19.1412 -2.52551e-09)
(206.337 -19.6068 -3.03103e-09)
(205.711 -20.0194 -3.16332e-09)
(205.101 -20.4333 -3.64072e-09)
(204.491 -20.8071 -3.87618e-09)
(203.907 -21.1732 -4.33692e-09)
(203.341 -21.5008 -4.63834e-09)
(202.735 -21.8597 -5.14572e-09)
(202.042 -22.2178 -5.6528e-09)
(201.512 -22.5038 -6.11666e-09)
(200.99 -22.6712 -6.40183e-09)
(200.716 -22.7676 -6.94171e-09)
(200.619 -22.8607 -7.69919e-09)
(201.332 -23.0651 -9.16383e-09)
(202.715 -23.2558 -9.88942e-09)
(205.358 -23.7414 -1.1457e-08)
(209.953 -24.5069 -1.3189e-08)
(217.057 -25.7164 -1.55815e-08)
(229.126 -27.4874 -1.87386e-08)
(242.03 -29.3751 -2.15352e-08)
(258.042 -31.3144 -2.50904e-08)
(272.298 -32.6023 -2.75521e-08)
(285.717 -33.2322 -2.99914e-08)
(296.95 -33.4721 -3.14332e-08)
(305.753 -33.1014 -3.28239e-08)
(311.079 -32.9134 -3.30282e-08)
(314.258 -33.5227 -3.36161e-08)
(315.307 -35.9815 -3.34133e-08)
(312.888 -41.2708 -3.35931e-08)
(306.175 -50.7482 -3.32272e-08)
(294.205 -61.8915 -3.31097e-08)
(279.335 -67.2207 -3.25929e-08)
(262.274 -65.1721 -3.28062e-08)
(249.867 -65.1664 -3.22594e-08)
(235.469 -59.8277 -3.24055e-08)
(224.749 -57.4533 -3.19086e-08)
(211.732 -51.4211 -3.20278e-08)
(201.411 -47.8926 -3.15884e-08)
(189.023 -41.7755 -3.17031e-08)
(179.179 -37.4836 -3.12948e-08)
(168.459 -31.2252 -3.13985e-08)
(160.276 -25.9413 -3.1046e-08)
(154.009 -18.3002 -3.11554e-08)
(152.301 -12.9599 -3.08648e-08)
(152.213 -5.03762 -3.1016e-08)
(150.306 0.596225 -3.08205e-08)
(154.921 5.91015 -3.10566e-08)
(154.343 11.8018 -3.09765e-08)
(158.262 16.0943 -3.12338e-08)
(158.94 21.0267 -3.12423e-08)
(162.825 25.4655 -3.15253e-08)
(164.794 30.3337 -3.16176e-08)
(169.395 35.4427 -3.19326e-08)
(173.53 41.0822 -3.2112e-08)
(180.515 47.6157 -3.24756e-08)
(189.029 55.3923 -3.27536e-08)
(202.267 65.3122 -3.319e-08)
(219.259 76.2531 -3.35738e-08)
(237.754 81.7573 -3.40732e-08)
(252.198 74.5074 -3.44152e-08)
(260.429 66.6994 -3.46175e-08)
(265.765 64.3271 -3.48185e-08)
(269.16 61.9004 -3.53287e-08)
(272.983 59.8102 -3.54063e-08)
(274.784 54.6561 -3.56375e-08)
(276.836 47.8172 -3.59755e-08)
(277.627 41.2825 -3.58921e-08)
(278.355 34.4167 -3.62073e-08)
(277.297 27.5109 -3.61217e-08)
(275.953 21.1935 -3.63709e-08)
(273.187 15.3352 -3.62419e-08)
(270.511 10.5055 -3.6494e-08)
(267.077 6.3556 -3.63533e-08)
(264.133 3.06836 -3.65276e-08)
(260.949 0.376967 -3.64026e-08)
(258.488 -1.65743 -3.65205e-08)
(256.192 -3.03842 -3.64115e-08)
(254.762 -3.74219 -3.64767e-08)
(253.938 -3.90569 -3.64169e-08)
(253.624 -3.94778 -3.64317e-08)
(212.157 -3.91959 -2.46565e-09)
(211.785 -4.85673 -2.4743e-09)
(211.383 -5.76177 -2.76109e-09)
(211.09 -6.73347 -2.68511e-09)
(210.75 -7.6322 -2.94876e-09)
(210.486 -8.56918 -2.94875e-09)
(210.157 -9.44504 -3.20341e-09)
(209.885 -10.3466 -3.26819e-09)
(209.558 -11.1985 -3.52343e-09)
(209.291 -12.0653 -3.64339e-09)
(208.981 -12.8885 -3.90509e-09)
(208.73 -13.7157 -4.07068e-09)
(208.447 -14.5008 -4.33934e-09)
(208.219 -15.2775 -4.53901e-09)
(207.966 -16.0084 -4.8098e-09)
(207.763 -16.7153 -5.0281e-09)
(207.544 -17.3659 -5.28966e-09)
(207.367 -17.9733 -5.50648e-09)
(207.174 -18.5127 -5.74197e-09)
(207.007 -18.9998 -5.93408e-09)
(206.819 -19.423 -6.11776e-09)
(206.637 -19.8027 -6.24836e-09)
(206.512 -20.1634 -6.73574e-09)
(206.484 -20.488 -7.04643e-09)
(206.55 -20.7975 -7.51124e-09)
(206.753 -21.0909 -7.94252e-09)
(207.098 -21.3864 -8.43331e-09)
(207.714 -21.7475 -9.04409e-09)
(208.711 -22.1502 -9.81046e-09)
(210.381 -22.6403 -1.073e-08)
(212.688 -23.2254 -1.1836e-08)
(216.16 -24.0193 -1.3284e-08)
(220.882 -25.041 -1.49516e-08)
(227.911 -26.4073 -1.70868e-08)
(236.377 -28.0216 -1.92021e-08)
(246.396 -29.9168 -2.18091e-08)
(257.466 -31.851 -2.41534e-08)
(268.777 -33.6123 -2.65996e-08)
(278.801 -34.7607 -2.83499e-08)
(289.193 -35.819 -3.02273e-08)
(298.053 -36.4028 -3.15738e-08)
(305.609 -36.781 -3.25786e-08)
(311.613 -36.786 -3.33096e-08)
(315.956 -36.6583 -3.35953e-08)
(318.797 -36.552 -3.38487e-08)
(320.296 -37.0864 -3.36842e-08)
(320.67 -38.5038 -3.37674e-08)
(319.1 -41.5328 -3.33928e-08)
(314.898 -47.3942 -3.33852e-08)
(307.006 -55.6095 -3.28772e-08)
(295.351 -63.4394 -3.26878e-08)
(281.701 -66.2216 -3.20172e-08)
(266.446 -64.8272 -3.23829e-08)
(254.173 -64.14 -3.17412e-08)
(241.132 -59.1636 -3.20069e-08)
(230.155 -56.7096 -3.14553e-08)
(218.416 -50.6663 -3.16653e-08)
(207.93 -47.1977 -3.12162e-08)
(196.803 -40.9442 -3.14022e-08)
(187.068 -36.6866 -3.1006e-08)
(177.685 -30.2191 -3.11539e-08)
(170.217 -24.9366 -3.0855e-08)
(165.121 -17.4567 -3.10136e-08)
(163.387 -11.6318 -3.07558e-08)
(163.21 -4.12556 -3.09083e-08)
(162.016 1.01011 -3.07952e-08)
(165.116 7.60495 -3.09025e-08)
(164.316 12.9173 -3.08712e-08)
(167.5 18.063 -3.1034e-08)
(167.695 23.0784 -3.10651e-08)
(171.112 27.9678 -3.12745e-08)
(172.538 33.0225 -3.13792e-08)
(176.9 38.3655 -3.16448e-08)
(180.617 44.1487 -3.18334e-08)
(187.629 50.8064 -3.21628e-08)
(196.041 58.4526 -3.24445e-08)
(209.381 67.3723 -3.28546e-08)
(225.223 75.011 -3.32289e-08)
(241.656 76.2749 -3.36449e-08)
(252.951 70.3995 -3.38919e-08)
(260.63 65.5228 -3.40131e-08)
(266.073 62.6767 -3.40861e-08)
(269.843 59.9257 -3.49589e-08)
(273.194 55.7458 -3.47285e-08)
(274.783 49.937 -3.5192e-08)
(276.233 43.6947 -3.53616e-08)
(276.769 37.6641 -3.53563e-08)
(276.969 31.1404 -3.54313e-08)
(275.795 25.2207 -3.54791e-08)
(274.215 19.5076 -3.55943e-08)
(271.655 14.5162 -3.55169e-08)
(269.065 10.0867 -3.56946e-08)
(265.979 6.44387 -3.56106e-08)
(263.178 3.43753 -3.57299e-08)
(260.286 1.14875 -3.56413e-08)
(257.947 -0.526147 -3.5711e-08)
(255.908 -1.57927 -3.56315e-08)
(254.633 -2.11048 -3.56715e-08)
(253.925 -2.22351 -3.56277e-08)
(253.652 -2.25172 -3.56441e-08)
(212.221 -3.32309 -5.77369e-09)
(211.792 -4.30982 -5.809e-09)
(211.471 -5.33796 -5.79945e-09)
(211.194 -6.35643 -5.96978e-09)
(210.984 -7.37012 -6.05196e-09)
(210.8 -8.36659 -6.21245e-09)
(210.645 -9.33735 -6.36202e-09)
(210.517 -10.2985 -6.53314e-09)
(210.411 -11.2225 -6.73592e-09)
(210.358 -12.129 -6.93116e-09)
(210.337 -12.9859 -7.17907e-09)
(210.392 -13.8154 -7.40795e-09)
(210.491 -14.5883 -7.69808e-09)
(210.685 -15.3296 -7.96895e-09)
(210.94 -16.0176 -8.30332e-09)
(211.309 -16.6797 -8.62531e-09)
(211.762 -17.3018 -9.01176e-09)
(212.348 -17.9083 -9.39849e-09)
(213.044 -18.4855 -9.85478e-09)
(213.918 -19.0596 -1.03387e-08)
(214.968 -19.627 -1.09129e-08)
(216.29 -20.2147 -1.15601e-08)
(217.892 -20.8257 -1.23162e-08)
(219.855 -21.4754 -1.30798e-08)
(222.267 -22.1796 -1.40066e-08)
(225.251 -22.9599 -1.49884e-08)
(228.954 -23.8491 -1.61756e-08)
(234.324 -25.0546 -1.77093e-08)
(239.473 -26.28 -1.91851e-08)
(246.602 -27.8678 -2.10408e-08)
(253.438 -29.4135 -2.27508e-08)
(261.421 -31.129 -2.46144e-08)
(269.002 -32.7205 -2.62575e-08)
(276.478 -34.1686 -2.77778e-08)
(283.81 -35.4974 -2.91576e-08)
(291.068 -36.6868 -3.04814e-08)
(297.834 -37.6766 -3.15305e-08)
(303.977 -38.4626 -3.24809e-08)
(309.35 -39.0639 -3.30976e-08)
(314.005 -39.496 -3.36826e-08)
(317.652 -39.7207 -3.39003e-08)
(320.569 -39.7987 -3.41116e-08)
(322.602 -39.821 -3.40622e-08)
(323.958 -39.9844 -3.40059e-08)
(324.644 -40.4556 -3.3837e-08)
(324.612 -41.5098 -3.36275e-08)
(323.563 -43.4859 -3.34374e-08)
(320.758 -47.188 -3.31078e-08)
(315.552 -52.7774 -3.28964e-08)
(307.17 -59.4737 -3.24045e-08)
(296.054 -64.9363 -3.20973e-08)
(283.196 -66.6852 -3.14116e-08)
(269.205 -65.3299 -3.17948e-08)
(257.357 -63.9534 -3.11645e-08)
(245.12 -59.4788 -3.14428e-08)
(234.335 -56.3246 -3.09163e-08)
(223.217 -50.6289 -3.11392e-08)
(212.947 -46.5935 -3.07358e-08)
(202.441 -40.4926 -3.09339e-08)
(193.062 -35.7298 -3.05776e-08)
(184.39 -29.1379 -3.07276e-08)
(177.554 -23.4467 -3.04858e-08)
(173.002 -16.144 -3.06601e-08)
(171.225 -10.0297 -3.04448e-08)
(170.781 -3.05354 -3.05887e-08)
(170.086 1.94695 -3.05296e-08)
(171.929 8.8614 -3.05467e-08)
(171.411 13.8274 -3.05651e-08)
(173.663 19.3879 -3.06443e-08)
(174.019 24.2364 -3.07086e-08)
(176.894 29.2859 -3.08519e-08)
(178.493 34.2403 -3.09838e-08)
(182.679 39.573 -3.12042e-08)
(186.689 45.274 -3.14108e-08)
(193.906 51.8486 -3.17079e-08)
(202.676 59.2859 -3.20004e-08)
(215.656 67.332 -3.23754e-08)
(229.617 72.9247 -3.27357e-08)
(243.462 72.4296 -3.30913e-08)
(253.075 67.8682 -3.32862e-08)
(260.509 64.432 -3.33792e-08)
(265.841 61.2142 -3.33756e-08)
(269.456 58.3606 -3.41462e-08)
(271.889 53.3211 -3.41702e-08)
(273.242 47.8194 -3.44026e-08)
(274.316 41.8415 -3.46512e-08)
(274.81 36.1822 -3.44928e-08)
(274.785 30.1199 -3.4631e-08)
(273.787 24.6457 -3.46538e-08)
(272.263 19.2628 -3.47712e-08)
(270.005 14.7102 -3.47267e-08)
(267.549 10.5605 -3.48359e-08)
(264.763 7.1985 -3.4796e-08)
(262.126 4.35519 -3.48722e-08)
(259.548 2.23241 -3.48128e-08)
(257.42 0.699572 -3.48507e-08)
(255.656 -0.170951 -3.47932e-08)
(254.53 -0.60081 -3.4815e-08)
(253.913 -0.688076 -3.47847e-08)
(253.672 -0.711084 -3.47924e-08)
(218.379 -2.39074 -1.01349e-08)
(217.828 -3.4016 -1.01167e-08)
(217.743 -4.42389 -1.03042e-08)
(217.561 -5.50712 -1.04016e-08)
(217.726 -6.5664 -1.06303e-08)
(217.838 -7.64765 -1.08228e-08)
(218.197 -8.69253 -1.11086e-08)
(218.56 -9.73704 -1.13849e-08)
(219.15 -10.7425 -1.17381e-08)
(219.822 -11.7526 -1.20984e-08)
(220.728 -12.7414 -1.25336e-08)
(221.79 -13.7442 -1.2991e-08)
(223.115 -14.7411 -1.35317e-08)
(224.683 -15.7622 -1.41143e-08)
(226.584 -16.7939 -1.47975e-08)
(228.854 -17.8653 -1.55523e-08)
(231.599 -18.973 -1.64378e-08)
(234.84 -20.1428 -1.74164e-08)
(238.332 -21.334 -1.84518e-08)
(242.278 -22.5854 -1.95602e-08)
(246.497 -23.8591 -2.07198e-08)
(251.102 -25.1711 -2.19224e-08)
(255.925 -26.4829 -2.31453e-08)
(261.014 -27.7994 -2.43708e-08)
(266.199 -29.0901 -2.55887e-08)
(271.432 -30.3492 -2.67491e-08)
(276.498 -31.5359 -2.78439e-08)
(281.875 -32.7974 -2.89264e-08)
(286 -33.8529 -2.97297e-08)
(291.785 -35.1753 -3.08023e-08)
(295.876 -36.175 -3.14858e-08)
(301.104 -37.3516 -3.23472e-08)
(304.794 -38.2308 -3.28476e-08)
(309.209 -39.2078 -3.34628e-08)
(312.467 -39.9357 -3.37997e-08)
(316.087 -40.6618 -3.41911e-08)
(318.648 -41.1461 -3.43317e-08)
(321.345 -41.6146 -3.45102e-08)
(323.154 -41.9229 -3.44739e-08)
(324.986 -42.2217 -3.44848e-08)
(326.06 -42.378 -3.43033e-08)
(327.087 -42.5996 -3.42049e-08)
(327.596 -42.8714 -3.3931e-08)
(327.885 -43.3562 -3.37657e-08)
(327.663 -44.166 -3.34594e-08)
(326.853 -45.5839 -3.32401e-08)
(324.906 -48.0606 -3.2921e-08)
(321.356 -51.898 -3.26225e-08)
(315.523 -56.9776 -3.22711e-08)
(307.161 -62.2505 -3.18305e-08)
(296.621 -66.1266 -3.14022e-08)
(284.467 -67.1611 -3.07769e-08)
(271.435 -65.654 -3.11058e-08)
(260.081 -63.7117 -3.05398e-08)
(248.426 -59.3752 -3.07798e-08)
(237.904 -55.8015 -3.03155e-08)
(227.219 -50.1569 -3.05157e-08)
(217.161 -45.7939 -3.0176e-08)
(207.084 -39.635 -3.03663e-08)
(197.995 -34.5527 -3.00571e-08)
(189.819 -27.767 -3.01956e-08)
(183.4 -21.8492 -3.0006e-08)
(179.156 -14.5953 -3.01801e-08)
(177.254 -8.41462 -3.00055e-08)
(176.595 -1.71458 -3.01362e-08)
(176.13 3.37493 -3.0112e-08)
(177.208 10.2514 -3.0075e-08)
(176.89 15.1669 -3.01192e-08)
(178.457 20.9976 -3.01426e-08)
(179.007 25.8185 -3.02232e-08)
(181.385 31.0636 -3.03169e-08)
(183.2 36.0228 -3.04649e-08)
(187.104 41.428 -3.06486e-08)
(191.374 47.1252 -3.08692e-08)
(198.512 53.5572 -3.11392e-08)
(207.437 60.4398 -3.14422e-08)
(219.773 66.9485 -3.17877e-08)
(232.429 70.3369 -3.21277e-08)
(244.363 69.0949 -3.24141e-08)
(252.934 65.7133 -3.25672e-08)
(260.126 62.6198 -3.263e-08)
(265.226 58.8997 -3.27806e-08)
(268.566 55.6923 -3.32953e-08)
(270.583 50.1871 -3.35528e-08)
(271.735 45.2235 -3.36086e-08)
(272.61 39.4471 -3.38253e-08)
(273.04 34.272 -3.36892e-08)
(272.883 28.5951 -3.38503e-08)
(271.969 23.6549 -3.37908e-08)
(270.49 18.6671 -3.394e-08)
(268.447 14.5368 -3.38788e-08)
(266.143 10.6729 -3.39778e-08)
(263.632 7.64464 -3.39477e-08)
(261.204 5.06235 -3.4003e-08)
(258.896 3.23522 -3.39591e-08)
(256.976 1.89501 -3.39797e-08)
(255.442 1.17732 -3.39379e-08)
(254.444 0.809599 -3.39451e-08)
(253.9 0.740275 -3.39252e-08)
(253.686 0.720372 -3.39274e-08)
(237.349 -1.01989 -1.73473e-08)
(237.221 -2.14011 -1.7469e-08)
(237.794 -3.3266 -1.7795e-08)
(238.318 -4.63345 -1.8056e-08)
(239.454 -5.97137 -1.84965e-08)
(240.618 -7.38462 -1.89039e-08)
(242.316 -8.80145 -1.9467e-08)
(244.1 -10.2525 -2.00207e-08)
(246.35 -11.7009 -2.07059e-08)
(248.73 -13.1875 -2.13933e-08)
(251.529 -14.6957 -2.2187e-08)
(254.489 -16.253 -2.29855e-08)
(257.809 -17.8368 -2.3863e-08)
(261.273 -19.4561 -2.4736e-08)
(264.997 -21.0809 -2.56533e-08)
(268.782 -22.7055 -2.6541e-08)
(272.649 -24.2947 -2.74246e-08)
(276.449 -25.8435 -2.82494e-08)
(280.435 -27.3628 -2.91026e-08)
(284.344 -28.8283 -2.98944e-08)
(288.318 -30.2404 -3.06822e-08)
(292.176 -31.5862 -3.14018e-08)
(295.996 -32.8639 -3.20926e-08)
(299.655 -34.07 -3.27092e-08)
(303.192 -35.2031 -3.32807e-08)
(306.53 -36.2652 -3.37741e-08)
(309.691 -37.2548 -3.4216e-08)
(313.012 -38.3084 -3.46293e-08)
(314.431 -38.9682 -3.4709e-08)
(317.502 -39.9328 -3.50358e-08)
(318.999 -40.6043 -3.50483e-08)
(321.396 -41.3658 -3.52338e-08)
(322.617 -41.9438 -3.51486e-08)
(324.491 -42.5526 -3.52225e-08)
(325.483 -43.042 -3.50605e-08)
(326.906 -43.512 -3.50435e-08)
(327.642 -43.9002 -3.48128e-08)
(328.642 -44.2416 -3.47242e-08)
(329.139 -44.5509 -3.44379e-08)
(329.776 -44.8106 -3.43011e-08)
(330.042 -45.1157 -3.39709e-08)
(330.354 -45.4447 -3.38e-08)
(330.277 -45.9164 -3.34544e-08)
(330.1 -46.6005 -3.3255e-08)
(329.316 -47.7135 -3.29005e-08)
(327.963 -49.5089 -3.26685e-08)
(325.394 -52.2424 -3.22936e-08)
(321.344 -56.0128 -3.19976e-08)
(315.231 -60.4104 -3.15734e-08)
(307.108 -64.5993 -3.11637e-08)
(297.089 -67.4305 -3.06609e-08)
(285.514 -68.0527 -3.01096e-08)
(273.314 -66.1855 -3.03656e-08)
(262.447 -63.8997 -2.98716e-08)
(251.303 -59.4768 -3.006e-08)
(241.082 -55.5222 -2.96639e-08)
(230.744 -49.8382 -2.98325e-08)
(220.923 -45.0868 -2.95586e-08)
(211.178 -38.8391 -2.97361e-08)
(202.372 -33.333 -2.94705e-08)
(194.561 -26.3599 -2.95951e-08)
(188.421 -20.1497 -2.94485e-08)
(184.308 -12.9555 -2.96207e-08)
(182.245 -6.74022 -2.94773e-08)
(181.403 -0.235381 -2.95978e-08)
(181.002 4.92906 -2.95964e-08)
(181.619 11.6001 -2.95286e-08)
(181.381 16.5628 -2.95833e-08)
(182.499 22.4551 -2.95726e-08)
(183.138 27.2373 -2.96561e-08)
(185.175 32.5479 -2.97172e-08)
(187.154 37.4159 -2.98723e-08)
(190.904 42.7937 -3.0032e-08)
(195.461 48.3362 -3.02625e-08)
(202.598 54.5003 -3.05142e-08)
(211.553 60.7101 -3.08212e-08)
(222.992 65.9066 -3.11386e-08)
(234.305 67.8767 -3.1452e-08)
(244.774 66.5143 -3.16903e-08)
(252.777 63.8006 -3.18333e-08)
(259.642 60.7031 -3.1892e-08)
(264.421 56.7395 -3.20606e-08)
(267.37 53.3142 -3.26162e-08)
(269.121 47.8473 -3.25859e-08)
(270.098 43.252 -3.30069e-08)
(270.898 37.7109 -3.2746e-08)
(271.243 32.9231 -3.30337e-08)
(271.061 27.5763 -3.29434e-08)
(270.208 23.0284 -3.30105e-08)
(268.832 18.3666 -3.30832e-08)
(266.97 14.5701 -3.30511e-08)
(264.86 10.9693 -3.31235e-08)
(262.582 8.21681 -3.31042e-08)
(260.377 5.83524 -3.31437e-08)
(258.314 4.22167 -3.31112e-08)
(256.6 3.04658 -3.3112e-08)
(255.255 2.44728 -3.30888e-08)
(254.369 2.12521 -3.3082e-08)
(253.886 2.06955 -3.30721e-08)
(253.693 2.05184 -3.30685e-08)
(268.093 -0.223153 -2.62518e-08)
(268.885 -1.59335 -2.65885e-08)
(270.054 -3.10176 -2.69959e-08)
(271.411 -4.76341 -2.74106e-08)
(273.118 -6.4961 -2.7892e-08)
(274.974 -8.31329 -2.83738e-08)
(277.131 -10.1492 -2.89148e-08)
(279.379 -12.0132 -2.94459e-08)
(281.859 -13.86 -3.00219e-08)
(284.368 -15.7024 -3.0576e-08)
(287.043 -17.5208 -3.1158e-08)
(289.709 -19.3379 -3.17059e-08)
(292.491 -21.1362 -3.22656e-08)
(295.23 -22.9269 -3.27808e-08)
(298.031 -24.6918 -3.32933e-08)
(300.756 -26.435 -3.37534e-08)
(303.497 -28.1381 -3.41991e-08)
(306.138 -29.7991 -3.45901e-08)
(308.759 -31.3963 -3.49608e-08)
(311.242 -32.9248 -3.52703e-08)
(313.668 -34.3716 -3.55541e-08)
(315.929 -35.7326 -3.57748e-08)
(318.101 -37.0019 -3.59675e-08)
(320.094 -38.1781 -3.6098e-08)
(321.978 -39.2605 -3.61999e-08)
(323.68 -40.2504 -3.62451e-08)
(325.258 -41.15 -3.62628e-08)
(326.796 -42.0695 -3.62231e-08)
(327.01 -42.5527 -3.60532e-08)
(328.314 -43.284 -3.59854e-08)
(328.766 -43.8569 -3.57405e-08)
(329.645 -44.3268 -3.56458e-08)
(329.968 -44.8192 -3.53556e-08)
(330.645 -45.1951 -3.52332e-08)
(330.881 -45.6449 -3.49148e-08)
(331.432 -45.9863 -3.47676e-08)
(331.588 -46.3982 -3.443e-08)
(332.008 -46.6976 -3.42641e-08)
(332.077 -47.0673 -3.39103e-08)
(332.342 -47.3547 -3.3726e-08)
(332.259 -47.7477 -3.33689e-08)
(332.277 -48.1708 -3.31669e-08)
(331.874 -48.8189 -3.28082e-08)
(331.354 -49.7337 -3.25875e-08)
(330.159 -51.1373 -3.2223e-08)
(328.385 -53.1814 -3.19705e-08)
(325.363 -56.0311 -3.15799e-08)
(321.018 -59.541 -3.12722e-08)
(314.862 -63.3277 -3.08281e-08)
(307.046 -66.7144 -3.04283e-08)
(297.526 -68.8539 -2.99036e-08)
(286.489 -69.1641 -2.94078e-08)
(275.047 -66.8608 -2.96022e-08)
(264.64 -64.2934 -2.91655e-08)
(253.98 -59.6652 -2.93088e-08)
(244.061 -55.3763 -2.89689e-08)
(234.041 -49.5432 -2.91102e-08)
(224.451 -44.4373 -2.88933e-08)
(214.999 -38.0171 -2.90613e-08)
(206.454 -32.1189 -2.88322e-08)
(198.935 -24.9273 -2.89452e-08)
(192.979 -18.444 -2.8832e-08)
(188.897 -11.2325 -2.90006e-08)
(186.642 -4.95885 -2.88849e-08)
(185.606 1.45407 -2.89965e-08)
(185.163 6.63189 -2.90123e-08)
(185.494 13.1276 -2.89258e-08)
(185.25 18.1802 -2.89844e-08)
(186.056 24.0661 -2.89523e-08)
(186.696 28.8656 -2.90333e-08)
(188.504 34.2122 -2.90735e-08)
(190.567 39.0195 -2.92322e-08)
(194.232 44.3622 -2.93773e-08)
(198.96 49.7068 -2.96144e-08)
(206.019 55.4744 -2.9855e-08)
(214.783 60.7952 -3.01631e-08)
(225.356 64.6673 -3.04551e-08)
(235.624 65.6197 -3.07491e-08)
(245.023 64.3445 -3.09624e-08)
(252.601 61.8379 -3.11015e-08)
(259.062 58.5644 -3.11594e-08)
(263.509 54.3918 -3.13212e-08)
(266.148 50.8362 -3.18372e-08)
(267.724 45.5751 -3.16789e-08)
(268.565 41.2758 -3.23862e-08)
(269.303 36.0339 -3.17797e-08)
(269.563 31.5861 -3.23292e-08)
(269.388 26.5825 -3.19631e-08)
(268.574 22.392 -3.23284e-08)
(267.319 18.0625 -3.21433e-08)
(265.606 14.5821 -3.23137e-08)
(263.692 11.263 -3.2244e-08)
(261.622 8.76869 -3.23117e-08)
(259.639 6.61221 -3.22751e-08)
(257.794 5.19044 -3.22975e-08)
(256.274 4.15092 -3.22571e-08)
(255.088 3.64014 -3.22604e-08)
(254.301 3.35389 -3.22449e-08)
(253.869 3.30822 -3.22382e-08)
(253.696 3.29226 -3.22351e-08)
(296.215 0.0229268 -3.31204e-08)
(297.108 -1.45628 -3.34387e-08)
(297.95 -3.11014 -3.37189e-08)
(299.161 -4.93848 -3.40431e-08)
(300.368 -6.86501 -3.43372e-08)
(301.847 -8.88995 -3.46568e-08)
(303.332 -10.9468 -3.4952e-08)
(304.983 -13.0324 -3.52549e-08)
(306.621 -15.0988 -3.55349e-08)
(308.327 -17.1502 -3.58074e-08)
(309.991 -19.159 -3.60561e-08)
(311.66 -21.1451 -3.62853e-08)
(313.295 -23.0984 -3.64898e-08)
(314.909 -25.0272 -3.66667e-08)
(316.493 -26.9162 -3.68179e-08)
(318.033 -28.766 -3.69356e-08)
(319.543 -30.5596 -3.70292e-08)
(320.991 -32.2949 -3.70854e-08)
(322.401 -33.9557 -3.71174e-08)
(323.733 -35.5406 -3.71123e-08)
(325.019 -37.0366 -3.70844e-08)
(326.214 -38.4438 -3.70207e-08)
(327.358 -39.7524 -3.69359e-08)
(328.404 -40.9661 -3.68177e-08)
(329.394 -42.0784 -3.66825e-08)
(330.284 -43.0964 -3.65148e-08)
(331.112 -44.0164 -3.63345e-08)
(331.869 -44.9472 -3.61e-08)
(331.88 -45.3687 -3.58981e-08)
(332.531 -46.0988 -3.56636e-08)
(332.64 -46.5741 -3.53715e-08)
(333.071 -47.0424 -3.51609e-08)
(333.112 -47.4283 -3.48447e-08)
(333.433 -47.7894 -3.46293e-08)
(333.434 -48.1325 -3.43062e-08)
(333.695 -48.4695 -3.40831e-08)