/*--------------------------------*- C++ -*----------------------------------*\
  =========                 |
  \\      /  F ield         | OpenFOAM: The Open Source CFD Toolbox
   \\    /   O peration     | Website:  https://openfoam.org
    \\  /    A nd           | Version:  7
     \\/     M anipulation  |
\*---------------------------------------------------------------------------*/
FoamFile
{
    version     2.0;
    format      ascii;
    class       scalarField;
    location    "0.7/lagrangian/reactingCloud1";
    object      age;
}
// * * * * * * * * * * * * * * * * * * * * * * * * * * * * * * * * * * * * * //


2581
(
0.004115
0.00401
0.003905
0.0038
0.003695
0.00359
0.003485
0.00338
0.003275
0.00317
0.003065
0.00296
0.002855
0.00275
0.002645
0.00254
0.002435
0.00233
0.002225
0.00212
0.002015
0.00191
0.001805
0.0017
0.001595
0.00149
0.001385
0.00128
0.001175
0.00107
0.00106625
0.000965
0.00086
0.000755
0.00065
0.000545
0.00044
0.000335
0.00033125
0.00023
0.000125
2e-05
0.057305
0.021555
0.01147
0.010525
0.01042
0.010315
0.01021
0.010105
0.01
0.0098
0.0097
0.0096
0.0095
0.0093
0.0094
0.0092
0.0091
0.009
0.0089
0.0088
0.0087
0.0086
0.0085
0.0082
0.0083
0.0084
0.0099
0.008
0.0081
0.0079
0.0077
0.0078
0.0076
0.0075
0.0073
0.0072
0.0071
0.007
0.0069
0.0074
0.0068
0.0067
0.0066
0.0065
0.0063
0.0064
0.0062
0.0061
0.006
0.0059
0.005795
0.00569
0.005585
0.00547625
0.00548
0.005375
0.00527
0.00506
0.005165
0.004955
0.00485
0.004745
0.00484625
0.00464
0.004535
0.00443
0.004325
0.00422
0.012415
0.011995
0.01168
0.0121
0.011575
0.01231
0.01189
0.011365
0.01126
0.013045
0.011785
0.011155
0.01084
0.010945
0.0108362
0.01105
0.012205
0.010735
0.01063
0.013885
0.0142
0.013675
0.0134612
0.013255
0.01378
0.01315
0.01336
0.01294
0.012835
0.01273
0.012625
0.01357
0.01252
0.01618
0.01462
0.014935
0.015775
0.015565
0.01483
0.014305
0.014515
0.014095
0.014725
0.01399
0.01441
0.01525
0.013465
0.01718
0.01848
0.01678
0.01748
0.01758
0.01708
0.01738
0.01788
0.01638
0.01888
0.01668
0.01648
0.01658
0.01688
0.0187789
0.01818
0.01608
0.01628
0.01567
0.01588
0.01598
0.01546
0.015355
0.015145
0.01504
0.0222247
0.0190377
0.0219897
0.0208224
0.0199143
0.02082
0.025545
0.01958
0.01988
0.01978
0.01948
0.01938
0.01968
0.020505
0.01928
0.01998
0.02019
0.023025
0.01898
0.01858
0.01868
0.01918
0.01828
0.01908
0.01808
0.01838
0.01798
0.01768
0.01728
0.01778
0.01698
0.0215681
0.0239418
0.023123
0.023508
0.023071
0.0226008
0.0264723
0.0235373
0.02646
0.02481
0.02439
0.024495
0.02636
0.02376
0.02334
0.02355
0.023655
0.023235
0.023445
0.02313
0.02418
0.02292
0.0228112
0.022815
0.022605
0.02271
0.0223912
0.02208
0.02187
0.021765
0.02229
0.02996
0.02145
0.021135
0.02124
0.021975
0.02166
0.022395
0.02103
0.021345
0.0211312
0.0251212
0.022185
0.020715
0.0227062
0.020925
0.0225
0.0204
0.020085
0.020295
0.02061
0.0264894
0.0275098
0.0280779
0.0297955
0.029135
0.0295553
0.025925
0.0275362
0.0250016
0.0281274
0.0299526
0.0302094
0.0278506
0.0258138
0.0270305
0.0280358
0.0320854
0.0250617
0.0371975
0.0271314
0.0268932
0.0385187
0.0291498
0.0259703
0.0238251
0.0282916
0.0303855
0.025956
0.0254541
0.030065
0.02956
0.031745
0.02946
0.115985
0.03017
0.02976
0.03248
0.039245
0.02936
0.02916
0.02886
0.02876
0.02846
0.02906
0.02836
0.02866
0.02926
0.02816
0.0308
0.02786
0.02756
0.02826
0.02796
0.02896
0.02736
0.02776
0.02676
0.02716
0.02726
0.02686
0.02766
0.02656
0.02616
0.02696
0.02706
0.02806
0.02856
0.02606
0.02626
0.025755
0.02666
0.02596
0.02746
0.02544
0.02586
0.02502
0.025335
0.02565
0.0246
0.025125
0.024705
0.024915
0.164835
0.050235
0.02523
0.023865
0.024075
0.024285
0.02397
0.0324828
0.0350597
0.0366113
0.0359328
0.0305733
0.0360424
0.0353722
0.0357751
0.0353697
0.032472
0.0311445
0.0409844
0.0323819
0.0318968
0.0390615
0.0382691
0.0363738
0.034389
0.0356211
0.033787
0.0402793
0.0371172
0.0373094
0.0351812
0.0356037
0.0349452
0.0341113
0.0392517
0.0354216
0.0364172
0.0332368
0.0384387
0.0343939
0.0377432
0.0346538
0.0351492
0.0599437
0.0309913
0.0346584
0.0371578
0.0309286
0.036694
0.0412815
0.0361764
0.0460877
0.0356773
0.0364821
0.036409
0.0361924
0.0349872
0.0354494
0.0313732
0.0559444
0.0335468
0.0368545
0.0343225
0.0367059
0.0342846
0.0354197
0.0328461
0.0356076
0.032915
0.0324368
0.039345
0.039845
0.038345
0.036945
0.037745
0.037845
0.036045
0.036145
0.03563
0.036245
0.036645
0.036545
0.035525
0.036445
0.03542
0.04435
0.035735
0.03584
0.035105
0.034685
0.035945
0.034895
0.03437
0.035315
0.03458
0.03416
0.03479
0.03521
0.03353
0.033425
0.033635
0.062525
0.041305
0.03332
0.036345
0.034265
0.03311
0.034475
0.0329
0.03395
0.033215
0.03227
0.032795
0.03269
0.033845
0.034055
0.031955
0.033005
0.03374
0.03143
0.032585
0.035
0.03164
0.03122
0.031535
0.031325
0.031115
0.03185
0.030905
0.032165
0.03101
0.030695
0.040465
0.030275
0.03206
0.030485
0.032375
0.03059
0.02986
0.03038
0.02966
0.0398098
0.0419693
0.0416567
0.0389051
0.0415462
0.0426199
0.0438124
0.0380904
0.0439664
0.0395452
0.040844
0.0392142
0.0434685
0.036993
0.0434907
0.0444895
0.0383911
0.0453967
0.0404282
0.049413
0.0441524
0.0579901
0.0469809
0.0401426
0.0429519
0.0404014
0.0439626
0.0433665
0.0377118
0.0430044
0.0421826
0.0396292
0.0416342
0.0426977
0.0386871
0.0438857
0.0391142
0.0399334
0.0451997
0.0401
0.0438022
0.043422
0.0385584
0.0394442
0.0424494
0.0410853
0.0676425
0.0388113
0.0381328
0.0431634
0.0391161
0.0452649
0.0397837
0.0386902
0.0436774
0.0389358
0.0418724
0.0399113
0.0448534
0.0421341
0.0459973
0.0387969
0.0411057
0.0404781
0.0429665
0.0378854
0.0383036
0.0373399
0.0406844
0.0400987
0.0426328
0.0438172
0.0406716
0.0385789
0.0404348
0.0418557
0.03899
0.0410338
0.0396757
0.0455808
0.040803
0.0389866
0.0447376
0.040551
0.03912
0.0395154
0.0469617
0.0438868
0.0392911
0.040501
0.0410134
0.0435436
0.0405702
0.0395775
0.04254
0.039245
0.0416881
0.0416409
0.0407696
0.0417216
0.0408565
0.0395216
0.0448451
0.0452365
0.0385151
0.0412338
0.0459466
0.0414833
0.0418657
0.0415567
0.0427663
0.0396935
0.0388848
0.0424197
0.0420393
0.0384388
0.052335
0.05412
0.0436791
0.057805
0.046025
0.047225
0.047025
0.045505
0.048125
0.0511762
0.04414
0.04498
0.045295
0.043825
0.047725
0.048925
0.046125
0.04309
0.0433
0.042985
0.043615
0.044455
0.044875
0.042775
0.04246
0.04225
0.04393
0.0447662
0.042355
0.04288
0.04372
0.041935
0.04183
0.04456
0.04267
0.04351
0.042565
0.041725
0.041095
0.04204
0.04162
0.0412
0.04099
0.0429812
0.04057
0.0389241
0.0404612
0.043405
0.039945
0.040675
0.04015
0.040045
0.048625
0.039545
0.039145
0.039745
0.04141
0.039645
0.04078
0.038545
0.038645
0.044035
0.038745
0.038945
0.037945
0.038445
0.038045
0.042145
0.037645
0.039045
0.037445
0.039445
0.041515
0.040885
0.038245
0.038145
0.037545
0.037245
0.043195
0.037145
0.037345
0.038845
0.036845
0.036745
0.037045
0.0514321
0.0447844
0.057376
0.0541949
0.0480837
0.0494569
0.0497319
0.0528379
0.0517674
0.0492055
0.0469669
0.0533546
0.0540232
0.0471421
0.0482969
0.0568939
0.0467053
0.0485282
0.0462972
0.0461882
0.0532789
0.0507644
0.0551542
0.0554506
0.0549188
0.0501656
0.0493023
0.0466206
0.0540022
0.0523316
0.0533788
0.0462188
0.0529271
0.0451349
0.0501865
0.0461868
0.0482013
0.0529659
0.0447604
0.0536353
0.0464462
0.0523855
0.0546058
0.0462982
0.0549139
0.0526691
0.0461873
0.0508301
0.0532503
0.0557067
0.0504636
0.0485456
0.0444499
0.0468516
0.0551203
0.0475904
0.0902988
0.0543517
0.0527671
0.0507902
0.0495414
0.0465518
0.0468029
0.043797
0.0519904
0.0505805
0.0586122
0.0493058
0.0477166
0.0522981
0.0554422
0.0470136
0.0437546
0.051776
0.0459961
0.0460728
0.0559598
0.0514362
0.0535016
0.047395
0.0551083
0.0467304
0.052433
0.0559573
0.0534203
0.0529979
0.0500969
0.0484163
0.0555013
0.0529297
0.0624308
0.0556362
0.0532938
0.0475779
0.0491608
0.0566048
0.0510311
0.0527895
0.0492394
0.0478966
0.0535484
0.0507603
0.0539171
0.050263
0.0590054
0.0484365
0.0449609
0.0463796
0.0473353
0.0523891
0.0505865
0.0440216
0.0542984
0.0529518
0.0453798
0.0552069
0.0511224
0.0504761
0.053332
0.0537614
0.0463804
0.0461125
0.0537037
0.0570094
0.0502583
0.0480044
0.0517865
0.0514884
0.0511347
0.0569624
0.0480688
0.0539347
0.0545708
0.0473238
0.0485986
0.0464201
0.0488695
0.0555144
0.0453575
0.055409
0.0529313
0.0509835
0.0452128
0.0581422
0.0464762
0.053854
0.047711
0.0505077
0.0570414
0.0492664
0.0562041
0.0524637
0.0563175
0.0477533
0.0464802
0.0550002
0.052478
0.0522621
0.0551942
0.0521437
0.0549907
0.0522921
0.0536276
0.0467688
0.0569679
0.0514084
0.0566003
0.0549693
0.0514133
0.0520432
0.0465039
0.0478442
0.0502542
0.05173
0.0555676
0.0473681
0.0438904
0.0510112
0.0513558
0.0509478
0.0488852
0.0485498
0.0529956
0.0519967
0.0466814
0.0539657
0.0524939
0.0483299
0.0529742
0.0474797
0.050227
0.0511835
0.0457014
0.0542009
0.0443805
0.0503327
0.0538131
0.0446366
0.0520957
0.0508449
0.0541712
0.0486631
0.211735
0.048692
0.0476979
0.0468881
0.0498612
0.0464714
0.0571475
0.0533953
0.0470037
0.046599
0.0502924
0.0478284
0.068985
0.04975
0.0450898
0.0487802
0.0597501
0.06137
0.063575
0.0471941
0.06557
0.0489174
0.052194
0.059905
0.056905
0.0456433
0.057405
0.056605
0.059405
0.060005
0.0558
0.064625
0.058305
0.057905
0.055275
0.059005
0.068285
0.05475
0.0468066
0.055905
0.05496
0.055065
0.054225
0.054855
0.06032
0.055485
0.057605
0.057205
0.054645
0.05559
0.056505
0.056405
0.054015
0.062735
0.053175
0.053385
0.058205
0.06011
0.056105
0.0451692
0.05265
0.05517
0.057105
0.056205
0.05538
0.05223
0.055695
0.05433
0.052545
0.05244
0.0537
0.05391
0.0526462
0.051705
0.051495
0.0552712
0.052755
0.056805
0.05118
0.054435
0.05181
0.05307
0.051075
0.050655
0.050865
0.0448796
0.05202
0.05076
0.05097
0.052125
0.051915
0.049625
0.05328
0.049725
0.05454
0.0510712
0.05013
0.050445
0.049425
0.059205
0.0555862
0.049925
0.048425
0.049025
0.049825
0.05034
0.05055
0.049225
0.048825
0.05286
0.05349
0.047825
0.047625
0.049525
0.049125
0.051285
0.0438522
0.047925
0.047125
0.053595
0.046825
0.048725
0.048225
0.048325
0.050025
0.052965
0.046425
0.046225
0.046325
0.049325
0.046725
0.047525
0.045925
0.0454
0.046525
0.04582
0.044665
0.0455012
0.04477
0.047425
0.04561
0.045715
0.04519
0.044245
0.048025
0.0451862
0.045085
0.046925
0.057185
0.0599668
0.0571217
0.0616333
0.0592893
0.060056
0.0664271
0.0660469
0.0581149
0.0579501
0.0630724
0.063358
0.0724292
0.063604
0.0596237
0.0586335
0.0749683
0.0623005
0.0687729
0.0702269
0.0588856
0.0652609
0.0613074
0.0768332
0.0699795
0.059616
0.0645323
0.0595506
0.068672
0.0633535
0.0600077
0.0658299
0.060034
0.0578297
0.0566319
0.0652271
0.0670055
0.0659483
0.0678847
0.066368
0.0628364
0.0693708
0.068268
0.069612
0.0669782
0.0629804
0.0754229
0.0595491
0.0591528
0.0670034
0.069472
0.0637466
0.059584
0.0658641
0.0616684
0.0698565
0.0615809
0.0603357
0.0638264
0.0666434
0.0623299
0.0606493
0.0626864
0.0556821
0.0673309
0.0639739
0.0746271
0.0629596
0.0702899
0.0613094
0.0651354
0.0620526
0.065318
0.0591672
0.0679891
0.0618902
0.0649857
0.060455
0.0570798
0.0677152
0.0644209
0.0670488
0.0695256
0.062044
0.0619852
0.0592075
0.0556274
0.0660087
0.0666196
0.0704944
0.0703175
0.0619348
0.0564838
0.0647779
0.0586119
0.0688662
0.0668002
0.0696332
0.065804
0.0618599
0.0665695
0.0662161
0.056693
0.0598595
0.0646284
0.0612531
0.0611492
0.0628737
0.0607701
0.0638675
0.0676593
0.0707247
0.059692
0.0713726
0.0652166
0.0598363
0.0615465
0.0687621
0.0667705
0.0571619
0.0658995
0.0591322
0.0603224
0.0682324
0.0600344
0.0647272
0.0682193
0.062476
0.0623225
0.0618703
0.0644437
0.0691437
0.0568537
0.0682528
0.0604938
0.061371
0.055661
0.0654413
0.0584122
0.0624307
0.0624596
0.0647492
0.0612278
0.0739275
0.0623315
0.0691137
0.0680934
0.0715423
0.0613516
0.0642628
0.0621741
0.0654096
0.0575498
0.069592
0.0584162
0.0676945
0.0563401
0.0696312
0.0654219
0.0661193
0.0596468
0.070217
0.0579991
0.0571679
0.0612294
0.0686209
0.0687295
0.068222
0.0576447
0.0659054
0.0627982
0.060795
0.0717871
0.0611308
0.0573113
0.0658029
0.0676613
0.0561536
0.0666979
0.0689578
0.0601895
0.0731086
0.0582801
0.0629866
0.0657648
0.0623356
0.0612825
0.0674004
0.0625293
0.0580136
0.0703435
0.0643435
0.0700002
0.0697205
0.0560482
0.0613644
0.0617222
0.0656969
0.0584915
0.0596262
0.0661453
0.0572376
0.0694183
0.0769058
0.0613386
0.0662724
0.0709411
0.0584135
0.0647234
0.0618358
0.0667621
0.0628888
0.0588689
0.0661359
0.072803
0.0619608
0.0573916
0.0599379
0.0609758
0.0655845
0.0581372
0.0641457
0.0573204
0.0642263
0.0691959
0.0602191
0.0662952
0.0596694
0.064342
0.0650862
0.0687803
0.0594917
0.0567543
0.0686229
0.0567934
0.0598742
0.0699457
0.0611648
0.0647353
0.0648862
0.067106
0.0638433
0.0637
0.0633516
0.0714626
0.0595308
0.0621106
0.0666105
0.057488
0.0640653
0.0650365
0.0640697
0.0632259
0.0686365
0.0649523
0.0655604
0.0672449
0.059748
0.067945
0.10034
0.0702788
0.0698198
0.0607881
0.0565166
0.0645679
0.0673573
0.086745
0.079865
0.083635
0.08206
0.07513
0.07555
0.0590764
0.0644675
0.071875
0.072715
0.3164
0.0639459
0.0721862
0.075025
0.077865
0.0660998
0.069885
0.073135
0.076165
0.071665
0.079465
0.0675559
0.07177
0.07114
0.070405
0.07324
0.076465
0.07219
0.067885
0.069985
0.069485
0.073975
0.069185
0.067685
0.07345
0.067385
0.069285
0.071455
0.066485
0.069385
0.068485
0.0658154
0.0653698
0.066585
0.066985
0.066285
0.068585
0.066785
0.069785
0.067585
0.067485
0.075655
0.067185
0.07408
0.065675
0.066185
0.064415
0.06494
0.06578
0.07303
0.06452
0.065885
0.067285
0.066085
0.074395
0.092355
0.06431
0.06368
0.065465
0.0599855
0.063785
0.0648294
0.0576835
0.06347
0.069085
0.070195
0.06326
0.063155
0.06284
0.06221
0.06305
0.062945
0.067085
0.06242
0.064205
0.07072
0.068685
0.06473
0.068185
0.062
0.07261
0.06263
0.061265
0.06053
0.061685
0.063365
0.06389
0.065255
0.068085
0.061055
0.076665
0.079765
0.06536
0.060215
0.061475
0.060425
0.058705
0.06158
0.06095
0.059105
0.071035
0.060635
0.058505
0.0580045
0.067785
0.065045
0.059605
0.058105
0.06179
0.059705
0.06074
0.062105
0.057005
0.058905
0.06116
0.059305
0.057705
0.056305
0.0764668
0.0760456
0.0744132
0.0841541
0.0748846
0.0792334
0.0725564
0.077762
0.0792796
0.0774728
0.0727915
0.0855666
0.0879576
0.0812501
0.074089
0.0753562
0.0762621
0.0873585
0.0769137
0.0803818
0.073911
0.073126
0.0828743
0.0896377
0.0763613
0.0847213
0.11154
0.087098
0.0793593
0.080352
0.074452
0.0829446
0.0806346
0.0800614
0.0782658
0.0724321
0.0801083
0.072118
0.0771028
0.0788608
0.0784641
0.0851134
0.0825263
0.077329
0.0842041
0.0806665
0.0793587
0.0721562
0.0772524
0.0784639
0.0766807
0.0799565
0.0796979
0.0718048
0.074833
0.0808905
0.0785591
0.0841432
0.0770164
0.0816374
0.0723153
0.0776819
0.0862413
0.0828347
0.0820248
0.0846619
0.091399
0.0776832
0.0863173
0.0835434
0.0740375
0.0697974
0.080148
0.0742834
0.0762208
0.0732401
0.0724279
0.0793055
0.0804741
0.0852308
0.071623
0.0741172
0.0784295
0.0783894
0.0796915
0.0775788
0.0814667
0.0880364
0.0790815
0.076486
0.0789121
0.0892767
0.0845159
0.0776758
0.0850861
0.0709731
0.0774778
0.0762484
0.0719795
0.0865494
0.0722837
0.0795962
0.0840007
0.0780963
0.0808297
0.0742837
0.0818508
0.0930211
0.0792839
0.0840172
0.0760127
0.0803681
0.0829351
0.0842992
0.0775886
0.0852896
0.0736917
0.0777805
0.0733736
0.0780048
0.0866961
0.0864584
0.0819934
0.0764402
0.0888583
0.0772195
0.0833671
0.0807847
0.0738092
0.0825642
0.0711514
0.0696701
0.0815169
0.0790758
0.0800418
0.0832748
0.0820097
0.0793156
0.0701194
0.0816175
0.0767027
0.0746581
0.0718299
0.0821955
0.0928472
0.0725984
0.0760546
0.0818194
0.0835646
0.0762704
0.0770779
0.0748991
0.0716461
0.0816207
0.0773368
0.078744
0.0786869
0.0762307
0.0855249
0.0873956
0.0810001
0.0872038
0.0715459
0.0739826
0.0731391
0.0775705
0.0725434
0.0741813
0.0886195
0.0818762
0.0774112
0.0886155
0.0749662
0.0811585
0.139379
0.0732749
0.0802569
0.08233
0.0801367
0.0859439
0.071116
0.093675
0.0741883
0.0744403
0.0722443
0.0768553
0.0811774
0.0739103
0.0796851
0.0843902
0.116785
0.0858074
0.0933
0.112105
0.089145
0.09036
0.0815779
0.087145
0.088245
0.09099
0.0759776
0.094035
0.08542
0.0853309
0.089045
0.085315
0.0876879
0.0912
0.09435
0.089345
0.084055
0.08416
0.09225
0.083845
0.08395
0.08353
0.09057
0.084475
0.09141
0.087845
0.09204
0.086045
0.08374
0.08563
0.08458
0.089945
0.091935
0.0809052
0.086645
0.0764173
0.084685
0.0827928
0.086845
0.084265
0.085945
0.086245
0.0730936
0.082585
0.096725
0.1141
0.090045
0.09393
0.081955
0.097325
0.088745
0.081325
0.0804986
0.092145
0.0814262
0.080485
0.08584
0.080695
0.081745
0.08311
0.081115
0.087345
0.08185
0.0808
0.08248
0.08479
0.078565
0.10097
0.078665
0.077765
0.077565
0.080275
0.084895
0.090465
0.077465
0.078065
0.097625
0.079665
0.0786362
0.079565
0.09246
0.080065
0.078465
0.087545
0.075445
0.093615
0.076965
0.083005
0.089445
0.078265
0.076365
0.0752312
0.08059
0.0745
0.079065
0.07492
0.081535
0.079365
0.07429
0.097825
0.076765
0.078765
0.08038
0.076565
0.080905
0.073555
0.079265
0.07387
0.07576
0.073345
0.076065
0.077065
0.072505
0.074605
0.073765
0.089845
0.072295
0.072925
0.0829
0.07282
0.08521
0.0720848
0.0735512
0.077665
0.0724856
0.079965
0.070825
0.075865
0.0724
0.07093
0.07135
0.0703
0.07009
0.0960833
0.0987637
0.0936731
0.0916737
0.0894819
0.103434
0.1107
0.0872471
0.103678
0.0891909
0.101849
0.0954572
0.0913154
0.0893252
0.0866295
0.0873613
0.0878745
0.104886
0.0919992
0.102458
0.0853893
0.107139
0.0860405
0.0951856
0.0991579
0.102827
0.0864571
0.10197
0.0902847
0.112873
0.0945056
0.108578
0.109314
0.0924872
0.103203
0.0950134
0.0920189
0.103955
0.107672
0.103803
0.0942207
0.0980299
0.106135
0.102826
0.0899354
0.0948039
0.0925188
0.102577
0.0912487
0.112521
0.114103
0.104213
0.0997211
0.106723
0.0868287
0.109482
0.0933027
0.0961948
0.0888524
0.0888187
0.0885571
0.0963979
0.108776
0.0918688
0.091486
0.0910346
0.0965673
0.0987032
0.108011
0.0948025
0.102508
0.097133
0.100052
0.0873656
0.11388
0.102613
0.0889559
0.117365
0.104755
0.106504
0.101065
0.0950212
0.101011
0.0899765
0.0902798
0.104857
0.101077
0.0996517
0.0900485
0.109776
0.0988987
0.0966134
0.100139
0.108441
0.0954816
0.103558
0.0979674
0.101664
0.108399
0.104894
0.0960369
0.0963424
0.102967
0.097955
0.0925135
0.101119
0.108533
0.107781
0.120772
0.101038
0.104275
0.103847
0.101562
0.108976
0.0913382
0.116043
0.104169
0.0962569
0.105182
0.0975945
0.0938379
0.0953161
0.113519
0.1024
0.0864934
0.0927519
0.106417
0.0999288
0.0935359
0.0913117
0.0904536
0.1067
0.0880429
0.0931531
0.100734
0.105805
0.0894167
0.0913418
0.0950942
0.115045
0.108503
0.117404
0.121245
0.134475
0.117385
0.137345
0.13038
0.115553
0.118085
0.107617
0.126065
0.110736
0.116885
0.107605
0.113995
0.12009
0.109405
0.112735
0.11221
0.112315
0.113155
0.109205
0.114415
0.111055
0.107505
0.108877
0.125336
0.10412
0.105062
0.106805
0.105498
0.106305
0.114205
0.121875
0.122085
0.106605
0.106103
0.13017
0.10391
0.109605
0.116285
0.10454
0.106172
0.105227
0.104855
0.10538
0.106205
0.103805
0.11095
0.106005
0.102755
0.110425
0.142565
0.105695
0.105485
0.111685
0.10433
0.102335
0.100644
0.107705
0.10202
0.11032
0.101822
0.10307
0.105905
0.120405
0.10349
0.107205
0.109505
0.107005
0.109005
0.11158
0.109305
0.101677
0.119685
0.10013
0.109431
0.10286
0.120615
0.10517
0.108105
0.128065
0.100445
0.10055
0.128965
0.098325
0.104435
0.110635
0.101705
0.104015
0.126665
0.114625
0.106705
0.0983318
0.1058
0.10139
0.0980217
0.11137
0.099025
0.0902025
0.109705
0.098725
0.0965346
0.11494
0.100689
0.095505
0.107905
0.095925
0.104645
0.097425
0.098425
0.113785
0.100865
0.10265
0.10496
0.096025
0.098625
0.096125
0.099325
0.105275
0.0954
0.09498
0.119785
0.0970028
0.094245
0.096325
0.093825
0.10076
0.098525
0.086521
0.100025
0.095715
0.108005
0.108605
0.10118
0.097525
0.09519
0.108205
0.09561
0.091725
0.095085
0.10559
0.090885
0.09183
0.097125
0.0916622
0.09078
0.096625
0.092565
0.10244
0.090675
0.091515
0.0901178
0.108805
0.1016
0.089545
0.107305
0.093195
0.089645
0.10475
0.091305
0.088045
0.087645
0.088145
0.087945
0.094665
0.098125
0.134685
0.091095
0.09414
0.096525
0.087745
0.086945
0.098925
0.09267
0.095295
0.100655
0.09372
0.096225
0.088945
0.088345
0.085105
0.086345
0.08643
0.145608
0.153388
0.114312
0.132627
0.151222
0.125113
0.146355
0.133682
0.118894
0.134104
0.140802
0.141046
0.136335
0.142506
0.143122
0.120764
0.133662
0.160774
0.113741
0.119478
0.140836
0.116679
0.15863
0.14078
0.122423
0.115361
0.109527
0.145128
0.162356
0.121484
0.118468
0.153571
0.137772
0.113297
0.155004
0.117055
0.130578
0.132166
0.129877
0.175504
0.17248
0.119901
0.160023
0.122391
0.15026
0.157137
0.169143
0.118548
0.157814
0.136019
0.180461
0.115043
0.126431
0.138437
0.125113
0.14846
0.123934
0.126082
0.15176
0.129216
0.160356
0.151229
0.165133
0.144625
0.130629
0.13569
0.110165
0.161249
0.163495
0.153121
0.16427
0.143417
0.16354
0.172135
0.112972
0.11975
0.126097
0.147839
0.146387
0.126643
0.161988
0.148914
0.141631
0.139226
0.113998
0.164188
0.152582
0.156524
0.122892
0.119613
0.149265
0.121018
0.134234
0.146114
0.149881
0.126082
0.119322
0.15196
0.137328
0.153265
0.142414
0.163074
0.149086
0.112631
0.11836
0.13636
0.163807
0.124945
0.158951
0.144149
0.108423
0.131967
0.129229
0.123351
0.12951
0.121506
0.113516
0.127837
0.11591
0.111539
0.189545
0.183106
0.169617
0.119925
0.176465
0.201925
0.199225
0.175441
0.189845
0.175025
0.169285
0.168085
0.165885
0.168185
0.169485
0.18143
0.165988
0.132722
0.133771
0.113821
0.161055
0.16473
0.159405
0.171875
0.169085
0.1829
0.17114
0.159161
0.165534
0.17345
0.176765
0.147072
0.162945
0.16242
0.159105
0.16515
0.162724
0.1703
0.16116
0.160505
0.180485
0.16431
0.157605
0.16095
0.166385
0.178065
0.159505
0.176065
0.16011
0.157105
0.152763
0.16389
0.16494
0.164205
0.158505
0.157451
0.155485
0.124611
0.189945
0.16263
0.157905
0.160635
0.157805
0.152713
0.162
0.158205
0.187845
0.157005
0.185315
0.157405
0.16557
0.163785
0.144028
0.142178
0.157705
0.153175
0.17303
0.120759
0.156005
0.150271
0.166085
0.152646
0.15139
0.158605
0.15055
0.152965
0.15307
0.15118
0.15223
0.15181
0.152545
0.15097
0.21601
0.189745
0.170825
0.155065
0.149019
0.154746
0.15076
0.158005
0.15517
0.148325
0.151495
0.15202
0.15412
0.148825
0.149856
0.147725
0.159605
0.146025
0.159305
0.149725
0.166985
0.115221
0.168785
0.144107
0.15265
0.147682
0.146925
0.147959
0.147625
0.146425
0.145925
0.155695
0.146525
0.14519
0.148925
0.1558
0.152125
0.155905
0.141935
0.150025
0.161895
0.173345
0.162735
0.14414
0.16326
0.147225
0.1433
0.144665
0.144245
0.149204
0.148225
0.160215
0.149625
0.1454
0.14298
0.149225
0.153595
0.165465
0.151075
0.143482
0.177265
0.150447
0.143549
0.1417
0.146125
0.141095
0.17282
0.143296
0.146159
0.147325
0.143615
0.129633
0.147425
0.142456
0.14015
0.139845
0.140045
0.139245
0.151722
0.186145
0.139745
0.14372
0.146225
0.137745
0.14099
0.148025
0.141287
0.138445
0.14057
0.138145
0.138045
0.148725
0.13542
0.15328
0.15286
0.139813
0.167785
0.154435
0.13458
0.14435
0.13584
0.133422
0.114095
0.159005
0.136445
0.11864
0.148525
0.14267
0.158105
0.1329
0.138545
0.138945
0.13374
0.13395
0.140351
0.145295
0.132165
0.131411
0.12355
0.139645
0.13227
0.14078
0.139045
0.148125
0.139545
0.136045
0.145085
0.150235
0.13164
0.13325
0.143405
0.149425
0.140255
0.131465
0.129965
0.128665
0.126576
0.159705
0.126565
0.131325
0.135525
0.127665
0.16347
0.14183
0.147525
0.127065
0.12543
0.127865
0.142145
0.137145
0.137245
0.132795
0.150865
0.135945
0.164516
0.15496
0.132375
0.127365
0.13437
0.131745
0.133635
0.138345
0.128865
0.12507
0.133845
0.137045
0.1224
0.130691
0.111338
0.136145
0.12303
0.126365
0.137945
0.129865
0.122505
0.143195
0.14393
0.135105
0.142985
0.128465
0.13353
0.146625
0.123345
0.12408
0.156905
0.124395
0.153385
0.133005
0.125445
0.12555
0.12072
0.158305
0.124815
0.123555
0.141301
0.123135
0.129565
0.126765
0.144035
0.117583
0.14351
0.123975
0.128365
0.124605
0.125655
0.130695
0.122925
0.135
0.12471
0.119924
0.119385
0.13185
0.12513
0.122295
0.12093
0.129465
0.116762
0.119085
0.13563
0.118485
0.115465
0.117485
0.118585
0.12534
0.1308
0.13521
0.132585
0.118985
0.116985
0.117885
0.135315
0.120195
0.125235
0.116385
0.118385
0.11536
0.116085
0.117083
0.12114
0.11515
0.130485
0.118285
0.119285
0.126165
0.13416
0.12366
0.136645
0.128565
0.139145
0.115005
0.11431
0.118885
0.12282
0.341369
0.112
0.125025
0.109905
0.124185
0.117185
0.12177
0.11053
0.112525
0.13269
0.117785
0.12324
0.1203
0.140675
0.115255
0.113365
0.110005
0.111255
0.10784
0.11179
0.108505
0.108905
0.112257
0.11011
0.12492
0.118185
0.12051
0.141725
0.109805
0.126465
0.119485
0.11284
0.115675
)


// ************************************************************************* //
