/*--------------------------------*- C++ -*----------------------------------*\
  =========                 |
  \\      /  F ield         | OpenFOAM: The Open Source CFD Toolbox
   \\    /   O peration     | Website:  https://openfoam.org
    \\  /    A nd           | Version:  7
     \\/     M anipulation  |
\*---------------------------------------------------------------------------*/
FoamFile
{
    version     2.0;
    format      ascii;
    class       scalarField;
    location    "0.7/lagrangian/reactingCloud1";
    object      cellDensity;
}
// * * * * * * * * * * * * * * * * * * * * * * * * * * * * * * * * * * * * * //


2581
(
0.250833
0.250459
0.250116
0.249905
0.249602
0.249669
0.247593
0.249281
0.248292
0.247289
0.248966
0.24828
0.247654
0.248361
0.247514
0.247331
0.24717
0.247075
0.248163
0.247744
0.248021
0.24797
0.247679
0.247715
0.247845
0.247602
0.247947
0.247773
0.247715
0.247257
0.247824
0.247793
0.247768
0.247781
0.247779
0.247778
0.247794
0.247815
0.247809
0.247828
0.24782
0.247817
0.251646
0.252142
0.25162
0.253179
0.249313
0.251736
0.252064
0.251351
0.247981
0.249636
0.25239
0.250587
0.251538
0.253454
0.249819
0.252682
0.25361
0.253132
0.253724
0.252198
0.252887
0.253896
0.253107
0.253849
0.253886
0.252008
0.251638
0.254105
0.252418
0.252719
0.253413
0.252687
0.253513
0.254116
0.253327
0.253953
0.253222
0.253759
0.253325
0.251679
0.253224
0.253543
0.253656
0.253359
0.253502
0.25279
0.253315
0.253425
0.252983
0.253404
0.252877
0.252765
0.25233
0.25308
0.25222
0.252417
0.25321
0.252974
0.251745
0.252307
0.252876
0.252375
0.251554
0.252682
0.2516
0.251378
0.251043
0.250965
0.213016
0.21941
0.224806
0.231031
0.227979
0.23489
0.234856
0.237448
0.239288
0.242682
0.242669
0.240088
0.242235
0.244198
0.244836
0.246188
0.246774
0.247817
0.24836
0.175837
0.358994
0.176728
0.178539
0.181133
0.181786
0.182929
0.182998
0.192105
0.196468
0.196692
0.198792
0.20026
0.201648
0.194267
0.165275
0.165127
0.193767
0.166302
0.166707
0.168366
0.169375
0.170352
0.173333
0.172318
0.174644
0.174422
0.176593
0.163589
0.189189
0.163744
0.169456
0.362129
0.16406
0.166581
0.26831
0.163907
0.367515
0.163837
0.163906
0.163837
0.16573
0.163917
0.335403
0.164019
0.165258
0.164218
0.164231
0.215797
0.16443
0.16447
0.164646
0.164655
0.162811
0.163301
0.162653
0.162653
0.162703
0.170714
0.234432
0.162636
0.162632
0.162592
0.162664
0.162714
0.162641
0.351666
0.162709
0.17555
0.187816
0.204134
0.162794
0.162962
0.16293
0.184976
0.165734
0.31938
0.163164
0.17287
0.163735
0.163393
0.163502
0.170917
0.163687
0.162468
0.162348
0.162248
0.162171
0.162258
0.162404
0.162203
0.162195
0.345723
0.192565
0.222384
0.252087
0.162117
0.163439
0.162141
0.197627
0.171018
0.162138
0.162434
0.162224
0.162909
0.162196
0.162214
0.162162
0.162183
0.162433
0.168052
0.162239
0.162247
0.162247
0.193022
0.162279
0.162291
0.162372
0.1623
0.195676
0.172709
0.30975
0.162342
0.162408
0.166211
0.359389
0.280703
0.170144
0.172483
0.162656
0.235205
0.163094
0.16641
0.162503
0.191716
0.162035
0.162102
0.162016
0.161996
0.162063
0.16209
0.162085
0.162035
0.162128
0.162058
0.161999
0.161999
0.162023
0.162079
0.162108
0.162019
0.161999
0.162108
0.16204
0.162074
0.162128
0.162023
0.162002
0.162074
0.162148
0.162012
0.162002
0.162074
0.162148
0.209399
0.162302
0.249102
0.1625
0.161993
0.205289
0.162032
0.253737
0.161995
0.161988
0.161996
0.162
0.162242
0.161985
0.16221
0.162182
0.182965
0.193709
0.170957
0.162023
0.161992
0.16202
0.205482
0.162024
0.212431
0.162028
0.162006
0.162034
0.162182
0.193298
0.16244
0.189705
0.162022
0.162033
0.162025
0.205667
0.35757
0.201132
0.162145
0.176063
0.162145
0.216892
0.171251
0.204526
0.162047
0.220794
0.162088
0.179709
0.202618
0.162084
0.178381
0.162085
0.174744
0.162141
0.214026
0.189374
0.162136
0.162091
0.162091
0.16212
0.161956
0.161958
0.161935
0.161936
0.161985
0.161939
0.161937
0.161936
0.161937
0.161962
0.161966
0.161932
0.161958
0.161964
0.161944
0.161947
0.161936
0.161975
0.161945
0.161948
0.161932
0.161933
0.161933
0.161944
0.161951
0.161972
0.16196
0.161932
0.161951
0.161933
0.161975
0.161937
0.16196
0.161932
0.161945
0.161943
0.161964
0.161977
0.161948
0.161933
0.161977
0.161934
0.161933
0.161938
0.161947
0.161937
0.161934
0.161951
0.161935
0.161939
0.161939
0.161975
0.16194
0.16195
0.161935
0.161964
0.161935
0.161948
0.161942
0.161953
0.161937
0.161958
0.161962
0.231375
0.213746
0.258521
0.163373
0.200014
0.331132
0.162709
0.16194
0.161943
0.164061
0.188017
0.192323
0.161974
0.188017
0.163115
0.161936
0.166014
0.169517
0.16196
0.161944
0.282525
0.190181
0.162128
0.196298
0.226859
0.198751
0.244122
0.168235
0.161975
0.161947
0.170857
0.347601
0.341847
0.16262
0.282871
0.161952
0.16196
0.207315
0.162114
0.228745
0.201014
0.162402
0.162346
0.246904
0.166982
0.194916
0.174791
0.194027
0.299427
0.161964
0.188565
0.161976
0.181127
0.161975
0.172952
0.169448
0.161985
0.161967
0.164678
0.161964
0.173923
0.162637
0.356367
0.164828
0.208129
0.176538
0.214289
0.170208
0.161971
0.161983
0.161972
0.161933
0.161965
0.161965
0.161929
0.161955
0.162005
0.161986
0.161929
0.161986
0.161931
0.161935
0.161929
0.161951
0.161931
0.161986
0.162061
0.161929
0.162061
0.161932
0.161955
0.161986
0.161933
0.161986
0.161939
0.161986
0.161932
0.161986
0.162016
0.161929
0.161944
0.161986
0.16193
0.161955
0.162016
0.161929
0.162016
0.161929
0.161933
0.162061
0.161936
0.161947
0.162029
0.161929
0.16193
0.161978
0.161929
0.161929
0.161929
0.161929
0.161944
0.16193
0.162016
0.16193
0.161929
0.162061
0.161931
0.161941
0.161931
0.162043
0.161971
0.162061
0.161929
0.161929
0.161939
0.161965
0.16193
0.161929
0.16193
0.16193
0.16193
0.161936
0.162029
0.16193
0.161929
0.161933
0.161944
0.16193
0.161935
0.161931
0.161947
0.161941
0.16193
0.162061
0.161941
0.161929
0.161929
0.16196
0.16196
0.161931
0.161941
0.161932
0.161978
0.161935
0.161929
0.161986
0.161929
0.161944
0.161944
0.161933
0.161941
0.161933
0.161931
0.161929
0.162061
0.161929
0.161955
0.162061
0.161941
0.161971
0.161951
0.161971
0.161929
0.161929
0.161995
0.161932
0.161929
0.367664
0.347675
0.161995
0.326298
0.295907
0.268651
0.318489
0.216693
0.317673
0.245665
0.196083
0.183036
0.200221
0.167697
0.264268
0.247099
0.301568
0.171703
0.197088
0.163727
0.176393
0.314841
0.18775
0.176393
0.161991
0.171318
0.224272
0.27791
0.175034
0.196908
0.162215
0.163347
0.18879
0.277713
0.197361
0.271414
0.205304
0.173306
0.162037
0.200983
0.190529
0.225775
0.171661
0.353001
0.179144
0.16193
0.161992
0.226987
0.179021
0.181943
0.205368
0.190639
0.346722
0.162192
0.162725
0.181072
0.218719
0.161976
0.210204
0.161965
0.168764
0.3593
0.170084
0.198245
0.161929
0.175625
0.173642
0.337272
0.168953
0.183374
0.172825
0.161931
0.16193
0.267713
0.229824
0.184374
0.162092
0.175149
0.332375
0.162377
0.193962
0.183944
0.162139
0.162115
0.16195
0.183526
0.162282
0.202844
0.198533
0.165882
0.162379
0.164385
0.189869
0.183526
0.166862
0.162379
0.17227
0.196365
0.162379
0.166862
0.198533
0.163426
0.167999
0.162084
0.16285
0.192027
0.167999
0.194194
0.187728
0.198533
0.173938
0.165882
0.162379
0.194194
0.177562
0.189869
0.162209
0.187728
0.162501
0.170714
0.16285
0.165882
0.189869
0.162155
0.187728
0.162379
0.183526
0.196365
0.16285
0.196365
0.187728
0.162155
0.17227
0.194194
0.202844
0.173938
0.165058
0.162282
0.16285
0.194194
0.162501
0.194194
0.198533
0.175707
0.173938
0.17227
0.162501
0.1631
0.162114
0.185611
0.175707
0.185611
0.167999
0.165058
0.187728
0.196365
0.162655
0.162114
0.179492
0.162379
0.162655
0.189869
0.179492
0.181483
0.164385
0.202844
0.1631
0.187728
0.196365
0.179492
0.179492
0.173938
0.162209
0.194194
0.173938
0.200695
0.198533
0.189869
0.162655
0.165882
0.194194
0.179492
0.189869
0.166862
0.163426
0.1631
0.17227
0.179492
0.166862
0.200695
0.166862
0.162209
0.16285
0.163847
0.181483
0.170714
0.162114
0.200695
0.185611
0.162282
0.200695
0.170714
0.165882
0.183526
0.189869
0.162282
0.162209
0.192027
0.200695
0.166862
0.163426
0.173938
0.177562
0.177562
0.200695
0.162209
0.192027
0.200695
0.162655
0.165882
0.1631
0.166862
0.200695
0.162209
0.192027
0.175707
0.177562
0.162209
0.202844
0.16285
0.194194
0.163426
0.170714
0.183526
0.169286
0.202844
0.187728
0.194194
0.164385
0.162282
0.196365
0.185611
0.181483
0.198533
0.17227
0.194194
0.173938
0.185611
0.1631
0.170714
0.179492
0.194194
0.179492
0.179492
0.169286
0.1631
0.164385
0.17227
0.183526
0.187728
0.163847
0.162084
0.175707
0.177562
0.17227
0.167999
0.165882
0.179492
0.165882
0.162282
0.187728
0.181483
0.165882
0.189869
0.16285
0.165058
0.179492
0.162379
0.194194
0.162114
0.165882
0.189869
0.162114
0.170714
0.17227
0.196365
0.167999
0.187728
0.163847
0.163426
0.163426
0.17227
0.162379
0.189869
0.192027
0.162501
0.163426
0.17227
0.162282
0.347253
0.17227
0.162379
0.162155
0.175707
0.323966
0.287762
0.16285
0.301298
0.164385
0.181483
0.217411
0.268149
0.162379
0.233741
0.224533
0.299967
0.207336
0.223124
0.302904
0.199621
0.203078
0.212556
0.271748
0.36555
0.204018
0.162501
0.282631
0.201221
0.213334
0.202364
0.212214
0.382605
0.198616
0.319376
0.238767
0.245974
0.194194
0.2868
0.303416
0.208959
0.323666
0.192124
0.207564
0.285106
0.339533
0.279835
0.162114
0.21516
0.324015
0.288244
0.274892
0.250046
0.189958
0.232867
0.298053
0.198628
0.272884
0.263531
0.181891
0.225652
0.181891
0.194261
0.242281
0.197184
0.343981
0.189951
0.33025
0.180639
0.255
0.176189
0.197521
0.204079
0.162084
0.230931
0.23987
0.177574
0.276981
0.220287
0.185618
0.247161
0.247161
0.187526
0.242333
0.170404
0.256758
0.193937
0.335758
0.299084
0.218113
0.17258
0.222999
0.251424
0.232314
0.190283
0.213954
0.21685
0.29395
0.34865
0.180888
0.164524
0.191332
0.217822
0.316787
0.162084
0.168422
0.179113
0.303781
0.163752
0.224225
0.292358
0.213628
0.304061
0.266602
0.178585
0.181601
0.175721
0.290425
0.188701
0.235836
0.19657
0.165915
0.162412
0.206222
0.162308
0.196348
0.18569
0.269681
0.224315
0.162214
0.224315
0.166392
0.305791
0.162114
0.220393
0.232578
0.213305
0.228587
0.213305
0.235455
0.21126
0.226788
0.250452
0.24027
0.215323
0.215323
0.24027
0.24027
0.260479
0.235455
0.213305
0.221197
0.255663
0.237092
0.260479
0.255663
0.215323
0.243326
0.215323
0.261625
0.261625
0.224957
0.221197
0.21927
0.25931
0.238697
0.215323
0.243326
0.217311
0.20919
0.20919
0.246262
0.247686
0.238697
0.254399
0.238697
0.24027
0.25931
0.254399
0.255663
0.24027
0.232086
0.261625
0.21927
0.224957
0.246262
0.256903
0.238697
0.204979
0.243326
0.230353
0.261625
0.221197
0.221197
0.243326
0.247686
0.232086
0.228587
0.24027
0.204979
0.253109
0.243326
0.25931
0.243326
0.256903
0.232086
0.235455
0.235455
0.233787
0.223093
0.250452
0.224957
0.249083
0.20919
0.213305
0.258118
0.243326
0.243326
0.255663
0.232086
0.238697
0.217311
0.204979
0.251794
0.254399
0.253109
0.261625
0.221197
0.20919
0.244808
0.217311
0.251794
0.246262
0.256903
0.246262
0.233787
0.253109
0.246262
0.213305
0.226788
0.243326
0.230353
0.230353
0.24027
0.221197
0.243326
0.221197
0.25931
0.217311
0.261625
0.238697
0.21927
0.221197
0.250452
0.233787
0.20919
0.243326
0.21927
0.223093
0.246262
0.226788
0.237092
0.255663
0.223093
0.230353
0.228587
0.238697
0.261625
0.204979
0.25931
0.230353
0.228587
0.204979
0.228587
0.21927
0.221197
0.238697
0.244808
0.223093
0.261625
0.20919
0.260479
0.247686
0.261625
0.233787
0.241813
0.226788
0.247686
0.217311
0.254399
0.221197
0.258118
0.204979
0.261625
0.247686
0.251794
0.217311
0.254399
0.21126
0.207095
0.233787
0.255663
0.256903
0.258118
0.20919
0.249083
0.24027
0.232086
0.261625
0.230353
0.207095
0.238697
0.255663
0.20919
0.253109
0.260479
0.228587
0.241813
0.204979
0.24027
0.250452
0.232086
0.233787
0.254399
0.235455
0.204979
0.260479
0.243326
0.261625
0.261625
0.20919
0.232086
0.207095
0.24027
0.221197
0.228587
0.250452
0.213305
0.258118
0.253109
0.232086
0.249083
0.232086
0.21927
0.247686
0.233787
0.255663
0.235455
0.213305
0.226788
0.258118
0.223093
0.21126
0.226788
0.232086
0.235455
0.213305
0.244808
0.20919
0.241813
0.254399
0.224957
0.249083
0.207095
0.246262
0.224957
0.258118
0.204979
0.213305
0.258118
0.204979
0.226788
0.250452
0.228587
0.244808
0.228587
0.243326
0.228587
0.243326
0.243326
0.258118
0.221197
0.237092
0.237092
0.213305
0.244808
0.244808
0.233787
0.235455
0.255663
0.244808
0.249083
0.255663
0.226788
0.238697
0.38289
0.260479
0.237092
0.228587
0.207095
0.247686
0.244808
0.351849
0.364692
0.334996
0.318767
0.31252
0.304856
0.223093
0.24027
0.291019
0.285869
0.382368
0.246262
0.27334
0.308957
0.358858
0.253109
0.26313
0.273542
0.334439
0.322681
0.378919
0.246262
0.270471
0.260032
0.336474
0.275426
0.314536
0.290822
0.257886
0.260946
0.259827
0.288702
0.279926
0.255798
0.321975
0.258331
0.266233
0.27238
0.257151
0.264642
0.286529
0.249083
0.235455
0.251794
0.297687
0.255926
0.250452
0.25348
0.263104
0.266777
0.26843
0.309945
0.250921
0.259017
0.262134
0.258598
0.24796
0.24785
0.250968
0.335608
0.253087
0.244837
0.307871
0.255036
0.324802
0.306803
0.250819
0.249447
0.261533
0.21927
0.318408
0.241844
0.213305
0.240367
0.29456
0.291433
0.257124
0.242067
0.244292
0.238797
0.241744
0.241748
0.274098
0.23868
0.243498
0.252011
0.259812
0.256808
0.264215
0.258926
0.333716
0.265659
0.252855
0.231226
0.231226
0.278714
0.234223
0.319127
0.235166
0.230943
0.229019
0.372774
0.312173
0.234907
0.330276
0.250975
0.221197
0.254767
0.273775
0.228069
0.322825
0.242009
0.223347
0.217942
0.363297
0.339101
0.232959
0.221569
0.286169
0.240783
0.232662
0.263335
0.21191
0.247734
0.232307
0.30232
0.215017
0.213239
0.277309
0.277309
0.271015
0.284344
0.271964
0.282115
0.26806
0.278967
0.276458
0.278967
0.265996
0.287861
0.285777
0.285777
0.267038
0.276458
0.275591
0.290541
0.276458
0.283612
0.26806
0.270048
0.28648
0.284344
0.27381
0.28988
0.287174
0.278145
0.283612
0.282115
0.271964
0.282115
0.27381
0.282869
0.280568
0.26806
0.283612
0.267038
0.274709
0.278145
0.271015
0.271015
0.285777
0.278967
0.289214
0.28648
0.27381
0.263853
0.278967
0.277309
0.272896
0.284344
0.271015
0.26806
0.274709
0.282115
0.278967
0.288541
0.278145
0.28648
0.269063
0.272896
0.290541
0.288541
0.283612
0.285065
0.290541
0.274709
0.28988
0.287174
0.269063
0.263853
0.279775
0.271964
0.272896
0.267038
0.271015
0.271015
0.280568
0.28988
0.264935
0.27381
0.282869
0.279775
0.265996
0.278145
0.28648
0.28988
0.281348
0.274709
0.279775
0.289214
0.28988
0.278145
0.287174
0.26275
0.269063
0.271015
0.264935
0.282869
0.267038
0.276458
0.287861
0.26806
0.28648
0.272896
0.287174
0.289214
0.277309
0.287861
0.269063
0.280568
0.283612
0.28988
0.279775
0.28988
0.269063
0.269063
0.271015
0.280568
0.288541
0.287861
0.285777
0.274709
0.290541
0.278967
0.285777
0.285065
0.26275
0.285065
0.264935
0.26275
0.28648
0.281348
0.281348
0.287174
0.287174
0.282115
0.263853
0.26275
0.271015
0.271015
0.264935
0.284344
0.279775
0.265996
0.264935
0.287174
0.289214
0.271964
0.263853
0.272896
0.263853
0.274709
0.26806
0.281348
0.280568
0.271015
0.276458
0.290541
0.281348
0.281348
0.267038
0.271964
0.269063
0.278967
0.265996
0.271964
0.290541
0.282115
0.275591
0.264935
0.274709
0.26806
0.27381
0.26275
0.282869
0.285777
0.284344
0.288541
0.264935
0.287861
0.270048
0.272896
0.270048
0.278145
0.283718
0.271015
0.278967
0.283612
0.382726
0.290541
0.37643
0.382879
0.346963
0.36388
0.285777
0.329347
0.293504
0.382125
0.271964
0.341205
0.291857
0.291663
0.31785
0.304195
0.289214
0.343389
0.345529
0.327027
0.29397
0.292485
0.322252
0.290278
0.293377
0.289267
0.290278
0.291871
0.325236
0.291039
0.303976
0.318406
0.293218
0.293824
0.299904
0.294784
0.335568
0.285777
0.299904
0.276458
0.286685
0.305529
0.286754
0.33064
0.289628
0.306518
0.269063
0.344883
0.361683
0.382535
0.30844
0.382414
0.28535
0.33397
0.309757
0.285414
0.265996
0.382274
0.313933
0.285751
0.301035
0.308139
0.303067
0.297633
0.284006
0.309488
0.379254
0.283277
0.328111
0.363606
0.285911
0.382598
0.282232
0.280568
0.283825
0.283825
0.280309
0.310835
0.279003
0.279308
0.339028
0.284041
0.278145
0.304251
0.357473
0.284467
0.285874
0.382508
0.277473
0.367804
0.301059
0.350915
0.320205
0.346996
0.274709
0.274749
0.353887
0.276704
0.2779
0.284355
0.299967
0.311265
0.272111
0.271978
0.28063
0.275298
0.315185
0.291239
0.283874
0.271166
0.272012
0.272594
0.342272
0.276131
0.277763
0.295078
0.268223
0.27811
0.304564
0.368884
0.283547
0.267391
0.311642
0.267799
0.344145
0.266047
0.274527
0.290269
0.332455
0.367756
0.264952
0.346991
0.277859
0.28096
0.264365
0.263907
0.264452
0.30433
0.30433
0.300638
0.298785
0.297544
0.30989
0.31051
0.293135
0.31051
0.296921
0.30989
0.3031
0.294408
0.293773
0.293135
0.291847
0.29504
0.30989
0.299404
0.309269
0.291847
0.312381
0.293135
0.3031
0.305561
0.309269
0.292493
0.306794
0.29504
0.30989
0.299404
0.307412
0.311755
0.298785
0.31051
0.303715
0.298165
0.30989
0.313004
0.3031
0.296921
0.301254
0.30865
0.309269
0.293135
0.302485
0.300021
0.306178
0.296297
0.313004
0.312381
0.30865
0.304945
0.313004
0.294408
0.3031
0.301254
0.303715
0.29504
0.296921
0.294408
0.294408
0.311133
0.300021
0.300021
0.298785
0.303715
0.30433
0.298165
0.300638
0.306794
0.299404
0.306794
0.294408
0.313004
0.309269
0.29504
0.30865
0.313004
0.311755
0.30803
0.300638
0.301254
0.297544
0.298165
0.304945
0.29567
0.29504
0.29504
0.311133
0.30433
0.304945
0.306794
0.313004
0.296297
0.307412
0.30433
0.309269
0.311755
0.30865
0.30433
0.3031
0.309269
0.306178
0.299404
0.301254
0.30865
0.312381
0.311755
0.306794
0.30803
0.309269
0.30803
0.313004
0.298785
0.31051
0.30865
0.298165
0.30803
0.305561
0.296297
0.3031
0.30865
0.307412
0.293135
0.301254
0.312381
0.3031
0.299404
0.293773
0.296921
0.296297
0.29567
0.300638
0.306178
0.31051
0.296921
0.296921
0.298785
0.369034
0.312381
0.367013
0.382369
0.382297
0.345778
0.382602
0.330851
0.354948
0.382252
0.304945
0.345713
0.330309
0.317813
0.313323
0.320713
0.382628
0.316925
0.331296
0.318081
0.311875
0.325219
0.316049
0.315884
0.313031
0.316743
0.378678
0.328531
0.317096
0.304945
0.314547
0.329783
0.33702
0.323788
0.343879
0.317299
0.313837
0.334149
0.371366
0.314428
0.332948
0.382816
0.311133
0.321745
0.346353
0.318409
0.337572
0.312836
0.313197
0.311047
0.324882
0.312871
0.310777
0.382792
0.311482
0.348682
0.314745
0.322487
0.31282
0.305561
0.333279
0.309984
0.320686
0.329695
0.326457
0.310896
0.382778
0.310248
0.309023
0.318358
0.335054
0.341216
0.33662
0.314644
0.309858
0.344485
0.311283
0.319397
0.307552
0.378513
0.356173
0.381838
0.350622
0.310658
0.306845
0.382707
0.307193
0.382079
0.382796
0.315288
0.306725
0.382796
0.336517
0.313861
0.31011
0.364597
0.308836
0.305975
0.382661
0.338569
0.298411
0.350449
0.305517
0.305245
0.382215
0.303715
0.306306
0.354996
0.304682
0.337519
0.358871
0.339173
0.382841
0.32424
0.341647
0.312415
0.303157
0.352676
0.305914
0.310217
0.328785
0.307608
0.304534
0.382312
0.294408
0.301383
0.313827
0.305664
0.313786
0.307613
0.292493
0.30583
0.304485
0.30856
0.341647
0.315923
0.323147
0.331602
0.373083
0.335908
0.302409
0.360695
0.299026
0.30046
0.298972
0.30612
0.299604
0.297857
0.318811
0.307282
0.38247
0.304144
0.301013
0.296928
0.34717
0.305197
0.297163
0.33989
0.296448
0.312029
0.360208
0.300917
0.295677
0.299619
0.296061
0.294523
0.29633
0.330296
0.382857
0.305858
0.300771
0.329333
0.294126
0.301213
0.344263
0.297984
0.346625
0.321833
0.382436
0.336053
0.295952
0.292541
0.291855
0.291847
0.292221
0.33056
0.333858
0.31676
0.324974
0.331849
0.319278
0.329963
0.321801
0.32054
0.324974
0.328059
0.323711
0.326828
0.329963
0.324974
0.314254
0.326229
0.335201
0.31676
0.318018
0.32054
0.313631
0.335713
0.328059
0.31676
0.315505
0.314882
0.328705
0.335201
0.321801
0.316136
0.333858
0.323711
0.314882
0.333858
0.319278
0.321801
0.323064
0.325584
0.332558
0.334437
0.32054
0.334437
0.32054
0.326229
0.335201
0.335713
0.318654
0.332558
0.325584
0.332558
0.314882
0.323064
0.328059
0.321801
0.329963
0.319916
0.323711
0.33056
0.322444
0.331248
0.328705
0.329963
0.329295
0.323064
0.327471
0.314882
0.335201
0.335201
0.333858
0.331849
0.328705
0.335713
0.334437
0.316136
0.317393
0.323711
0.33056
0.329295
0.321801
0.333149
0.332558
0.327471
0.329295
0.317393
0.335713
0.331248
0.334437
0.32118
0.319278
0.329963
0.32118
0.323064
0.329295
0.332558
0.324329
0.317393
0.329963
0.325584
0.329295
0.319916
0.329295
0.331849
0.316136
0.319278
0.328059
0.334437
0.322444
0.335201
0.329963
0.314882
0.324974
0.325584
0.324329
0.32054
0.318654
0.317393
0.32118
0.316136
0.314254
0.38291
0.382899
0.335201
0.321801
0.382871
0.382888
0.382688
0.375875
0.377234
0.382921
0.377234
0.382604
0.375875
0.382629
0.362088
0.351994
0.357571
0.326828
0.326229
0.318018
0.345222
0.382888
0.374176
0.349346
0.374176
0.344634
0.373337
0.339484
0.367969
0.343494
0.352243
0.331849
0.344634
0.338214
0.335746
0.360029
0.370045
0.362573
0.354989
0.334437
0.351791
0.348117
0.341404
0.335539
0.33817
0.382785
0.382805
0.342952
0.339578
0.359316
0.333149
0.336386
0.345433
0.337409
0.33661
0.338649
0.335161
0.317393
0.38294
0.369196
0.366471
0.334497
0.33392
0.333149
0.338538
0.345633
0.382822
0.33561
0.382843
0.345965
0.347031
0.371876
0.329963
0.323711
0.340787
0.371107
0.382917
0.32054
0.334586
0.338413
0.348676
0.333558
0.340787
0.357625
0.335295
0.37396
0.333166
0.338814
0.340787
0.334662
0.333761
0.335629
0.382851
0.382888
0.335847
0.343036
0.333769
0.376313
0.382434
0.339804
0.372902
0.332556
0.332979
0.371044
0.338143
0.34252
0.331973
0.331888
0.360479
0.333523
0.337718
0.358388
0.372493
0.317393
0.382884
0.325584
0.352041
0.342193
0.382336
0.331736
0.334258
0.331254
0.344538
0.333974
0.340544
0.350472
0.350644
0.382679
0.376152
0.339568
0.338722
0.3827
0.336781
0.357201
0.382379
0.335945
0.382785
0.351514
0.333946
0.332019
0.345373
0.328059
0.382857
0.343763
0.37082
0.34993
0.338369
0.333936
0.34743
0.38284
0.364625
0.330351
0.362059
0.356806
0.337884
0.347999
0.335081
0.329975
0.382482
0.367002
0.337272
0.341901
0.338273
0.324974
0.33711
0.382509
0.34743
0.328159
0.328726
0.337436
0.328059
0.382933
0.38256
0.350825
0.339901
0.338422
0.382368
0.360784
0.369364
0.32878
0.335061
0.335398
0.338237
0.327477
0.331129
0.382817
0.33482
0.323064
0.382868
0.357302
0.326912
0.36146
0.343551
0.327075
0.317393
0.382808
0.33734
0.32054
0.332904
0.336613
0.38286
0.32923
0.356112
0.332866
0.328893
0.326279
0.343571
0.331903
0.33976
0.324329
0.313631
0.365089
0.327783
0.348496
0.325584
0.382385
0.332655
0.326211
0.328907
0.38283
0.325922
0.326452
0.361897
0.330807
0.355361
0.340339
0.347116
0.331053
0.324331
0.382435
0.331126
0.329832
0.366173
0.330351
0.382861
0.369103
0.382774
0.32499
0.324344
0.323713
0.373266
0.340329
0.331668
0.363109
0.327569
0.347116
0.382905
0.382827
0.341283
0.381663
0.324581
0.359028
0.333944
0.368861
0.342348
0.324206
0.328207
0.382565
0.327452
0.327401
0.313631
0.382684
0.325397
0.378969
0.382317
0.382334
0.325067
0.382281
0.35773
0.382319
0.322065
0.322981
0.344409
0.382898
0.328715
0.322027
0.382829
0.324587
0.382591
0.358295
0.328503
0.321263
0.321209
0.38284
0.321636
0.324587
0.355061
0.321451
0.321263
0.32785
0.382775
0.322932
0.382872
0.35838
0.335094
0.321529
0.382566
0.338622
0.326825
0.345534
0.377091
0.319423
0.382255
0.328198
0.356114
0.319278
0.322659
0.349679
0.320019
0.338661
0.337896
0.325414
0.320318
0.318722
0.340172
0.382566
0.359188
0.318686
0.325505
0.324641
0.33243
0.318535
0.337171
0.342891
0.318726
0.344363
0.317393
0.317664
0.323781
0.355377
0.361645
0.318191
0.343669
0.323781
0.335831
0.338954
0.363574
0.334181
0.382873
0.338954
0.382569
0.323102
0.331531
0.34025
0.341447
0.316572
0.316267
0.362526
0.315542
0.349609
0.329837
0.367101
0.318632
0.331166
0.338425
0.319085
0.358143
0.314882
0.382765
0.363288
0.31621
0.315134
0.317243
0.313631
0.315326
0.315237
0.315717
0.366634
0.314664
0.382249
0.32017
0.334912
0.378804
0.316826
0.361787
0.375053
0.331416
0.319479
)


// ************************************************************************* //
