/*--------------------------------*- C++ -*----------------------------------*\
  =========                 |
  \\      /  F ield         | OpenFOAM: The Open Source CFD Toolbox
   \\    /   O peration     | Website:  https://openfoam.org
    \\  /    A nd           | Version:  7
     \\/     M anipulation  |
\*---------------------------------------------------------------------------*/
FoamFile
{
    version     2.0;
    format      ascii;
    class       labelField;
    location    "0.7/lagrangian/reactingCloud1";
    object      cellId;
}
// * * * * * * * * * * * * * * * * * * * * * * * * * * * * * * * * * * * * * //


2581
(
2861
2799
2730
2626
2545
2501
2382
2352
2258
2181
2103
1997
1918
1870
1781
1710
1639
1499
1474
1381
1332
1262
1173
1107
1051
956
937
839
759
612
712
637
560
494
420
343
280
233
225
194
108
2
315
1473
3177
2627
3527
3179
3110
3249
3559
3343
3046
3202
3060
2772
3230
2850
2703
2713
2565
2731
2652
2503
2517
2304
2021
1204
657
2090
2407
2330
2111
2266
2041
1959
1910
1825
1845
1692
1705
384
1547
1481
1485
1497
1279
1448
1290
1216
1161
1076
1024
957
902
808
835
755
664
530
646
472
391
328
427
252
199
131
68
17
6404
5301
4203
1421
1740
1215
1221
1034
897
666
669
831
635
485
418
337
259
136
68
9820
7845
9546
8998
8169
7579
7617
7315
4530
3130
3135
2583
1722
1746
9454
8391
8638
7780
6396
5838
4171
3602
2778
2483
1661
1646
538
8
9681
8826
9143
9109
7693
8834
8831
7423
7470
6017
7170
7185
7170
6878
6903
4629
5504
4367
3270
3256
2405
1592
1309
483
490
7694
3509
9368
9368
8810
9319
8191
9355
9048
8773
8791
8519
8491
6784
7946
7643
6803
6242
7109
6295
5710
4571
4018
2883
3471
2341
2346
1516
1253
667
151
2042
4274
6785
9296
6506
3158
8180
8459
8941
9803
8959
8117
8986
8977
8426
7848
8135
8151
8142
7865
7582
7887
7613
7314
6757
6188
5903
5927
5084
4802
4500
4246
4249
3710
3687
3104
3389
2810
2565
2282
2275
1935
1139
1436
877
605
307
324
321
52
35
5876
2249
7271
8945
4202
2807
3086
5876
1133
4481
8666
8666
6713
3365
1970
6992
8666
1970
5597
3644
1133
6713
8387
3644
296
7550
8387
3644
296
9172
9754
8883
9753
9224
8615
9199
8045
8943
8933
8377
8363
8358
8087
8079
7800
7506
7223
7232
6713
7249
6706
6382
6427
6101
6407
5853
5587
5566
4990
5285
4712
5019
4462
4177
3870
2977
3313
3612
3321
3612
3030
3323
3033
3063
2471
2517
2203
1638
1390
1366
1381
809
573
519
246
1
267
267
277
3851
3572
8594
8036
224
7199
7757
8036
7757
3014
2456
9431
3572
2735
6083
5525
8036
1340
5804
5246
9710
9152
9152
6083
4688
1619
3293
9710
4688
9152
1340
7757
3293
9431
5804
6362
2735
1061
5246
9152
1061
8873
9152
7478
5525
7757
8873
4688
8315
7199
7199
1340
6920
4967
8594
2735
8315
5246
6641
4409
7757
3572
3014
9376
9103
8810
9410
8271
7674
8853
8865
8585
8571
7718
7716
8302
7718
8014
8036
7731
7449
7186
7189
5735
6321
6622
5760
5470
5759
5186
5495
5509
5514
5214
4040
4045
4943
4061
4954
4952
4360
4667
4074
3804
4106
3827
3511
3541
3248
3257
2690
2384
2439
2413
2437
2137
2158
2141
2143
2157
2173
1588
1604
1582
1312
677
750
731
743
450
467
487
218
207
4337
7127
7127
2663
6569
8522
7964
2105
7964
3779
4616
2384
6290
152
7964
9638
1547
9638
4058
6569
7964
4337
7964
5174
7964
4058
7964
8801
1547
5732
7964
3221
6569
8801
1547
8801
2105
4337
9638
4895
6011
9080
2384
3500
7685
2663
2942
2663
2105
5732
3500
8801
3500
1547
9638
152
5453
3779
9359
7406
9638
2663
2663
5174
7127
431
989
710
3500
3221
4895
9080
3221
2105
4337
5732
3221
4616
3779
6011
5453
3221
9638
5453
2663
1826
6848
6848
3779
5453
4058
7685
4616
2663
7964
1268
5732
5732
4337
5453
4337
3779
1268
9638
1268
6569
9638
5453
7406
6290
7406
2663
2663
8243
4058
2105
8662
8693
8243
8990
9006
9575
8716
9316
7880
8467
9605
9333
8765
9344
7623
7629
7330
8782
8208
8790
8220
7045
8213
8220
7963
7665
7079
6223
7383
7091
7678
7394
6816
5665
6253
5388
5970
6267
6284
5972
5698
5124
5151
3670
5146
3221
5168
4286
4029
3748
3457
3464
2563
3488
3485
3190
2614
2934
2059
2376
2081
1430
2080
1785
1826
1797
1519
1178
1243
1234
961
986
987
645
656
675
696
401
345
414
391
396
416
137
143
7055
1196
9566
9008
3986
1475
3428
7892
7055
4265
1475
5381
8729
1475
4265
9008
2870
4544
80
2312
8171
4544
8450
7613
9008
5660
3986
1475
8450
6218
7892
917
7613
1754
5102
2312
3986
7892
638
7613
1475
7055
8729
2312
8729
7613
638
5381
8450
9566
5660
3707
1196
2312
8450
1754
8450
9008
5939
5660
5381
1754
2591
359
7334
5939
7334
4544
3707
7613
8729
2033
359
6497
1475
2033
7892
6497
6776
3428
9566
2591
7613
8729
6497
6497
5660
917
8450
5660
9287
9008
7892
2033
3986
8450
6497
7892
4265
2870
2591
5381
6497
4265
9287
4265
917
2312
3149
6776
5102
359
9287
7334
1196
9287
5102
3986
7055
7892
1196
917
8171
9287
4265
2870
5660
6218
6218
9287
917
8171
9287
2033
3986
2591
4265
9287
917
8171
5939
6218
917
9566
2312
8450
2870
5102
7055
4823
9566
7613
8450
3428
1196
8729
7334
6776
9008
5381
8450
5660
7334
2591
5102
6497
8450
6497
6497
4823
2591
3428
5381
7055
7613
3149
80
5939
6218
5381
4544
3986
6497
3986
1196
7613
6776
3986
7892
2312
3707
6497
1475
8450
359
3986
7892
359
5102
5381
8729
4544
7613
3149
2870
2870
5381
1475
7892
8171
1754
2870
5381
1196
9720
5381
1475
638
5939
9188
9496
2312
8928
3428
6776
9826
9789
1475
9813
9820
8929
8713
9541
8090
8721
9564
8989
8111
6350
8997
1754
8104
8719
8428
8999
8709
5749
9007
6962
8411
7568
8450
6985
6974
7871
6401
8170
7872
6707
5829
6152
359
7307
6122
6147
6434
6448
7045
6178
5583
6478
6156
5882
6774
6182
6774
6481
5614
6199
4710
6204
5002
6212
5328
5937
5639
5635
80
5061
4777
5093
4479
4787
5087
4494
4494
4526
4217
4820
4210
4522
3604
3630
4229
4257
3947
3654
3663
3685
3672
3391
3075
2755
3691
3427
3125
3111
2504
80
3421
2853
2233
2868
2549
2239
2554
1954
2251
2294
2292
2296
1961
2008
1985
1724
1745
1474
1160
1195
1165
1171
854
593
636
593
626
280
359
36
31
1124
3356
1124
4472
845
3077
7262
5309
1403
1403
5309
5309
9494
4472
1124
2240
8378
4751
9494
8378
1403
5867
1403
9773
9773
2798
2240
1961
9215
5030
1403
5867
1682
566
566
6425
6704
5030
8099
5030
5309
9215
8099
8378
5309
3914
9773
1961
2798
6425
8657
5030
8
5867
3635
9773
2240
2240
5867
6704
3914
3356
5309
8
7820
5867
9215
5867
8657
3914
4472
4472
4193
2519
7262
2798
6983
566
1124
8936
5867
5867
8378
3914
5030
1682
8
7541
8099
7820
9773
2240
566
6146
1682
7541
6425
8657
6425
4193
7820
6425
1124
3077
5867
3635
3635
5309
2240
5867
2240
9215
1682
9773
5030
1961
2240
7262
4193
566
5867
1961
2519
6425
3077
4751
8378
2519
3635
3356
5030
9773
8
9215
3635
3356
8
3356
1961
2240
5030
6146
2519
9773
566
9494
6704
9773
4193
5588
3077
6704
1682
8099
2240
8936
8
9773
6704
7541
1682
8099
845
287
4193
8378
8657
8936
566
6983
5309
3914
9773
3635
287
5030
8378
566
7820
9494
3356
5588
8
5309
7262
3914
4193
8099
4472
8
9494
5867
9773
9773
566
3914
287
5309
2240
3356
7262
1124
8936
7820
3914
6983
3914
1961
6704
4193
8378
4472
1124
3077
8936
2519
845
3077
3914
4472
1124
6146
566
5588
8099
2798
6983
287
6425
2798
8936
8
1124
8936
8
3077
7262
3356
6146
3356
5867
3356
5867
5867
8936
2240
4751
4751
1124
6146
6146
4193
4472
8378
6146
6983
8378
3077
5030
8960
9494
4751
3356
287
6704
6146
9348
9327
9374
9675
9404
9693
2519
5309
9711
9718
6754
6425
9737
8571
7386
7820
9761
9176
7702
8275
6518
6425
9181
8923
7978
8893
7727
8034
8648
8638
8641
7757
8327
8375
7718
8363
8066
7777
8084
7788
7480
6983
4472
7541
7188
7523
7262
7247
6949
6664
6382
6337
6689
6955
6670
6675
6700
6701
6407
4913
6403
6145
5223
6119
4647
4666
5283
5847
5550
1961
4654
5587
1124
5307
4678
4681
5275
5299
5012
5028
5300
5017
4418
4742
4732
4160
4152
4155
3868
3873
3243
3587
3879
3629
3629
3296
3340
2980
3620
3346
3352
2349
2429
2777
2132
2481
2240
2198
2462
2505
1861
2209
1949
1394
1251
1286
1657
1670
1335
1650
1377
1073
841
805
817
485
272
274
4400
4400
2447
6911
2726
6074
1610
4958
4121
4958
1052
8306
7469
7469
1331
4121
3842
9422
4121
6632
1610
2168
7748
6911
3284
9143
8027
4679
6632
6074
2726
6074
3284
6353
5516
1610
6632
1331
3563
4679
2447
2447
7469
4958
8864
7748
3284
494
4958
4400
3005
6911
2447
1610
3563
6074
4958
8585
4679
7748
1889
3005
9422
8585
6632
7190
9422
3563
9143
8027
1889
494
5237
2726
3005
1331
2447
2447
5516
9143
773
3284
6353
5237
1052
4679
7748
9143
5795
3563
5237
8864
9143
4679
8027
215
1889
2447
773
6353
1331
4121
8306
1610
7748
3005
8027
8864
4400
8306
1889
5516
6632
9143
5237
9143
1889
1889
2447
5516
8585
8306
7469
3563
9422
4958
7469
7190
215
7190
773
215
7748
5795
5795
8027
8027
6074
494
215
2447
2447
773
6911
5237
1052
773
8027
8864
2726
494
3005
494
3563
1610
5795
5516
2447
4121
9422
5795
5795
1331
2726
1889
4958
1052
2726
9422
6074
3842
773
3563
1610
3284
215
6353
7469
6911
8585
773
8306
2168
3005
2168
4679
6628
2447
4958
6632
8340
9422
8670
8048
9275
8688
7469
9031
9678
7527
2726
8450
9689
9691
9333
8803
8864
7888
7605
8198
9394
9119
8207
9134
9115
8861
9134
8840
7643
8562
7684
7097
8272
8270
7413
8267
7066
7469
7413
4121
7742
7401
7741
7354
8287
7399
1889
6491
5904
5312
6836
5563
7183
5953
5995
6614
1052
4174
6267
6895
6291
6557
6287
6298
6339
5716
4763
6060
5126
5065
6048
4161
5783
5516
5211
5211
5228
4596
4956
4951
3992
4648
4679
4607
3681
4366
4082
2525
4109
3108
3494
3135
3185
3142
3563
3561
2851
3264
3260
3244
2657
2640
2722
2725
2691
2705
2355
2671
2404
2443
2436
2433
2035
2421
2136
1546
1606
1574
1253
877
1284
1325
964
1038
917
1050
1020
714
656
600
772
355
453
448
487
492
202
5723
5723
4049
3212
2654
8234
8513
701
8513
2375
8234
5165
1259
980
701
143
1538
8234
3491
7955
143
9350
701
5165
6281
7955
422
6839
1538
8234
3491
7118
9071
3212
8513
5444
2933
8234
9629
5165
2375
4328
7676
7955
701
4886
3770
6560
2096
9629
9350
7676
6002
9629
1259
5165
4328
5444
1538
2375
1259
1259
8792
3770
3770
3212
5444
5723
2933
4049
6839
3491
6839
1259
9629
7955
1538
7676
9629
9071
7397
4049
4328
2654
2933
6002
1817
1538
1538
8792
5723
6002
6839
9629
2096
7118
5723
7955
9071
7676
5723
5165
7955
6560
3491
4328
7676
9350
9071
6839
7397
7955
7397
9629
3212
8513
7676
2933
7397
6281
2096
5165
7676
7118
701
4328
9350
5165
3491
980
2375
2096
1817
4049
6560
8513
2375
2375
3212
9714
9350
9717
9118
8842
9761
9109
9808
9459
8844
6002
9203
9250
9580
9617
9285
7992
9303
8967
9297
9064
8707
9308
9309
9047
9304
7749
8696
9584
6002
9035
8692
8670
8712
8371
8738
8757
8399
7481
8471
8123
6866
8792
8439
7806
8452
7551
8481
8196
8498
8428
8198
7930
6310
8208
7242
7906
8156
7916
6281
7563
7938
7882
7853
7583
7929
6032
7935
7664
7610
7558
7541
6995
7344
7370
6416
7643
6485
7111
6077
6111
5513
6122
6800
6835
4641
6827
5225
5194
6499
6546
4915
5599
5943
5958
5261
6246
5983
5201
5873
2925
5007
5988
5992
4382
5444
5414
4998
5426
4759
5270
4755
4353
4792
4470
4826
5161
4166
4852
4553
4501
4844
4860
3557
1259
4322
4261
4290
3981
4001
422
4008
4014
3717
3354
3695
3956
3377
3019
3088
3743
3037
3204
3190
3205
2603
2630
2645
2289
2319
1861
2329
2341
2374
1947
2045
2081
1684
2090
1746
1644
1779
1816
1503
1522
1254
1237
867
725
922
937
869
971
655
559
666
554
326
493
297
393
419
142
143
134
7604
8999
1466
5093
8162
2582
7325
3698
3140
5093
6488
4535
5930
7325
5093
350
5651
9557
1466
2024
3140
71
9836
6488
1466
908
629
6767
9557
3698
1187
8999
4535
629
8999
2582
3698
4256
5372
8441
9278
3140
9278
3140
5651
9557
9836
2303
8441
5372
8441
629
4256
6488
3698
7325
2861
4535
7604
3977
7883
6767
7325
7046
4256
6209
629
9557
9557
8999
8162
6767
9836
9278
1187
1745
4535
7604
7046
3698
8720
8441
6209
7046
1745
9836
7883
9278
3419
2582
7325
3419
4256
7046
8441
4814
1745
7325
5372
7046
2861
7046
8162
1187
2582
6488
9278
3977
9557
7325
629
5093
5372
4814
3140
2303
1745
3419
1187
350
9575
9577
9557
3698
9582
9298
9034
9620
9339
9293
9339
9317
9620
9596
9646
9680
9379
5930
5651
2024
9721
8457
9344
9134
9344
9162
8788
9766
9076
9733
9399
8162
9162
9210
9830
9093
9351
8808
9108
9278
9121
9141
9467
9537
9780
8470
8748
9173
9198
9374
8720
9519
9157
9218
9227
8923
9249
1745
7611
8795
8800
9270
8991
8720
9207
8875
7908
8954
7625
8592
8586
8233
7325
4535
8624
8513
7336
3140
8680
8925
8577
8699
8624
7983
8386
7951
8716
8356
8624
8393
8405
8667
6507
7619
8096
8047
8694
7390
7369
8349
7674
8135
8420
7677
8361
8050
8151
8156
7697
8120
7799
7702
7396
1745
7061
5372
8001
7771
7377
7861
8398
7881
7758
7545
8062
7728
7168
6522
6833
7505
8074
6800
7523
7147
7093
7529
7074
7444
7830
7566
7473
6488
6785
7201
7120
7171
7231
7262
6623
5951
6852
7306
6857
6869
7234
7180
7253
7322
5972
6569
6956
6930
6950
5093
6957
5692
6623
6479
6763
6955
6488
5380
5969
6329
6660
6387
5704
6302
5729
6463
6125
6123
6388
6207
6152
5397
6408
4256
5110
5752
5922
5743
5801
5916
1745
4840
5831
3140
5293
5554
5111
5601
5197
5575
5604
5645
5521
5299
5258
4814
71
4900
5046
4941
5372
4581
5013
5350
5320
4837
5356
5346
4627
4742
4362
4695
4667
4459
4813
4021
5022
4748
4062
4463
3716
4336
4006
4792
4811
4534
4051
4415
4737
4346
4481
4667
3711
3722
4411
4037
4510
4075
4163
3779
3847
3942
3912
3458
4199
3917
71
3453
4215
3485
3468
3197
3934
3191
3520
3198
3685
3958
3839
2875
3909
3686
2885
3371
2899
3240
3347
3412
3415
2883
3402
3371
3247
3406
3412
3069
2890
3385
2599
2961
3036
3115
2342
3022
2793
2717
2652
2573
2637
2786
2408
2582
2536
2424
2561
2742
2465
2519
2557
2297
2177
2063
2123
2299
2237
1960
2206
2007
1908
1888
2004
1883
1745
1733
1683
1573
1561
1724
1606
1683
1633
1622
1279
1639
1204
1622
1226
1405
1649
1338
1334
1172
1179
1002
904
1029
1095
716
867
1090
785
864
731
629
659
722
603
618
594
71
327
328
323
438
336
402
294
517
420
31
167
147
249
16
)


// ************************************************************************* //
