/*--------------------------------*- C++ -*----------------------------------*\
  =========                 |
  \\      /  F ield         | OpenFOAM: The Open Source CFD Toolbox
   \\    /   O peration     | Website:  https://openfoam.org
    \\  /    A nd           | Version:  7
     \\/     M anipulation  |
\*---------------------------------------------------------------------------*/
FoamFile
{
    version     2.0;
    format      ascii;
    class       vectorField;
    location    "0.7/lagrangian/reactingCloud1";
    object      coordinates;
}
// * * * * * * * * * * * * * * * * * * * * * * * * * * * * * * * * * * * * * //


2581
(
(-1.04997 0.389285 3.3348e-10)
(-1.06391 0.350782 2.85681e-10)
(-1.07818 0.35054 -3.76471e-11)
(-1.10417 0.15202 -1.58825e-11)
(-1.11809 0.227794 -4.1454e-10)
(-1.13683 0.0888465 -1.41855e-10)
(-1.14577 0.384813 6.34782e-06)
(-1.16283 0.163418 -1.72134e-10)
(-1.17249 0.313094 -7.39696e-11)
(-1.1847 0.362674 -6.94088e-11)
(-1.2135 0.0281053 -1.30735e-14)
(-1.22333 0.246338 -1.30252e-10)
(-1.2359 0.307541 -2.38271e-11)
(-1.25493 0.193203 -3.12951e-10)
(-1.26897 0.308983 -9.33442e-10)
(-1.28267 0.330007 -1.05534e-09)
(-1.30107 0.345606 2.0925e-10)
(-1.31653 0.368525 3.46772e-10)
(-1.33643 0.125208 -3.32391e-11)
(-1.34905 0.265539 5.6364e-11)
(-1.3686 0.154864 -9.10072e-11)
(-1.38307 0.166551 -5.02275e-11)
(-1.39932 0.287688 7.77375e-12)
(-1.41481 0.278776 -3.49317e-10)
(-1.43101 0.209362 -1.33461e-10)
(-1.4478 0.359317 -3.028e-11)
(-1.46523 0.0821275 1.43708e-12)
(-1.48039 0.255177 2.7943e-12)
(-1.4959 0.319432 -1.06573e-11)
(-1.51901 0.38205 5.8644e-06)
(-1.51129 0.203738 -1.17256e-12)
(-1.52904 0.239416 -1.20714e-11)
(-1.54403 0.295874 -1.42115e-11)
(-1.56011 0.279513 -7.63053e-12)
(-1.57635 0.317583 1.10164e-11)
(-1.59176 0.365701 6.88081e-12)
(-1.61025 0.341301 9.19256e-13)
(-1.62318 0.219809 4.76467e-12)
(-1.62657 0.265469 1.85144e-11)
(-1.64184 0.0528772 1.99127e-13)
(-1.6572 0.156949 4.07559e-12)
(-1.67416 0.371995 1.44119e-12)
(-0.970572 0.447179 -1.09389e-06)
(-0.761299 0.479995 -1.03743e-07)
(-0.390193 0.383933 -2.94037e-06)
(-0.505099 0.448581 7.37215e-07)
(-0.319579 0.306707 2.26044e-09)
(-0.395396 0.369103 9.6574e-07)
(-0.401894 0.381568 1.62638e-06)
(-0.381284 0.357608 5.88809e-10)
(-0.323511 0.115517 8.61274e-11)
(-0.365808 0.193522 8.09272e-10)
(-0.425444 0.359118 -1.91444e-11)
(-0.398934 0.228581 -2.87371e-12)
(-0.421751 0.271998 1.06561e-09)
(-0.48557 0.384679 -1.13817e-06)
(-0.402468 0.0502842 1.29267e-10)
(-0.469461 0.320571 1.46322e-09)
(-0.489256 0.396136 3.11823e-06)
(-0.49244 0.327623 -7.1615e-11)
(-0.527728 0.415042 8.09356e-07)
(-0.49673 0.20916 -1.70408e-11)
(-0.519524 0.287822 6.98154e-10)
(-0.54773 0.375298 -4.56707e-11)
(-0.542211 0.283344 8.32518e-10)
(-0.584525 0.34502 -2.45135e-11)
(-0.655984 0.435232 3.74173e-06)
(-0.818001 0.449493 2.2101e-06)
(-0.918421 0.449501 5.51493e-08)
(-0.634553 0.422959 -1.22314e-07)
(-0.573781 0.10678 -5.28444e-12)
(-0.600186 0.170062 -2.04004e-11)
(-0.630874 0.275464 -7.30657e-11)
(-0.611259 0.142193 -5.24279e-12)
(-0.644494 0.289513 -4.49727e-11)
(-0.660861 0.394896 -1.66363e-06)
(-0.674532 0.257158 -2.995e-11)
(-0.697452 0.384899 -1.00128e-10)
(-0.697532 0.241322 1.20023e-10)
(-0.716597 0.366553 -6.64915e-11)
(-0.722194 0.268337 6.02342e-10)
(-0.95985 0.439144 -2.74869e-07)
(-0.754557 0.433932 2.38314e-07)
(-0.75585 0.417546 1.61652e-06)
(-0.762265 0.388892 -7.47718e-12)
(-0.767056 0.299167 3.37528e-10)
(-0.799305 0.400096 2.63568e-10)
(-0.777252 0.162481 1.44227e-11)
(-0.804164 0.324184 1.09891e-10)
(-0.816257 0.366787 7.18511e-11)
(-0.825049 0.267593 3.85781e-10)
(-0.840671 0.393732 3.09551e-10)
(-0.848274 0.273037 5.87358e-11)
(-0.862059 0.268855 5.87382e-12)
(-0.873773 0.174352 -1.37364e-11)
(-0.888175 0.356332 3.01078e-12)
(-0.887781 0.165591 -1.38901e-11)
(-0.898953 0.246042 -1.24875e-12)
(-0.914388 0.401766 1.32251e-09)
(-0.936136 0.386712 1.4495e-09)
(-0.925339 0.0573173 -2.35385e-12)
(-0.949345 0.314386 3.25254e-10)
(-0.960045 0.395849 1.67366e-10)
(-0.970963 0.362304 5.91977e-10)
(-0.966917 0.157569 1.9668e-10)
(-0.986788 0.404531 -3.91966e-06)
(-1.00031 0.306256 -3.01268e-11)
(-1.01465 0.303531 6.11155e-11)
(-1.03034 0.266522 3.67966e-11)
(-1.03996 0.318738 4.47744e-10)
(0.0818849 0.221584 2.73057e-06)
(0.037076 0.162072 2.88734e-11)
(0.00210943 0.0843082 -4.07751e-11)
(-0.0590707 0.280637 -1.22674e-06)
(-0.0183574 0.0592363 -2.68816e-11)
(-0.0894898 0.298073 1.33243e-06)
(-0.0871979 0.271853 -2.35874e-06)
(-0.119855 0.192546 1.10862e-11)
(-0.141664 0.200316 4.13744e-10)
(-0.174268 0.347638 1.58441e-06)
(-0.171641 0.335533 1.2837e-06)
(-0.155873 0.19147 8.89715e-10)
(-0.195597 0.155937 8.61335e-12)
(-0.214539 0.236619 2.49295e-10)
(-0.226359 0.230789 1.38051e-09)
(-0.2355 0.304858 4.06035e-10)
(-0.257252 0.366228 -5.54536e-07)
(-0.273641 0.298126 -2.66251e-11)
(-0.291427 0.302638 7.0707e-11)
(0.595607 0.196066 2.07259e-08)
(0.503225 0.292842 -5.27992e-06)
(0.594579 0.173843 4.67187e-07)
(0.564848 0.126289 -4.39184e-12)
(0.517033 0.0907514 -1.03966e-10)
(0.489632 0.234919 7.47431e-09)
(0.483654 0.0664646 -3.13125e-11)
(0.469964 0.168231 1.34547e-08)
(0.343507 0.146998 -3.9882e-10)
(0.284483 0.166323 -3.65022e-07)
(0.277419 0.143701 5.74234e-13)
(0.258338 0.120586 -3.32272e-10)
(0.229616 0.226074 -3.0917e-06)
(0.226929 0.118144 -4.81906e-11)
(1.21023 0.263631 -8.27109e-06)
(1.1282 0.0225324 1.41358e-11)
(1.1402 0.168943 -3.2929e-07)
(1.08459 0.261058 2.5891e-08)
(0.988026 0.21126 6.42249e-08)
(0.94994 0.214445 -5.6736e-06)
(0.838347 0.183329 7.01628e-07)
(0.812483 0.229259 1.16604e-07)
(0.753615 0.172599 -6.68104e-07)
(0.738953 0.24522 -3.89395e-07)
(0.699996 0.175369 -2.09806e-07)
(0.697026 0.24545 -4.34357e-06)
(0.635424 0.206437 -2.64999e-06)
(0.609229 0.0807363 -1.69256e-11)
(2.11876 0.172656 7.5766e-08)
(2.02979 0.253631 1.45966e-06)
(2.05641 0.0809868 -8.34554e-13)
(2.05591 0.232893 1.43598e-07)
(1.92048 0.330343 1.06723e-05)
(2.03765 0.218654 -2.12019e-06)
(2.02563 0.232347 -4.123e-07)
(1.88668 0.286879 3.56987e-06)
(1.87714 0.0765976 1.20097e-12)
(1.75853 0.340304 9.19146e-06)
(1.85577 0.170214 2.88172e-07)
(1.86893 0.104319 8.11785e-07)
(1.85916 0.170913 -1.16303e-06)
(1.83835 0.230321 -6.19334e-08)
(1.828 0.116628 -1.13637e-05)
(1.60882 0.308942 -1.48958e-06)
(1.69076 0.138508 1.1299e-11)
(1.60166 0.230642 -8.09118e-07)
(1.49589 0.143702 4.16055e-11)
(1.48891 0.20891 2.67711e-06)
(1.42369 0.272424 2.12301e-06)
(1.36771 0.164504 5.5324e-07)
(1.34712 0.179645 1.25529e-06)
(1.28084 0.132 -1.89458e-12)
(1.26569 0.101843 -7.87616e-14)
(3.06808 -2.09729e-33 1.83028e-35)
(2.54268 -2.14182e-33 1.86914e-35)
(3.32553 -2.07547e-33 1.81124e-35)
(3.33305 -2.07483e-33 1.81068e-35)
(3.25094 -2.08179e-33 1.81675e-35)
(3.33148 0.222441 -1.97249e-06)
(3.16018 0.27685 7.80379e-07)
(3.30879 0.0582256 -1.44971e-15)
(3.29834 0.184388 -1.64327e-07)
(3.24968 0.169406 -5.11769e-07)
(3.2508 0.0854421 -6.18347e-13)
(3.22481 0.0547846 3.2552e-14)
(3.2104 0.181717 -8.36149e-07)
(2.97626 0.329884 -1.088e-06)
(3.12702 0.124201 -6.55143e-13)
(3.09468 0.228724 -1.95185e-06)
(2.97707 0.243 6.0114e-06)
(2.88314 0.255265 -1.80237e-06)
(2.99394 0.122318 -1.5466e-13)
(2.88 0.0214636 -1.0413e-14)
(2.8339 0.139874 -8.80286e-14)
(2.65404 0.243577 -7.45363e-07)
(2.60019 0.222538 -4.24062e-07)
(2.46839 0.304859 -3.01103e-07)
(2.52681 0.172065 -2.06991e-07)
(2.39943 0.237217 1.53419e-06)
(2.39186 0.214397 -8.17922e-08)
(2.30869 0.183284 3.06192e-06)
(2.25411 0.109711 8.59292e-13)
(2.20931 0.234447 -1.84255e-07)
(2.15859 0.0479342 1.67321e-13)
(3.70659 -2.04317e-33 1.78305e-35)
(4.108 -2.00915e-33 1.75336e-35)
(4.5796 -1.96918e-33 1.71848e-35)
(5.118 -1.92355e-33 1.67866e-35)
(4.53212 -1.97321e-33 1.72199e-35)
(3.90826 -2.02608e-33 1.76814e-35)
(4.84001 -1.94711e-33 1.69922e-35)
(4.91452 -1.9408e-33 1.69371e-35)
(5.03774 0.344348 4.56322e-06)
(5.20921 0.23148 2.95266e-07)
(5.0186 0.264129 2.08624e-06)
(4.8625 0.28537 -4.61719e-06)
(5.03238 0.139068 -7.29695e-06)
(5.0094 0.180954 1.50063e-06)
(4.90927 0.151633 -8.31987e-07)
(4.81173 0.240967 -2.20995e-06)
(4.88014 0.203048 5.301e-07)
(4.88191 0.133493 -3.19421e-06)
(4.83474 0.174368 -1.77347e-06)
(4.8233 0.164967 1.29664e-06)
(4.75894 0.179955 -1.30108e-06)
(4.79926 0.0639321 -9.33646e-14)
(4.76197 0.0417291 1.5243e-14)
(4.69097 0.132591 -6.90252e-07)
(4.56782 0.129722 1.43889e-06)
(4.4681 0.176227 -9.08348e-07)
(4.41402 0.205929 1.11277e-06)
(4.40357 0.0970112 -4.05145e-15)
(4.27913 0.123229 -1.52086e-14)
(4.21661 0.136851 -4.00596e-07)
(4.14806 0.238507 9.99531e-06)
(4.12403 0.127302 6.90668e-06)
(4.10626 0.113519 7.41998e-13)
(4.01887 0.0287321 -2.21256e-14)
(3.98666 0.132804 -1.96192e-13)
(3.93337 0.24496 -7.76285e-07)
(3.94672 0.217394 -5.85888e-07)
(3.84612 0.309798 -8.48422e-07)
(3.81721 0.15796 -1.81056e-06)
(3.77367 0.175703 -5.04495e-06)
(3.77398 0.20943 -4.87226e-06)
(3.72011 0.483235 -1.52376e-06)
(3.59548 0.296742 -4.40563e-06)
(3.62211 0.21662 2.30128e-06)
(3.53828 0.219972 1.55821e-06)
(3.50758 0.191592 -1.52465e-06)
(3.4637 0.27697 -1.4308e-06)
(3.46555 0.19832 -5.79582e-07)
(3.45329 0.211673 -2.99073e-06)
(3.41119 0.168562 -2.5918e-06)
(3.399 0.242862 -3.78634e-07)
(6.60893 -1.79719e-33 1.56839e-35)
(5.72578 -1.87204e-33 1.63371e-35)
(7.02196 -1.76219e-33 1.53784e-35)
(7.51351 -1.72053e-33 1.50148e-35)
(6.21178 -1.83085e-33 1.59776e-35)
(5.8564 -1.86097e-33 1.62405e-35)
(5.93935 -1.85394e-33 1.61791e-35)
(6.6642 -1.79251e-33 1.5643e-35)
(5.48402 -1.89253e-33 1.65159e-35)
(6.24939 -1.82767e-33 1.59498e-35)
(7.4357 -1.72712e-33 1.50724e-35)
(7.45954 -1.7251e-33 1.50547e-35)
(6.86737 -1.77529e-33 1.54927e-35)
(5.95307 -1.85278e-33 1.6169e-35)
(5.6471 -1.87871e-33 1.63953e-35)
(6.9539 7.66933e-20 6.69293e-22)
(7.41181 -1.72915e-33 1.509e-35)
(5.65243 -1.87826e-33 1.63913e-35)
(6.53054 -1.80384e-33 1.57419e-35)
(6.04462 1.3859e-23 -1.20946e-25)
(5.44031 -1.89624e-33 1.65482e-35)
(6.87527 -1.77462e-33 1.54869e-35)
(7.36007 -1.73353e-33 1.51283e-35)
(6.029 -1.84634e-33 1.61128e-35)
(5.28782 -1.90916e-33 1.6661e-35)
(7.06788 -1.7583e-33 1.53444e-35)
(7.33683 -1.7355e-33 1.51455e-35)
(6.06637 -1.84318e-33 1.60852e-35)
(5.25512 -1.91193e-33 1.66852e-35)
(7.57794 0.233635 6.4242e-06)
(7.71514 0.127545 -8.34386e-09)
(7.46803 0.280944 -2.32609e-07)
(7.71613 0.133829 1.74348e-06)
(7.58233 0.00316945 4.78158e-07)
(7.43444 0.228827 -1.02306e-05)
(7.62311 0.112405 -2.8693e-06)
(7.27011 0.28422 2.63328e-06)
(7.48814 0.0113567 1.59051e-06)
(7.47868 0.0550706 -7.17075e-06)
(7.36883 0.0463066 3.59255e-07)
(7.32621 0.110922 -1.65184e-07)
(7.34818 0.133309 -4.14416e-07)
(7.26212 0.0949192 -1.71357e-07)
(7.22038 0.133088 1.40639e-07)
(7.17985 0.129999 7.44766e-07)
(7.09488 0.19942 -2.29111e-07)
(7.00449 0.219264 1.61403e-07)
(7.02275 0.177618 -1.82038e-06)
(6.88953 0.000860402 4.99167e-07)
(6.97813 0.102466 -4.48138e-07)
(6.89699 0.0350263 6.93151e-16)
(6.81448 0.233285 3.02618e-06)
(6.81396 0.0337356 -5.71584e-06)
(6.72142 0.243777 2.47843e-06)
(6.74591 0.121575 -1.68075e-06)
(6.61856 0.105176 -1.72209e-06)
(6.53017 0.048297 5.49796e-15)
(6.53925 0.142917 3.99541e-07)
(6.43506 0.21984 6.14424e-07)
(6.45859 0.148837 1.66103e-07)
(6.35901 0.2156 6.73732e-06)
(6.40449 0.0933848 8.6952e-13)
(6.23737 0.0885137 2.95912e-14)
(6.22136 0.114264 -3.70688e-06)
(6.09606 0.239421 -1.10766e-06)
(5.93474 0.492337 -3.19279e-06)
(6.00318 0.235464 2.67447e-06)
(6.06153 0.146169 -9.94944e-07)
(5.98718 0.201339 2.86115e-06)
(6.03248 0.146284 1.8505e-06)
(5.94985 0.251685 2.71381e-06)
(5.97285 0.190804 4.45559e-07)
(5.88425 0.240479 -1.01525e-06)
(5.90111 0.102998 2.6052e-13)
(5.76021 0.259454 -4.48645e-06)
(5.75121 0.0523313 3.00619e-14)
(5.69219 0.208926 1.1836e-06)
(5.58629 0.240532 -7.32506e-06)
(5.52501 0.102344 -7.32322e-13)
(5.50639 0.20826 -4.51001e-07)
(5.52095 0.140557 5.66527e-07)
(5.39273 0.204371 -5.5263e-06)
(5.32371 0.011286 -3.99337e-06)
(5.31869 0.251213 1.79749e-06)
(5.29389 0.225643 -1.04412e-06)
(5.21926 0.0727204 3.28183e-13)
(5.26153 0.131399 5.89442e-07)
(5.25753 0.133957 -1.70432e-06)
(5.25256 0.0863201 -1.03972e-15)
(9.02846 -1.59213e-33 1.38943e-35)
(8.92643 -1.60078e-33 1.39698e-35)
(10.5333 -1.46459e-33 1.27813e-35)
(10.391 -1.47665e-33 1.28866e-35)
(7.84586 -1.69236e-33 1.4769e-35)
(10.0942 -1.50181e-33 1.31061e-35)
(10.3002 -1.48435e-33 1.29537e-35)
(10.3911 -1.47664e-33 1.28865e-35)
(10.2246 -1.49076e-33 1.30097e-35)
(8.73815 -1.61674e-33 1.41091e-35)
(8.59074 -1.62923e-33 1.42181e-35)
(10.7984 -1.44213e-33 1.25853e-35)
(8.89498 -1.60345e-33 1.39931e-35)
(8.68788 -1.621e-33 1.41462e-35)
(9.76328 -1.52986e-33 1.33509e-35)
(9.50913 -1.5514e-33 1.35388e-35)
(10.3276 -1.48203e-33 1.29335e-35)
(8.22807 -1.65997e-33 1.44863e-35)
(9.65164 -1.53932e-33 1.34334e-35)
(9.48478 -1.55346e-33 1.35568e-35)
(10.8471 -1.438e-33 1.25492e-35)
(10.673 -1.45275e-33 1.2678e-35)
(10.7353 -1.44748e-33 1.2632e-35)
(9.73528 -1.53223e-33 1.33716e-35)
(9.25755 -1.57272e-33 1.37249e-35)
(8.28017 -1.65555e-33 1.44478e-35)
(8.78246 -1.61298e-33 1.40763e-35)
(10.8495 -1.4378e-33 1.25475e-35)
(9.25248 -1.57315e-33 1.37286e-35)
(10.7502 -1.44621e-33 1.26209e-35)
(8.19108 -1.6631e-33 1.45137e-35)
(10.2175 -1.49136e-33 1.30149e-35)
(8.84458 -1.60772e-33 1.40303e-35)
(10.8003 -1.44197e-33 1.25839e-35)
(9.59802 -1.54386e-33 1.34731e-35)
(9.79806 -1.52691e-33 1.33251e-35)
(8.67421 -1.62216e-33 1.41563e-35)
(8.07278 -1.67313e-33 1.46012e-35)
(9.41207 -1.55962e-33 1.36106e-35)
(10.6858 -1.45167e-33 1.26685e-35)
(8.07906 -1.6726e-33 1.45965e-35)
(10.5831 -1.46038e-33 1.27445e-35)
(10.7298 -1.44794e-33 1.2636e-35)
(10.1277 -1.49897e-33 1.30813e-35)
(9.51775 -1.55066e-33 1.35324e-35)
(10.231 -1.49022e-33 1.30049e-35)
(10.6454 -1.45509e-33 1.26984e-35)
(9.29509 -1.56954e-33 1.36971e-35)
(10.4424 -1.4723e-33 1.28486e-35)
(10.0603 -1.50469e-33 1.31312e-35)
(10.0742 -1.50351e-33 1.31209e-35)
(8.18505 -1.66361e-33 1.45181e-35)
(10.0005 -1.50975e-33 1.31754e-35)
(9.37415 -1.56284e-33 1.36387e-35)
(10.5603 -1.46231e-33 1.27614e-35)
(8.6503 -1.62418e-33 1.4174e-35)
(10.4177 -1.47439e-33 1.28668e-35)
(9.42554 -1.55848e-33 1.36006e-35)
(9.90128 -1.51816e-33 1.32488e-35)
(9.16136 -1.58087e-33 1.3796e-35)
(10.2999 -1.48438e-33 1.29539e-35)
(8.88349 -1.60442e-33 1.40016e-35)
(8.737 -1.61684e-33 1.41099e-35)
(10.8183 0.249347 -1.56313e-06)
(10.7341 0.220399 2.31266e-08)
(10.6379 0.282438 5.32893e-06)
(10.8208 0.0982983 -2.82213e-07)
(10.4776 0.200458 2.54378e-06)
(10.2886 0.375235 1.01497e-05)
(10.6252 0.0920349 -1.40323e-06)
(10.5855 0.0384716 2.97871e-06)
(10.509 0.0421415 4.36727e-07)
(10.571 0.106794 4.62845e-07)
(10.2994 0.175893 -3.42293e-06)
(10.2931 0.185446 3.70768e-06)
(10.4105 0.0625512 1.03752e-07)
(10.2493 0.176335 4.94829e-07)
(10.3598 0.101422 -1.14858e-07)
(10.3467 0.00230409 -5.18348e-07)
(10.285 0.116491 9.94464e-07)
(10.1766 0.132516 -3.96526e-06)
(10.086 0.0623435 -4.31538e-06)
(10.0778 0.0476239 1.13196e-06)
(9.61812 0.312727 4.17014e-06)
(9.78415 0.185549 6.51712e-08)
(9.88756 0.0870104 1.04036e-06)
(9.66995 0.200328 -1.81558e-06)
(9.52611 0.247351 1.95013e-06)
(9.59537 0.201647 6.28109e-06)
(9.41311 0.268857 -1.80542e-06)
(9.5345 0.13711 1.96645e-07)
(9.53535 0.0719007 2.70777e-06)
(9.51238 0.0535395 3.37231e-07)
(9.45651 0.146133 1.03046e-06)
(9.08807 0.404668 5.512e-07)
(9.10894 0.381804 5.90301e-07)
(9.39456 0.111894 4.32503e-07)
(9.11756 0.311583 -1.88748e-06)
(9.384 0.0619571 7.17075e-07)
(9.35109 0.0676006 -1.20044e-06)
(9.14956 0.223768 -5.82185e-06)
(9.2473 0.0965716 5.37984e-07)
(9.09714 0.255024 2.29631e-06)
(8.98553 0.211975 2.21747e-06)
(9.08095 0.110142 1.97109e-07)
(9.0429 0.11149 -1.20563e-06)
(8.88627 0.274618 9.40433e-07)
(8.89452 0.14223 -3.01045e-06)
(8.81234 0.204652 -1.43252e-08)
(8.79374 0.165445 8.99985e-07)
(8.65668 0.203035 -1.6002e-06)
(8.52353 0.326381 7.15543e-06)
(8.5927 0.0780385 1.65268e-07)
(8.54443 0.196626 -3.93392e-07)
(8.52707 0.0858376 5.42101e-20)
(8.47517 0.181355 -8.93063e-06)
(8.47445 0.0858547 -2.04166e-06)
(8.44247 0.164733 9.83886e-07)
(8.441 0.154134 -2.18647e-06)
(8.44625 0.0895577 6.063e-08)
(8.43115 0.0212641 -3.5829e-06)
(8.30785 0.142484 -2.20477e-06)
(8.28259 0.0694696 -3.73649e-07)
(8.24897 0.169761 4.55294e-07)
(8.23936 0.125571 -2.14125e-06)
(8.04567 0.473226 -1.20888e-06)
(8.04518 0.145696 4.12277e-07)
(8.00532 0.231055 1.61801e-06)
(7.99099 0.176711 -1.07339e-07)
(7.95748 0.239631 4.83896e-07)
(7.92337 0.161943 2.66279e-06)
(7.90071 0.0737252 7.90626e-14)
(7.8392 0.0290604 -2.48949e-06)
(7.8121 0.0772963 4.09051e-14)
(12.3643 -1.30941e-33 1.14271e-35)
(13.2322 -1.23586e-33 1.07852e-35)
(13.2514 -1.23423e-33 1.07709e-35)
(11.775 -1.35936e-33 1.18629e-35)
(13.0329 -1.25275e-33 1.09326e-35)
(13.6917 -1.19692e-33 1.04453e-35)
(13.4936 -1.2137e-33 1.05918e-35)
(11.6243 -1.37213e-33 1.19744e-35)
(13.5317 -1.21047e-33 1.05636e-35)
(12.1757 -1.3254e-33 1.15666e-35)
(12.4138 -1.30521e-33 1.13904e-35)
(11.6863 -1.36688e-33 1.19286e-35)
(12.9543 -1.25941e-33 1.09907e-35)
(10.9839 -1.42641e-33 1.24481e-35)
(13.4871 -1.21425e-33 1.05966e-35)
(14.0668 -1.16512e-33 1.01679e-35)
(11.4167 -1.38973e-33 1.2128e-35)
(14.0111 -1.16985e-33 1.02091e-35)
(12.2016 -1.3232e-33 1.15474e-35)
(13.0454 -1.25168e-33 1.09233e-35)
(13.5047 -1.21276e-33 1.05836e-35)
(12.3182 -1.31332e-33 1.14612e-35)
(13.4626 -1.21633e-33 1.06148e-35)
(12.5693 -1.29204e-33 1.12755e-35)
(13.5236 -1.21116e-33 1.05696e-35)
(12.2757 -1.31693e-33 1.14926e-35)
(13.5115 -1.21218e-33 1.05785e-35)
(13.7843 -1.18907e-33 1.03768e-35)
(11.4531 -1.38664e-33 1.21011e-35)
(12.7496 -1.27676e-33 1.11421e-35)
(13.4827 -1.21463e-33 1.05999e-35)
(11.9342 -1.34587e-33 1.17452e-35)
(13.0446 -1.25175e-33 1.09239e-35)
(13.7968 -1.188e-33 1.03676e-35)
(11.4661 -1.38554e-33 1.20914e-35)
(13.7613 -1.19101e-33 1.03938e-35)
(11.6135 -1.37305e-33 1.19824e-35)
(12.3699 -1.30894e-33 1.1423e-35)
(14.0412 -1.16729e-33 1.01868e-35)
(12.5354 -1.29491e-33 1.13005e-35)
(12.832 -1.26978e-33 1.10812e-35)
(13.8946 -1.17971e-33 1.02952e-35)
(11.6562 -1.36943e-33 1.19508e-35)
(12.0942 -1.33231e-33 1.16269e-35)
(13.4372 -1.21848e-33 1.06335e-35)
(11.7782 -1.35909e-33 1.18606e-35)
(11.8809 -1.35039e-33 1.17846e-35)
(11.7691 -1.35986e-33 1.18673e-35)
(11.6261 -1.37198e-33 1.19731e-35)
(12.7845 -1.2738e-33 1.11163e-35)
(12.0705 -1.33431e-33 1.16443e-35)
(13.7639 -1.19079e-33 1.03919e-35)
(12.0323 -1.33755e-33 1.16727e-35)
(11.473 -1.38495e-33 1.20863e-35)
(14.05 -1.16654e-33 1.01803e-35)
(11.016 -1.42369e-33 1.24243e-35)
(12.7116 -1.27998e-33 1.11702e-35)
(12.1069 -1.33123e-33 1.16175e-35)
(13.9761 -1.17281e-33 1.0235e-35)
(13.3024 -1.22991e-33 1.07332e-35)
(14.0107 -1.16988e-33 1.02094e-35)
(11.7738 -1.35946e-33 1.18638e-35)
(11.7649 -1.36022e-33 1.18704e-35)
(12.556 -1.29317e-33 1.12853e-35)
(13.208 -1.23791e-33 1.08031e-35)
(11.1085 -1.41585e-33 1.23559e-35)
(11.2361 -1.40503e-33 1.22615e-35)
(11.1321 -1.41385e-33 1.23385e-35)
(12.0304 -1.33771e-33 1.1674e-35)
(11.9801 -1.34197e-33 1.17112e-35)
(12.5305 -1.29532e-33 1.13041e-35)
(13.9009 -1.17918e-33 1.02905e-35)
(11.9665 -1.34312e-33 1.17213e-35)
(11.6524 -1.36975e-33 1.19536e-35)
(12.3036 -1.31456e-33 1.1472e-35)
(12.7964 -1.27279e-33 1.11075e-35)
(11.9828 -1.34174e-33 1.17092e-35)
(12.4335 -1.30355e-33 1.13759e-35)
(12.125 -1.3297e-33 1.16041e-35)
(12.8626 -1.26718e-33 1.10585e-35)
(12.7251 -1.27883e-33 1.11602e-35)
(11.9368 -1.34565e-33 1.17433e-35)
(14.0882 -1.16331e-33 1.0152e-35)
(12.6718 -1.28335e-33 1.11996e-35)
(11.7988 -1.35734e-33 1.18453e-35)
(11.5004 -1.38263e-33 1.2066e-35)
(13.1795 -1.24032e-33 1.08241e-35)
(13.1445 -1.24329e-33 1.085e-35)
(12.106 -1.3313e-33 1.16181e-35)
(12.6631 -1.28409e-33 1.12061e-35)
(12.2708 -1.31734e-33 1.14963e-35)
(13.4298 -1.21911e-33 1.0639e-35)
(12.4492 -1.30222e-33 1.13643e-35)
(11.757 -1.36088e-33 1.18762e-35)
(13.52 -1.21147e-33 1.05723e-35)
(11.3133 -1.39849e-33 1.22044e-35)
(12.7883 -1.27348e-33 1.11134e-35)
(12.7638 -1.27556e-33 1.11316e-35)
(12.283 -1.3163e-33 1.14872e-35)
(12.6698 -1.28352e-33 1.12011e-35)
(12.2945 -1.31533e-33 1.14787e-35)
(12.1082 -1.33112e-33 1.16165e-35)
(11.3347 -1.39667e-33 1.21886e-35)
(14.0709 -1.16478e-33 1.01649e-35)
(11.3243 -1.39756e-33 1.21963e-35)
(13.0136 -1.25438e-33 1.09468e-35)
(14.0577 -1.16589e-33 1.01746e-35)
(12.6861 -1.28214e-33 1.1189e-35)
(13.3615 -1.2249e-33 1.06895e-35)
(12.9433 -1.26035e-33 1.09989e-35)
(13.3448 -1.22631e-33 1.07018e-35)
(11.7722 -1.35959e-33 1.1865e-35)
(11.7457 -1.36184e-33 1.18846e-35)
(13.5768 -1.20665e-33 1.05303e-35)
(12.2113 -1.32238e-33 1.15402e-35)
(11.6161 -1.37283e-33 1.19805e-35)
(13.7982 0.625323 4.08173e-06)
(13.7974 0.485836 9.02891e-07)
(13.5859 -1.20588e-33 1.05235e-35)
(13.8748 0.405708 -7.69544e-06)
(13.8901 0.334735 -1.25661e-06)
(14.056 0.286438 3.99135e-07)
(13.7371 0.381495 -5.36584e-06)
(13.9962 0.195453 -1.05307e-06)
(13.4983 0.378933 2.12009e-06)
(13.684 0.246308 -4.06862e-08)
(14.0092 0.149584 2.00552e-06)
(13.9428 0.118571 -1.94749e-06)
(13.7747 0.162562 -3.62342e-06)
(13.9921 0.0672437 -2.15142e-07)
(13.3796 0.278615 -1.33088e-06)
(13.4312 0.251102 7.26918e-07)
(13.308 0.34132 3.18842e-06)
(13.7775 0.0890509 -8.77644e-07)
(13.6096 0.161166 3.15129e-07)
(13.7312 0.0501017 -7.7783e-07)
(13.6193 0.105591 3.64821e-06)
(13.2557 0.368732 -4.00365e-07)
(13.5875 0.135444 1.71556e-06)
(13.5814 0.104945 -2.66852e-06)
(13.5244 0.00528447 -2.32447e-06)
(13.4124 0.0923658 7.90698e-07)
(13.2063 0.215843 -1.59006e-06)
(12.9718 0.302512 2.5205e-06)
(13.3512 0.107104 7.19181e-07)
(13.2385 0.162694 2.96714e-06)
(13.3711 0.0346547 2.45555e-07)
(13.3114 0.0576735 -5.01355e-07)
(13.1227 0.143693 1.21406e-06)
(12.8224 0.302214 -2.39806e-06)
(12.978 0.166437 -2.23218e-06)
(12.7242 0.29125 -1.62008e-07)
(12.8678 0.185454 -1.51017e-07)
(12.977 0.107318 -1.18597e-06)
(12.9569 0.0304292 -4.3861e-07)
(12.8255 0.178103 1.27329e-06)
(12.7507 0.15317 -7.68925e-08)
(12.5653 0.223936 7.94397e-07)
(12.6351 0.103813 -1.37432e-07)
(12.1404 0.489677 -1.18068e-07)
(12.6374 0.126907 -2.72648e-06)
(11.9792 -1.34197e-33 1.17125e-35)
(12.6128 0.0303271 1.38942e-06)
(12.3663 0.23157 6.09898e-07)
(12.2782 0.132196 2.4084e-06)
(12.1028 0.141031 -1.83433e-07)
(12.0845 0.195634 -1.21592e-05)
(12.0804 0.16507 8.64548e-08)
(11.8237 0.451476 -5.57468e-08)
(12.1001 0.0538353 -2.71321e-06)
(12.0582 0.0689746 -4.83614e-07)
(12.0114 0.142718 3.61311e-07)
(11.8094 0.22161 -4.24961e-07)
(11.8863 0.0386491 2.30746e-06)
(11.6153 0.208105 -6.26279e-07)
(11.6639 0.0379201 -1.05458e-06)
(11.6328 0.111758 3.06381e-06)
(11.442 0.525565 -4.38545e-06)
(11.6188 0.11509 -1.02779e-06)
(11.5049 0.186062 -1.30224e-06)
(11.5375 0.0015312 -5.2636e-07)
(11.5088 0.131238 4.38952e-07)
(11.4615 0.128107 -8.99586e-07)
(11.3373 0.406351 -2.08062e-07)
(11.363 0.112969 1.53217e-07)
(11.3183 0.152509 1.37644e-05)
(11.2616 0.125872 -2.11689e-06)
(11.2062 0.0164626 -2.16404e-07)
(11.2085 0.0128397 -8.1741e-07)
(11.1645 0.294324 3.09149e-06)
(11.1455 0.244624 -3.11081e-06)
(11.1294 0.161016 1.37406e-06)
(11.1239 0.0653008 -2.22677e-06)
(11.1055 0.137543 1.39461e-06)
(11.0634 0.389019 1.39501e-06)
(11.0882 0.0800878 -1.3594e-06)
(11.0583 0.180673 -4.46772e-07)
(11.0518 0.157135 -6.21475e-06)
(11.0414 0.0679372 -9.27672e-07)
(10.9649 0.0673311 1.96613e-07)
(10.9403 0.0442443 3.5081e-07)
(17.6408 -8.62218e-34 7.52446e-36)
(14.6595 -1.11489e-33 9.72953e-36)
(18.9685 -7.49694e-34 6.54248e-36)
(18.7358 -7.69413e-34 6.71457e-36)
(16.0041 -1.00093e-33 8.73499e-36)
(14.7692 -1.10559e-33 9.64836e-36)
(15.7374 -1.02354e-33 8.93228e-36)
(18.13 -8.20757e-34 7.16263e-36)
(17.6661 -8.60072e-34 7.50573e-36)
(16.1843 -9.85659e-34 8.60172e-36)
(14.7876 -1.10403e-33 9.63476e-36)
(16.7934 -9.34034e-34 8.15119e-36)
(18.6131 -7.79808e-34 6.80529e-36)
(14.8163 -1.1016e-33 9.61349e-36)
(16.2608 -9.79178e-34 8.54515e-36)
(18.7645 -7.66985e-34 6.69338e-36)
(15.4214 -1.05032e-33 9.16601e-36)
(16.3954 -9.6777e-34 8.4456e-36)
(14.1834 -1.15524e-33 1.00816e-35)
(15.22 -1.06739e-33 9.31497e-36)
(18.2459 -8.10934e-34 7.07692e-36)
(16.4212 -9.65579e-34 8.42648e-36)
(18.4994 -7.89447e-34 6.8894e-36)
(17.9364 -8.37161e-34 7.30579e-36)
(18.7328 -7.69668e-34 6.71679e-36)
(16.892 -9.25677e-34 8.07826e-36)
(16.0243 -9.9922e-34 8.72006e-36)
(14.763 -1.10612e-33 9.65295e-36)
(18.5062 -7.88872e-34 6.88438e-36)
(17.2356 -8.96561e-34 7.82417e-36)
(18.1205 -8.21561e-34 7.16966e-36)
(14.5384 -1.12515e-33 9.81904e-36)
(17.9809 -8.33392e-34 7.2729e-36)
(14.9326 -1.09175e-33 9.52752e-36)
(16.6027 -9.50196e-34 8.29223e-36)
(15.2213 -1.06727e-33 9.31394e-36)
(16.016 -9.9992e-34 8.72617e-36)
(18.0792 -8.25061e-34 7.20019e-36)
(14.3396 -1.142e-33 9.96607e-36)
(18.0524 -8.27331e-34 7.22001e-36)
(14.7818 -1.10453e-33 9.63906e-36)
(17.6275 -8.63348e-34 7.53432e-36)
(18.6088 -7.80174e-34 6.80848e-36)
(15.1373 -1.07439e-33 9.3761e-36)
(18.5966 -7.81212e-34 6.81754e-36)
(17.9264 -8.38011e-34 7.31321e-36)
(14.3406 -1.14192e-33 9.96536e-36)
(16.8028 -9.33242e-34 8.14428e-36)
(18.3658 -8.00773e-34 6.98824e-36)
(19.0452 -7.43193e-34 6.48575e-36)
(16.9042 -9.2465e-34 8.0693e-36)
(15.9896 -1.00216e-33 8.74572e-36)
(14.6568 -1.11512e-33 9.73147e-36)
(15.2598 -1.06402e-33 9.28552e-36)
(18.4795 -7.91134e-34 6.90412e-36)
(14.9519 -1.09011e-33 9.51324e-36)
(18.4207 -7.96118e-34 6.94761e-36)
(18.7282 -7.70055e-34 6.72017e-36)
(17.0587 -9.11552e-34 7.955e-36)
(17.0108 -9.15608e-34 7.99039e-36)
(16.7503 -9.37687e-34 8.18307e-36)
(14.8661 -1.09738e-33 9.57668e-36)
(15.311 -1.05967e-33 9.24761e-36)
(14.2317 -1.15115e-33 1.00459e-35)
(17.8526 -8.44268e-34 7.36782e-36)
(17.0744 -9.10217e-34 7.94335e-36)
(17.8845 -8.41561e-34 7.34419e-36)
(16.3716 -9.69784e-34 8.46318e-36)
(15.8699 -1.0123e-33 8.83423e-36)
(17.9901 -8.32613e-34 7.2661e-36)
(18.5956 -7.81298e-34 6.81828e-36)
(15.037 -1.08289e-33 9.45026e-36)
(14.2322 -1.15111e-33 1.00456e-35)
(17.3907 -8.83415e-34 7.70944e-36)
(14.7301 -1.10891e-33 9.6773e-36)
(15.0628 -1.08071e-33 9.43122e-36)
(18.1124 -8.2225e-34 7.17567e-36)
(17.3404 -8.87673e-34 7.74661e-36)
(17.5524 -8.69712e-34 7.58986e-36)
(15.758 -1.02179e-33 8.91703e-36)
(19.0036 -7.4672e-34 6.51653e-36)
(15.405 -1.0517e-33 9.17809e-36)
(17.9325 -8.37492e-34 7.30868e-36)
(18.5541 -7.84817e-34 6.84899e-36)
(17.4102 -8.81765e-34 7.69505e-36)
(17.3742 -8.84817e-34 7.72168e-36)
(16.9966 -9.16813e-34 8.00091e-36)
(14.5482 -1.12433e-33 9.81184e-36)
(18.4301 -7.95324e-34 6.94069e-36)
(16.9755 -9.186e-34 8.0165e-36)
(18.9185 -7.53932e-34 6.57947e-36)
(18.6712 -7.74886e-34 6.76232e-36)
(18.068 -8.26014e-34 7.20852e-36)
(15.0397 -1.08266e-33 9.44827e-36)
(16.1453 -9.88968e-34 8.63059e-36)
(18.367 -8.00667e-34 6.98731e-36)
(17.4164 -8.81232e-34 7.6904e-36)
(18.0918 -8.23991e-34 7.19086e-36)
(16.1944 -9.84799e-34 8.59421e-36)
(15.506 -1.04315e-33 9.10339e-36)
(15.2842 -1.06195e-33 9.26748e-36)
(16.8514 -9.29124e-34 8.10834e-36)
(17.4548 -8.77979e-34 7.66201e-36)
(16.2567 -9.79526e-34 8.54819e-36)
(18.8576 -7.59087e-34 6.62445e-36)
(16.2464 -9.80398e-34 8.5558e-36)
(14.4903 -1.12923e-33 9.85466e-36)
(15.1635 -1.07217e-33 9.3567e-36)
(15.5929 -1.03578e-33 9.03911e-36)
(17.5336 -8.71303e-34 7.60374e-36)
(16.6817 -9.43503e-34 8.23383e-36)
(14.2763 -1.14736e-33 1.00129e-35)
(18.8934 -7.56057e-34 6.59801e-36)
(17.8322 -8.45996e-34 7.38289e-36)
(14.6142 -1.11873e-33 9.76302e-36)
(18.8554 -7.59279e-34 6.62613e-36)
(16.7334 -9.39119e-34 8.19557e-36)
(16.0219 -9.99426e-34 8.72186e-36)
(17.6481 -8.616e-34 7.51907e-36)
(18.0754 -8.25386e-34 7.20304e-36)
(14.6759 -1.1135e-33 9.71735e-36)
(14.5331 -1.1256e-33 9.82294e-36)
(18.3534 -8.01821e-34 6.99738e-36)
(18.8413 -7.6047e-34 6.63652e-36)
(16.1801 -9.86013e-34 8.60481e-36)
(15.5281 -1.04127e-33 9.08703e-36)
(16.899 -9.25084e-34 8.07308e-36)
(17.1804 -9.01237e-34 7.86497e-36)
(17.3169 -8.89668e-34 7.76401e-36)
(18.8998 -7.55512e-34 6.59325e-36)
(14.4911 -1.12916e-33 9.85402e-36)
(18.3305 -8.0376e-34 7.01431e-36)
(18.851 -7.59653e-34 6.62939e-36)
(15.1171 -1.07611e-33 9.39104e-36)
(16.0976 -9.93004e-34 8.66582e-36)
(15.2988 -1.06071e-33 9.25669e-36)
(16.1486 -9.88688e-34 8.62815e-36)
(18.8844 -7.56816e-34 6.60464e-36)
(14.4429 -1.13325e-33 9.88968e-36)
(18.3097 -8.05528e-34 7.02973e-36)
(17.1035 -9.07757e-34 7.92187e-36)
(17.2961 -8.91432e-34 7.77941e-36)
(14.5121 -1.12738e-33 9.83853e-36)
(19.0164 -7.45634e-34 6.50705e-36)
(15.2498 -1.06486e-33 9.29287e-36)
(18.4355 -7.94864e-34 6.93667e-36)
(15.4772 -1.04559e-33 9.12469e-36)
(16.6128 -9.49344e-34 8.2848e-36)
(17.6913 -8.57941e-34 7.48714e-36)
(16.5213 -9.57096e-34 8.35245e-36)
(19.0397 -7.43653e-34 6.48976e-36)
(17.991 -8.32538e-34 7.26545e-36)
(18.5001 -7.89393e-34 6.88893e-36)
(15.8118 -1.01723e-33 8.87721e-36)
(14.663 -1.11459e-33 9.72689e-36)
(18.5503 -7.85132e-34 6.85174e-36)
(17.8067 -8.48156e-34 7.40174e-36)
(17.472 -8.76526e-34 7.64932e-36)
(18.6871 -7.73543e-34 6.75061e-36)
(16.8768 -9.26965e-34 8.0895e-36)
(18.4269 -7.95594e-34 6.94304e-36)
(17.0023 -9.16335e-34 7.99673e-36)
(17.8314 -8.4606e-34 7.38346e-36)
(15.3321 -1.05788e-33 9.23202e-36)
(16.6865 -9.43099e-34 8.2303e-36)
(17.3331 -8.88294e-34 7.75202e-36)
(18.374 -8.0008e-34 6.98219e-36)
(17.4185 -8.81059e-34 7.68888e-36)
(17.3816 -8.84187e-34 7.71619e-36)
(16.5398 -9.55534e-34 8.33882e-36)
(15.288 -1.06162e-33 9.26465e-36)
(15.8281 -1.01585e-33 8.86518e-36)
(16.7961 -9.33807e-34 8.14921e-36)
(17.7277 -8.54851e-34 7.46017e-36)
(18.0495 -8.27575e-34 7.22214e-36)
(15.7002 -1.02669e-33 8.95977e-36)
(14.0983 -1.16246e-33 1.01446e-35)
(17.0679 -9.10773e-34 7.94819e-36)
(17.1929 -9.00181e-34 7.85576e-36)
(16.8086 -9.32748e-34 8.13997e-36)
(16.3839 -9.68742e-34 8.45408e-36)
(16.0982 -9.92958e-34 8.66541e-36)
(17.3286 -8.8868e-34 7.75539e-36)
(16.1139 -9.91622e-34 8.65375e-36)
(14.6322 -1.1172e-33 9.74968e-36)
(17.9818 -8.33314e-34 7.27222e-36)
(17.5304 -8.71574e-34 7.60611e-36)
(16.1238 -9.90789e-34 8.64648e-36)
(18.123 -8.21346e-34 7.16778e-36)
(15.208 -1.0684e-33 9.32377e-36)
(15.9999 -1.00129e-33 8.73809e-36)
(17.3644 -8.85642e-34 7.72888e-36)
(14.8024 -1.10278e-33 9.62379e-36)
(18.4207 -7.96121e-34 6.94764e-36)
(14.2553 -1.14915e-33 1.00285e-35)
(16.0419 -9.97728e-34 8.70704e-36)