/*--------------------------------*- C++ -*----------------------------------*\
  =========                 |
  \\      /  F ield         | OpenFOAM: The Open Source CFD Toolbox
   \\    /   O peration     | Website:  https://openfoam.org
    \\  /    A nd           | Version:  7
     \\/     M anipulation  |
\*---------------------------------------------------------------------------*/
FoamFile
{
    version     2.0;
    format      ascii;
    class       labelField;
    location    "0.7/lagrangian/reactingCloud1";
    object      origId;
}
// * * * * * * * * * * * * * * * * * * * * * * * * * * * * * * * * * * * * * //


2581
(
3950
3951
3952
3953
3954
3955
3956
3957
3958
3959
3960
3961
3962
3963
3964
3965
3966
3967
3968
3969
3970
3971
3972
3973
3974
3975
3976
3977
3978
3979
3980
3981
3982
3983
3984
3985
3986
3987
3988
3989
3990
3991
3414
3775
3875
3885
3886
3887
3888
3889
3890
3892
3893
3894
3895
3897
3896
3898
3899
3900
3901
3902
3903
3904
3905
3908
3907
3906
3891
3910
3909
3911
3913
3912
3914
3915
3917
3918
3919
3920
3921
3916
3922
3923
3924
3925
3927
3926
3928
3929
3930
3931
3932
3933
3934
3936
3935
3937
3938
3940
3939
3941
3942
3944
3943
3945
3946
3947
3948
3949
3866
3870
3873
3869
3874
3867
3871
3876
3877
3860
3872
3878
3881
3880
3882
3879
3868
3883
3884
3851
3848
3853
3856
3858
3852
3859
3857
3861
3862
3863
3864
3854
3865
3829
3844
3841
3833
3835
3842
3847
3845
3849
3843
3850
3846
3838
3855
3819
3806
3823
3816
3815
3820
3817
3812
3827
3802
3824
3826
3825
3822
3803
3809
3830
3828
3834
3832
3831
3836
3837
3839
3840
1220
2549
2868
3128
3472
3783
3733
3795
3792
3793
3796
3797
3794
3786
3798
3791
3789
3758
3801
3805
3804
3799
3808
3800
3810
3807
3811
3814
3818
3813
3821
680
1057
2268
2282
2457
2646
2779
2997
3724
3741
3745
3744
3725
3751
3755
3753
3752
3756
3754
3757
3747
3759
3761
3760
3764
3762
3767
3770
3772
3773
3768
3689
3776
3779
3778
3771
3774
3766
3781
3777
3780
3738
3769
3784
3763
3782
3765
3787
3790
3788
3785
22
144
183
178
242
288
450
502
628
646
653
743
987
1046
1185
1484
1656
1720
1662
1830
1876
1981
2211
2381
2718
2757
2925
3034
2186
3688
3693
3672
3694
2834
3687
3691
3665
3599
3695
3697
3700
3701
3704
3698
3705
3702
3696
3707
3681
3710
3713
3706
3709
3699
3715
3711
3721
3717
3716
3720
3712
3723
3727
3719
3718
3708
3703
3728
3726
3731
3722
3729
3714
3734
3730
3739
3735
3732
3743
3737
3742
3740
2347
3487
3736
3750
3748
3746
3749
9
87
126
168
239
293
309
370
468
476
686
655
765
808
777
871
913
1056
1144
1205
1180
1259
1264
1458
1453
1440
1497
1550
1695
1729
1798
1831
1969
1988
2080
2082
1829
2131
2134
2192
2210
2223
2321
2460
2447
2596
2613
2601
2647
2662
2706
2712
2527
2836
2930
3056
3154
3282
3329
3364
3379
3504
3589
3598
3593
3608
3622
3614
3613
3631
3630
3635
3629
3625
3626
3636
3627
3637
3548
3634
3633
3640
3644
3632
3642
3647
3638
3645
3649
3643
3639
3655
3656
3654
3362
3578
3657
3628
3648
3659
3646
3661
3651
3658
3667
3662
3663
3652
3650
3670
3660
3653
3675
3664
3641
3673
3677
3674
3676
3678
3671
3680
3668
3679
3682
3586
3686
3669
3684
3666
3683
3690
3685
3692
10
21
27
29
33
148
170
278
283
301
324
384
373
394
438
456
509
528
558
523
617
480
634
691
712
734
820
834
841
864
933
959
967
1017
1023
1074
1078
1113
1137
1160
1150
1237
1240
1244
1256
1293
1061
1360
1399
1412
1457
1465
1607
1629
1680
1670
1685
1692
1728
1766
1750
1788
1785
1828
1843
1870
1873
1894
1917
1976
1967
1994
2037
2070
2068
2112
2147
2289
2322
2294
2429
2467
2479
2497
2532
2545
2525
2567
2633
2683
2673
2682
2693
2786
2911
2929
2951
2970
2974
3001
3004
3024
2977
3060
3074
3092
3104
3119
3139
3176
3208
3235
3348
3369
3368
3401
3465
3447
3523
3409
3529
3517
3519
3534
3508
3477
3550
3541
3537
3553
3512
3500
3528
3560
3558
3561
3555
3547
3542
3564
3567
3569
3552
3544
3568
3563
3554
3572
3573
3546
3565
3556
3566
3574
3580
3571
3575
3579
3581
3562
3585
3588
3587
3557
3592
3584
3590
3591
3503
3596
3600
3594
3577
3595
3583
3606
3605
3551
3604
3602
3612
3607
3611
3570
3615
3601
3617
3597
3576
3582
3609
3610
3616
3619
3559
3620
3618
3603
3623
3624
3621
18
24
2
28
43
17
40
77
74
70
66
53
85
73
96
80
146
149
130
165
179
166
173
176
223
254
244
243
261
274
297
287
307
317
319
357
368
399
397
418
424
457
475
497
492
507
531
541
575
581
613
624
673
689
685
678
336
725
703
739
749
748
758
776
783
787
742
822
849
860
889
891
912
905
920
931
908
941
927
968
977
978
1043
1028
1042
1044
1100
1083
1106
1132
1104
1151
1164
1174
1211
1215
1251
1253
1263
1273
1238
1330
1317
1335
1325
1363
1395
1413
1415
1419
1438
1451
1486
1516
1523
1590
1581
1599
1608
1628
1630
1653
1673
1722
1747
1787
1805
1817
1837
1848
1878
1941
1953
1940
2005
1853
2045
2055
2067
2065
2077
2132
2149
2137
2176
2183
2198
2229
2250
2317
2330
2350
2327
2375
2368
2387
2395
2403
2433
2478
2494
2488
2496
2539
2471
2572
2550
2584
2626
2628
2654
2663
2679
2684
2716
2778
2807
2828
2832
2838
2864
2860
2879
2866
2892
2910
2923
2956
2973
2963
2959
2989
2994
2996
3062
3046
3063
3088
3087
3145
3173
3178
1611
3198
3206
3215
3225
3240
3234
3283
3273
3300
3325
3322
3299
3389
3392
3347
3305
3374
3352
3403
3333
3399
3412
3388
3418
3420
3413
3421
3393
3387
3429
3342
3404
3408
3435
3397
3306
3441
3427
3428
3439
3438
3446
3440
3384
3433
3411
3415
3442
3431
3422
3423
3448
3360
3456
3454
3405
3386
3426
3450
3461
3437
3416
3425
3434
3466
3430
3445
3463
3464
3451
3449
3462
3471
3473
3436
3460
3419
3476
3444
3470
3457
3478
3483
3481
3474
3468
3482
3480
3467
3469
3493
3455
3492
3443
3479
3488
3485
3495
3395
3432
3490
3505
3499
3491
3486
3484
3497
3501
3459
3453
3511
3513
3494
3498
3475
3516
3510
3518
3452
3521
3502
3507
3506
3489
3458
3525
3527
3526
3496
3522
3514
3530
3536
3524
3531
3545
3535
3543
3515
3533
3532
3538
3549
3509
3539
3540
3520
3
8
12
13
4
32
23
11
38
57
61
67
44
68
62
91
31
108
128
90
117
115
125
112
192
195
143
197
215
221
211
252
257
292
310
331
315
335
374
348
392
400
430
437
449
461
434
479
505
494
524
522
521
538
565
572
546
596
640
656
660
702
735
746
767
784
740
819
795
828
831
886
846
900
882
887
922
907
949
975
965
942
970
998
1036
1026
1054
1060
1070
1055
1081
1067
1123
1129
1183
1166
1169
1177
1230
1245
1260
1254
1290
1285
1278
1306
1307
1316
1291
1328
1269
1340
1373
1386
1411
1442
1445
1488
1474
1520
1526
1551
1562
1539
1578
1556
1580
1555
1604
1614
1661
1585
1681
1706
1711
1712
1731
1677
1748
1727
1778
1770
1769
1764
1751
1825
1823
1867
1903
1901
1887
1915
1933
1908
1950
1957
1977
2001
2008
2012
1826
1995
2023
2028
2064
2052
2084
2100
2114
2124
2141
2144
2133
2155
2169
2151
2199
2212
2221
2238
2247
2157
2249
2271
2281
2275
2299
2307
2312
2310
2336
2352
2365
2373
2383
2378
2325
2379
2411
2431
2441
2450
2442
2374
2482
2502
2439
2547
2573
2608
2621
2607
2619
2587
2617
2661
2688
2703
2736
2697
2735
2758
2769
2768
2773
2794
2638
2780
2827
2781
2829
2806
2854
2848
2846
2916
2875
2981
3013
2971
2995
3000
3043
3044
3020
3047
3061
3022
3105
3134
3132
3124
3156
3186
3196
3204
3216
3214
3164
2988
3219
3161
3241
3246
3251
3228
3122
3189
3152
3167
3237
3232
3284
3269
3270
3261
832
3292
3267
3238
3209
3301
3290
3257
3226
3272
3193
3276
3271
3277
3285
3256
3223
3266
3310
3289
3294
3248
3297
3312
3254
3315
3296
3274
3324
3295
3304
3320
3293
3323
3319
3326
3303
3321
3291
3313
3314
3231
3317
3247
3332
3327
3344
3339
3331
3258
3343
3330
3316
3328
3244
3067
3345
3351
3334
3337
3350
3340
3309
3353
3298
3287
3355
3356
3359
3365
3357
3358
3318
3363
3346
3281
3302
3341
3307
3367
3262
3361
3375
3382
3371
3354
3349
3336
3308
3377
3221
3190
3335
3385
3373
3383
3400
3372
3378
3396
3278
3381
3402
3407
3311
3338
3391
3406
3370
3390
3380
3366
3417
3398
3376
3394
3410
3424
48
51
72
75
107
138
159
196
201
235
253
250
220
280
265
299
325
322
344
393
386
411
421
369
471
501
228
417
539
527
534
526
512
662
701
699
721
730
737
755
747
677
803
817
840
861
829
877
902
881
885
979
915
838
1013
999
1031
1082
1101
1105
1114
1122
1171
1192
1178
1181
1157
1217
1223
1187
1249
1286
1261
1276
1295
1324
1359
1353
1393
1418
1427
1487
1495
1481
1409
1485
1509
1467
1515
1508
1517
1480
1541
1561
1540
1567
1534
1592
1625
1577
1504
1622
1649
1620
1696
1708
1714
1621
1698
1738
1735
1781
1806
1836
1864
1869
1889
1863
1918
1923
1895
1929
1986
1982
1966
2027
2010
2060
2072
2091
2108
2154
2156
2174
2177
2213
2254
2257
2270
2185
2284
2323
2342
2390
2253
2397
2366
2427
2456
2455
2423
2511
2509
2452
2490
2556
2581
2570
2504
2564
2579
2591
2691
2702
2696
2734
2725
2751
2714
2761
2775
2620
2802
2719
2171
2784
2863
2861
2907
2882
2967
2845
2961
2979
2990
2993
2998
3010
3028
3015
2826
3103
3058
2873
3098
3086
3115
3118
3107
3080
3117
3051
3135
2920
3099
3136
3101
3078
3048
3096
3148
3147
3068
3150
3149
3153
3084
3144
3076
3111
3070
3129
3151
3133
3143
3090
3071
3165
3123
3166
3142
3160
3121
3146
3130
3127
3171
3162
3025
2852
3089
3052
3168
3019
3102
3175
3097
3069
3174
3183
3131
3181
3170
3157
3177
3116
3169
3180
3163
3141
3202
2982
3201
3210
3212
3185
3140
3085
3213
3207
3016
3191
3199
3192
3066
3187
3203
3114
3233
3055
3218
3158
3095
3205
3224
3236
3182
3243
3197
3239
3172
3194
3245
3014
3220
3200
3184
3222
3179
3252
3195
3249
3230
3255
3227
3217
3263
3242
3250
3091
3265
3259
3159
3260
3137
3268
3253
3211
3155
3188
3280
3229
3264
3279
3275
3286
3288
36
25
49
63
76
69
6
89
93
103
155
193
162
185
218
224
249
232
277
279
285
311
290
327
321
345
363
350
376
302
388
414
451
496
443
579
600
625
670
602
644
671
663
751
752
825
824
790
815
806
827
919
976
615
1079
961
1170
1186
1197
1219
1218
1140
1199
1329
1344
1345
1342
1347
1201
1401
1405
1435
1537
1574
1501
1571
1584
1443
1619
1596
1610
1659
1636
1732
1739
1666
1647
1660
1777
1796
1824
426
1890
1911
1900
1942
1980
2003
1975
1970
2030
2036
2056
2074
2071
2040
2054
2135
2047
2207
2184
2224
2258
2356
2388
2311
2422
2408
2430
2491
2476
2524
2420
2546
2566
2582
2609
2575
2630
2627
2681
2528
2711
2731
2749
2755
2795
2835
2817
2843
2856
2722
2782
2650
2820
2622
2690
2821
2813
2798
2733
2887
2825
2918
2853
2793
2900
2867
2872
2871
2862
2902
2849
2883
2919
2886
2741
2952
2857
2926
2870
2931
2851
2776
2774
2928
2933
2692
2954
2898
2831
2948
2756
2701
2945
2940
2932
2955
2884
2934
2965
2890
2569
2937
2939
2877
2950
2969
2943
2917
2972
2891
2632
2962
2935
2790
2958
2922
2899
2924
2904
2878
2901
2858
2797
2991
2885
2964
2788
2942
2913
2713
2987
2986
2704
3009
2949
2888
2975
2953
2727
2847
2927
2814
2936
2978
3012
2880
3002
3023
2897
3005
2516
2844
1932
3037
2915
3033
2947
3018
3008
2855
2983
2966
2944
3032
3006
3031
2999
2941
3038
3042
2796
2957
3049
3029
3053
2984
3007
3057
2992
3035
2914
2908
2980
3017
3040
2912
3036
3073
3041
2938
3081
3072
3021
2960
3082
3026
3065
2968
3083
3075
2042
2906
2976
3094
2921
3059
3093
2946
3077
3109
3113
3108
3110
3045
3011
2648
3079
3050
3027
3112
3120
3003
3064
3039
2985
3054
3030
3100
3106
3138
3126
3125
14
35
54
39
71
64
99
45
161
135
169
100
208
236
113
219
330
349
415
427
275
402
555
525
488
553
597
530
425
612
610
681
591
693
713
773
705
732
816
658
775
896
893
972
818
1001
918
990
943
1010
851
1016
1047
1058
1049
1035
1090
1145
1063
1195
1102
1117
1038
1209
1234
1355
1390
1375
1380
1383
1257
1374
1424
1369
1522
1477
1564
1510
1532
1587
1563
1675
1651
1723
1726
1687
1671
1756
1773
1776
1749
1847
1741
1812
1862
1888
1832
1794
1838
1802
1690
1688
1924
1956
1925
1990
1916
2069
2097
2076
2120
2087
2119
2140
2033
2129
2187
2138
2182
2209
2096
2161
2166
2316
2230
1973
2000
2241
2093
2245
2303
2315
2337
2314
2301
2180
2095
2380
2359
2391
2385
2348
2401
2276
2305
2163
2283
2273
2242
2260
2227
2407
2367
2372
2404
2344
2345
2292
2384
2371
2190
2353
2419
2386
2332
2214
2400
2234
2394
2424
2392
2357
2346
2354
2410
2300
2440
2333
2092
2370
2416
2389
2417
2428
2376
2413
2113
2425
2139
2421
2340
2358
2446
2313
2418
2463
2264
2472
2435
1902
2335
2469
2481
2409
2489
2465
2464
2483
2473
2477
2470
2485
1833
2094
2286
2444
2505
2448
2487
2415
2443
2512
2480
2475
2454
2507
1842
2518
2399
2535
2402
2498
2326
2517
2308
2396
2468
2432
2526
2200
2519
2531
2536
2438
2530
2543
2506
2437
2474
2436
2576
2495
2377
2261
2369
2553
2364
2523
2561
2548
2552
2453
2513
2393
2499
2541
2170
2503
2459
2341
2484
2434
2222
2449
2500
2361
2534
2585
2266
2562
2078
2522
2558
2602
2521
2571
2594
2597
2595
2603
2458
2130
2598
2557
2533
2618
2586
2515
2540
2611
2590
2614
2615
2508
2641
2462
2466
2493
2318
2451
2649
2551
2637
2660
2669
2405
2631
2674
2510
2568
2414
2665
2610
2606
2657
2655
2592
2542
2672
2652
2538
2599
2671
2588
2605
2514
2600
2635
2544
2492
2677
2580
2560
2501
2593
2537
2694
2707
1914
2398
2728
2680
2640
2717
2362
2577
2520
2723
1665
2715
2574
2624
2623
2666
2486
2636
2351
2445
2670
2720
2651
2676
2658
2612
2705
2339
2656
2625
2771
2687
2721
2634
2765
2730
2616
2695
2770
2563
2555
2644
2565
2709
2659
2529
2762
2753
2426
2750
2461
2664
2739
2738
2787
2412
2746
2760
2583
2764
2698
2726
2554
2818
2559
2754
2710
2748
2737
2686
2766
2645
2747
2406
2800
2675
2743
2772
2785
2699
2678
2803
2639
2809
2839
2819
2808
2740
2685
2643
2668
2804
2824
2815
2642
2792
2742
2830
2810
2840
2833
2823
2783
2842
2689
2811
2801
2732
2653
2759
2629
2708
2604
2700
2850
2805
2767
582
2874
2744
2895
2752
2822
2777
2889
2869
2667
2816
2763
2791
2589
2841
2859
2894
2881
2903
2876
2909
2905
2724
2893
2745
2812
2789
2578
2896
2729
2799
2865
2837
)


// ************************************************************************* //
