/*--------------------------------*- C++ -*----------------------------------*\
  =========                 |
  \\      /  F ield         | OpenFOAM: The Open Source CFD Toolbox
   \\    /   O peration     | Website:  https://openfoam.org
    \\  /    A nd           | Version:  7
     \\/     M anipulation  |
\*---------------------------------------------------------------------------*/
FoamFile
{
    version     2.0;
    format      ascii;
    class       Cloud<passiveParticle>;
    location    "0.7/lagrangian/reactingCloud1";
    object      positions;
}
// * * * * * * * * * * * * * * * * * * * * * * * * * * * * * * * * * * * * * //

2581
(
(0.702581 0.123722 0.0244695 0.149228) 2861 5612 2
(0.159326 0.387962 0.0308107 0.421902) 2799 5489 2
(0.720602 0.0155312 0.124032 0.139835) 2730 5351 2
(0.343686 0.328047 0.296629 0.0316387) 2626 5148 1
(0.0760758 0.460681 0.0758588 0.387385) 2545 4987 1
(0.115098 0.40269 0.0384976 0.443714) 2501 4898 2
(0.305042 0.0783304 0.267597 0.349031) 2382 4660 2
(0.353738 0.176433 0.146218 0.323612) 2352 4602 2
(0.644052 0.177172 0.0866624 0.0921142) 2258 4414 1
(0.646723 0.0467247 0.129537 0.177015) 2181 4261 2
(0.221883 0.385978 0.361337 0.0308015) 2103 4242 1
(0.417766 0.291046 0.0450732 0.246115) 1997 3897 1
(0.547685 0.224888 0.0903708 0.137056) 1918 3874 1
(0.475416 0.262086 0.188627 0.0738707) 1870 3645 1
(0.241691 0.253053 0.379366 0.125889) 1781 3470 2
(0.237993 0.256655 0.124202 0.381151) 1710 3327 2
(0.1367 0.429571 0.253668 0.180061) 1639 3185 1
(0.0694367 0.463352 0.216311 0.2509) 1499 3042 1
(0.0258246 0.487088 0.0423751 0.444713) 1474 2859 1
(0.237238 0.378703 0.132359 0.2517) 1381 2808 1
(0.387668 0.306166 0.191201 0.114965) 1332 2579 1
(0.491714 0.254143 0.192317 0.0618261) 1262 2440 1
(0.917321 0.0411116 0.0232427 0.0183246) 1173 2260 1
(0.0911938 0.39283 0.0615735 0.454403) 1107 2130 2
(0.471925 0.199915 0.0641229 0.264038) 1051 2019 2
(0.195655 0.0969679 0.402172 0.305204) 956 1832 2
(0.596172 0.1205 0.07711 0.206218) 937 1792 2
(0.346395 0.326614 0.016928 0.310062) 839 1597 1
(0.187439 0.0397684 0.406281 0.366512) 759 1441 2
(0.179819 0.40921 0.135548 0.275424) 612 1149 1
(0.446986 0.00830183 0.268205 0.276507) 712 1346 2
(0.085283 0.044137 0.457358 0.413221) 637 1199 2
(0.0862663 0.0757581 0.381109 0.456867) 560 1044 2
(0.16741 0.0464376 0.416295 0.369857) 494 915 2
(0.233852 0.382054 0.114187 0.269906) 420 765 1
(0.327571 0.0548529 0.280933 0.336643) 343 612 2
(0.115251 0.442305 0.0082874 0.434156) 280 487 1
(0.621095 0.188283 0.0912104 0.0994114) 233 394 1
(0.196636 0.398658 0.284237 0.120469) 225 378 1
(0.438394 0.0624712 0.214861 0.284274) 194 317 2
(0.587039 0.203852 0.147181 0.0619282) 108 146 1
(0.584465 0.208008 0.176246 0.0312809) 2 315127 1
(0.154185 0.17935 0.244311 0.422155) 3264 313933 1
(0.00775282 0.496279 0.474729 0.0212399) 4422 8711 1
(0.577357 0.212418 0.124301 0.0859238) 6126 12094 1
(0.190991 0.142922 0.405666 0.260421) 5576 11137 2
(0.056813 0.47372 0.39903 0.0704373) 6476 12789 1
(0.241418 0.133121 0.378743 0.246718) 6128 12100 2
(0.349441 0.325177 0.026917 0.298465) 6059 11961 1
(0.261691 0.0955398 0.274117 0.368653) 6198 12237 2
(0.878791 0.0607932 0.0354307 0.0249849) 6508 12853 1
(0.523537 0.234075 0.00538937 0.236999) 6292 12424 2
(0.498872 0.0760315 0.173854 0.251243) 5995 11833 2
(0.407402 0.293542 0.204009 0.0950466) 6151 12143 1
(0.350221 0.32598 0.208003 0.115795) 6009 11862 1
(0.29245 0.10633 0.353259 0.247961) 5721 11292 2
(0.0984221 0.154601 0.449979 0.296998) 6179 12202 2
(0.278322 0.251383 0.110559 0.359736) 5799 11445 2
(0.00416943 0.495642 0.281293 0.218896) 5652 11287 1
(0.221974 0.29532 0.392027 0.0906797) 5662 11307 2
(0.647372 0.168537 0.00817682 0.175914) 5514 10879 2
(0.443092 0.274406 0.0234387 0.259063) 5680 11343 1
(0.0903618 0.149067 0.306207 0.454364) 5601 11052 2
(0.504067 0.101917 0.145122 0.248893) 5452 10755 2
(0.175075 0.413009 0.180926 0.230989) 5466 10784 1
(0.207906 0.0762633 0.39681 0.319021) 5253 10495 2
(0.0589613 0.466806 0.399826 0.0744066) 4970 9798 1
(0.218257 0.0644729 0.391238 0.326033) 4153 8179 2
(0.160546 0.213173 0.204907 0.421374) 3606 7090 2
(0.642968 0.167232 0.17803 0.0117692) 5039 9938 2
(0.184679 0.398751 0.131464 0.285106) 5356 10700 1
(0.179531 0.404375 0.292965 0.123129) 5279 10412 1
(0.164557 0.299048 0.421555 0.114839) 5060 10112 2
(0.78405 0.105345 0.110464 0.000141042) 5215 10285 1
(0.0293835 0.15913 0.487249 0.324238) 4990 9973 2
(0.444951 0.27785 0.031183 0.246015) 4908 9676 1
(0.0454365 0.148128 0.479339 0.327096) 4859 9713 2
(0.458255 0.269676 0.129242 0.142828) 4774 9409 1
(0.68143 0.0546979 0.104727 0.159145) 4794 9450 2
(0.203857 0.396913 0.281034 0.118196) 4641 9280 1
(0.271803 0.364541 0.112304 0.251352) 4654 9174 1
(0.191052 0.403174 0.143454 0.262321) 3333 6551 1
(0.145068 0.425426 0.241054 0.188452) 4496 8857 1
(0.0089526 0.421617 0.499446 0.0699845) 4430 8861 2
(0.902856 0.0180405 0.0487421 0.0303612) 4434 8869 2
(0.254376 0.160369 0.372764 0.212492) 4446 8761 2
(0.190019 0.404805 0.20147 0.203706) 4228 8328 1
(0.665033 0.167482 0.161201 0.00628313) 4397 8664 1
(0.668883 0.0591443 0.10636 0.165613) 4239 8348 2
(0.696516 0.0436069 0.108079 0.151799) 4165 8201 2
(0.0360389 0.481657 0.289919 0.192386) 4110 8094 1
(0.514903 0.169455 0.0727401 0.242902) 4025 7923 2
(0.0848357 0.457522 0.433335 0.0243073) 3973 7822 1
(0.329451 0.333086 0.171163 0.166299) 3906 7821 1
(0.0293173 0.47666 0.0599688 0.434054) 3851 7712 1
(0.694911 0.152421 0.140037 0.0126312) 3757 7525 1
(0.258516 0.362897 0.00204515 0.376541) 3784 7579 1
(0.214246 0.0641387 0.393793 0.327822) 3704 7420 2
(0.298698 0.318915 0.352136 0.0302504) 3613 7107 2
(0.0559939 0.470512 0.283615 0.189879) 3479 6839 1
(0.0439688 0.311527 0.497486 0.147019) 3595 7204 2
(0.399589 0.299683 0.100423 0.200305) 3421 6724 1
(0.610347 0.193584 0.0470182 0.14905) 3340 6697 1
(0.0600689 0.469395 0.114729 0.355807) 3277 6438 1
(0.510908 0.243378 0.229253 0.0164604) 3376 6635 1
(0.419548 0.28234 0.291047 0.00706583) 3201 6289 2
(0.837191 0.0806568 0.0103555 0.071797) 3148 6316 1
(0.817138 0.0337644 0.0575103 0.0915873) 3080 6047 2
(0.465085 0.0412551 0.267643 0.226017) 3017 5924 2
(0.218164 0.30092 0.0886908 0.392225) 2941 5771 2
(0.499062 0.238311 0.253614 0.00901349) 21342 42748 2
(0.113685 0.140095 0.301116 0.445103) 20239 39989 2
(0.344229 0.0622632 0.265622 0.327885) 19141 37798 2
(0.379556 0.298899 0.308624 0.0129212) 7964 15745 2
(0.00946563 0.495581 0.0715575 0.423396) 8283 16377 1
(0.226935 0.300965 0.385389 0.0867112) 7758 15336 2
(0.275736 0.363609 0.2086 0.152056) 7764 15346 1
(0.796471 0.0378693 0.102263 0.0633968) 7577 15109 2
(0.457724 0.271846 0.126868 0.143562) 7440 14705 1
(0.245462 0.377966 0.186982 0.18959) 7209 14246 1
(0.0595545 0.470264 0.051405 0.418777) 7212 14250 1
(0.0870284 0.34733 0.454775 0.110866) 7374 14574 2
(0.186966 0.0924425 0.312481 0.408111) 7178 14182 2
(0.865188 0.0663948 0.00135099 0.0670661) 7028 13885 2
(0.183302 0.410092 0.0715487 0.335057) 6961 13754 1
(0.297236 0.351719 0.286601 0.0644437) 6880 13593 1
(0.117074 0.00898688 0.432494 0.441445) 6802 13435 2
(0.183556 0.239163 0.410522 0.166759) 6679 13326 2
(0.785083 0.107497 0.100141 0.00727864) 6611 13059 1
(0.0852134 0.455477 0.168135 0.291175) 33345 66154 1
(0.732175 0.0363713 0.133153 0.098301) 31370 62768 2
(0.0528456 0.471532 0.328053 0.147569) 33071 66164 1
(0.0916763 0.159344 0.457007 0.291973) 32523 65070 2
(0.532603 0.233699 0.117978 0.11572) 31694 62861 1
(0.688635 0.121513 0.156853 0.0329991) 31104 62237 2
(0.315135 0.0650859 0.277347 0.342432) 31142 61757 2
(0.446673 0.273963 0.204843 0.0745202) 30840 61153 1
(0.340625 0.31943 0.0102581 0.329687) 28055 55594 2
(0.292305 0.353974 0.102499 0.251222) 26655 52801 1
(0.00531763 0.0916232 0.404286 0.498773) 26660 52808 2
(0.137186 0.290916 0.140491 0.431407) 26108 51707 2
(0.326877 0.327543 0.339046 0.00653421) 25247 50544 2
(0.767845 0.116078 0.0966944 0.0193831) 25271 50038 1
(0.24156 0.381014 0.239131 0.138295) 42816 85063 1
(0.0628735 0.468563 0.15552 0.313043) 41753 82943 1
(0.496555 0.251558 0.0209101 0.230977) 42000 83433 1
(0.607912 0.166905 0.19605 0.0291332) 41142 81723 2
(0.364546 0.275551 0.317744 0.0421588) 39758 78960 2
(0.212197 0.303737 0.0916771 0.392389) 39200 77844 2
(0.111068 0.1019 0.342347 0.444685) 37533 74516 2
(0.404149 0.297896 0.150526 0.147429) 36964 73382 1
(0.271008 0.360653 0.316835 0.051504) 36140 71734 1
(0.46612 0.00708326 0.259947 0.266849) 35845 71146 2
(0.332433 0.333853 0.322575 0.0111402) 35023 69507 1
(0.363168 0.319427 0.182916 0.13449) 35008 69475 1
(0.210851 0.395312 0.181508 0.212329) 33900 67265 1
(0.0628071 0.468596 0.453801 0.0147949) 33370 66207 1
(0.752978 0.122663 0.0601781 0.0641803) 52880 105711 1
(0.710046 0.14465 0.0278284 0.117477) 52025 103448 1
(0.173704 0.413148 0.0262048 0.386943) 52342 104083 1
(0.0286541 0.485638 0.00925533 0.476453) 52308 104015 1
(0.407858 0.29405 0.272199 0.0258919) 50892 101742 1
(0.225697 0.387163 0.333964 0.0531769) 52033 104020 1
(0.215744 0.366246 0.0259833 0.392027) 52030 103458 2
(0.142898 0.427837 0.084984 0.344281) 50622 100649 1
(0.212646 0.133445 0.393677 0.260233) 50669 100743 2
(0.0158524 0.490526 0.138509 0.355112) 49216 97840 1
(0.0312354 0.447453 0.484479 0.036832) 50369 100144 2
(0.114026 0.241261 0.448684 0.19603) 50384 100728 2
(0.342033 0.329375 0.086472 0.24212) 50369 100144 1
(0.347677 0.265658 0.328751 0.0579145) 50077 100115 2
(0.0950506 0.397875 0.446882 0.0601929) 50102 99611 2
(0.00445265 0.0266034 0.471447 0.497497) 47828 95069 2
(0.131965 0.191976 0.242041 0.434018) 48703 96816 2
(0.51848 0.238748 0.0128404 0.229932) 47566 95102 1
(0.187869 0.305248 0.406066 0.100818) 46469 92358 2
(0.213201 0.390162 0.235773 0.160864) 46455 92327 1
(0.314288 0.167143 0.175268 0.343302) 45604 90629 2
(0.252402 0.371798 0.241886 0.133914) 44791 89562 1
(0.0846404 0.0794212 0.459074 0.376864) 44508 88997 2
(0.102359 0.429447 0.456225 0.011969) 43682 87348 2
(0.494584 0.252517 0.00878833 0.24411) 43689 86805 1
(0 0.89556 0.10444 4.53057e-150) 60730 533315 1
(0 8.04656e-151 0.830086 0.169914) 56545 371738 2
(0 0.578757 0.421243 5.71886e-150) 62404 534989 1
(0 0.400125 0.599875 4.81917e-152) 62404 534989 1
(0 0.36856 0.63144 3.81597e-150) 61846 534431 1
(0.641776 0.179617 0.116445 0.0621625) 62355 124071 1
(0.337146 0.24109 0.0901756 0.331588) 61227 121819 2
(0.00816291 0.019278 0.495919 0.476641) 62391 124145 2
(0.361103 0.3195 0.272878 0.046519) 62084 123532 1
(0.330995 0.334675 0.2337 0.10063) 61809 122981 1
(0.163982 0.418009 0.128096 0.289913) 61827 123019 1
(0.00384805 0.233679 0.507813 0.254661) 61555 123030 2
(0.709531 0.144739 0.0837202 0.0620093) 61527 122974 1
(0.49761 0.250818 0.1681 0.0834718) 59820 119566 1
(0.525098 0.237451 0.152102 0.0853495) 60982 121330 1
(0.16621 0.417385 0.274961 0.141444) 60679 120727 1
(0.455946 0.0431688 0.273851 0.227034) 59839 119604 2
(0.0221338 0.296137 0.488528 0.1932) 59278 117930 2
(0.416872 0.10878 0.180769 0.293578) 60145 119658 2
(0.428486 0.00961914 0.276138 0.285757) 59331 118034 2
(0.0166783 0.231177 0.49539 0.256755) 58746 117422 2
(0.0598862 0.37046 0.0963437 0.47331) 57607 114591 2
(0.598411 0.1953 0.00560247 0.200686) 57054 113488 2
(0.174086 0.413014 0.13716 0.27574) 55919 111224 1
(0.730509 0.0622663 0.0717298 0.135495) 56507 112395 2
(0.0399417 0.479659 0.42178 0.0586197) 55377 110140 1
(0.233969 0.210627 0.172411 0.382993) 55382 110150 2
(0.131008 0.43354 0.178549 0.256902) 54552 108493 1
(0.0652972 0.458058 0.464686 0.0119591) 54289 107967 1
(0.72057 0.13976 0.0938191 0.0458505) 53703 106800 1
(0.116359 0.431044 0.215511 0.237086) 53187 106324 1
(0 1.72089e-149 0.099469 0.900531) 64915 380108 2
(0 1.18558e-150 0.495249 0.504751) 67147 382340 2
(0 3.29256e-151 0.5398 0.4602) 69658 384851 2
(0 6.29766e-150 0.959779 0.0402206) 72169 387362 2
(0 0.334672 0.665328 1.60926e-150) 69379 541964 1
(0 0.595139 0.404861 5.16411e-150) 66031 538616 1
(0 0.793858 0.206142 1.31829e-150) 71053 543638 1
(0 0.49806 0.50194 8.65014e-151) 71332 543917 1
(0.212425 0.393029 0.284257 0.110288) 71814 142955 1
(0.604171 0.168379 0.0294625 0.197987) 72676 144676 2
(0.0184229 0.276015 0.214321 0.491241) 71832 142991 2
(0.531858 0.234994 0.135249 0.0978991) 70990 141310 1
(0.118516 0.443754 0.0156141 0.422116) 71859 143047 1
(0.25874 0.284394 0.0822011 0.374665) 71850 143026 2
(0.269972 0.276234 0.0890932 0.364701) 71299 141927 2
(0.365643 0.317702 0.107624 0.209031) 70721 140773 1
(0.186517 0.255316 0.409729 0.148438) 71008 141902 2
(0.124816 0.436894 0.31468 0.12361) 71024 141934 1
(0.113747 0.0572782 0.38643 0.442545) 71015 141360 2
(0.172635 0.412285 0.344817 0.0702635) 70738 141363 1
(0.380919 0.309957 0.276208 0.0329162) 70455 140244 1
(0.550927 0.214382 0.224536 0.0101542) 70760 140853 2
(0.338877 0.147396 0.33875 0.174976) 70486 140860 2
(0.77836 0.111114 0.0489333 0.0615921) 70187 139707 1
(0.055906 0.29567 0.175742 0.472682) 69630 138595 2
(0.714125 0.11655 0.142639 0.0266854) 69061 137461 2
(0.0156496 0.448198 0.0436672 0.492485) 68776 136890 2
(0.516968 0.239766 0.076998 0.166268) 68800 136937 1
(0.254635 0.366406 0.0274737 0.351485) 67957 135811 1
(0.696703 0.150376 0.0637948 0.0891257) 67675 135248 1
(0.534781 0.0288499 0.235023 0.201346) 67373 134091 2
(0.366115 0.247514 0.324519 0.061852) 67119 134138 2
(0.702395 0.109115 0.148802 0.0396876) 67122 133590 2
(0.618807 0.0997094 0.198905 0.0825778) 66583 133068 2
(0.0627645 0.46348 0.308281 0.165474) 66560 132465 1
(0.141678 0.427342 0.21103 0.21995) 65977 131858 1
(0.411751 0.291808 0.24198 0.0544604) 66262 131870 1
(0.196771 0.0902047 0.310913 0.402112) 65683 130714 2
(0.555297 0.205856 0.22169 0.0171571) 65438 130228 2
(0.481341 0.260985 0.0499636 0.207711) 65155 129663 1
(0.45342 0.274617 0.214982 0.0569819) 65148 129647 1
(0.264494 0.261098 0.106836 0.367572) 64808 128968 2
(0.547792 0.226958 0.144143 0.0811071) 64012 127381 1
(0.477794 0.140192 0.118838 0.263177) 64309 127971 2
(0.256672 0.229658 0.372071 0.141599) 63750 126858 2
(0.420996 0.289956 0.128911 0.160138) 63478 126313 1
(0.283483 0.358554 0.20321 0.154753) 63180 125718 1
(0.583612 0.208363 0.197481 0.0105444) 63197 125754 1
(0.54828 0.140643 0.225046 0.086031) 63194 125748 2
(0.7098 0.0832113 0.0627612 0.144227) 62925 125209 2
(0.308407 0.0861523 0.258936 0.346505) 62908 125174 2
(0 0.796447 0.203553 7.37977e-150) 78586 551171 1
(0 0.371827 0.628173 1.36056e-150) 74959 547544 1
(0 0.415544 0.584456 6.36247e-153) 79981 552566 1
(0 5.97019e-150 0.634477 0.365523) 81655 396848 2
(0 1.64477e-150 0.742165 0.257835) 76912 392105 2
(0 3.78629e-150 0.590133 0.409867) 75517 390710 2
(0 1.90979e-151 0.816921 0.183079) 75796 390989 2
(0 0.0588859 0.941114 4.08793e-150) 78586 551171 1
(0 0.106653 0.893347 9.95238e-150) 73843 546428 1
(0 1.09361e-149 0.272176 0.727824) 77191 392384 2
(0 4.60839e-150 0.700879 0.299121) 81376 396569 2
(0 0.0111481 0.988852 2.36877e-150) 81376 553961 1
(0 0.396177 0.603823 8.93034e-151) 79423 552008 1
(0 0.981049 0.018951 9.8874e-151) 76075 548660 1
(0 3.74425e-150 0.427613 0.572387) 74680 389873 2
(0 0.282524 0.717476 1.71287e-17) 79702 552287 1
(0 0.587696 0.412304 1.11497e-151) 81376 553961 1
(0 0.49071 0.50929 1.46331e-150) 74680 547265 1
(0 0.851011 0.148989 6.00162e-151) 78307 550892 1
(0 3.09528e-21 0.35159 0.64841) 76354 391547 2
(0 1.2966e-150 0.202467 0.797533) 73843 389036 2
(0 2.00381e-151 0.706207 0.293793) 79423 394616 2
(0 2.58355e-150 0.78513 0.21487) 81097 396290 2
(0 0.874044 0.125956 1.00994e-150) 76354 548939 1
(0 0.244223 0.755777 1.00102e-150) 73006 545591 1
(0 5.03543e-150 0.165827 0.834173) 80260 395453 2
(0 0.498521 0.501479 4.00013e-151) 81097 553682 1
(0 6.53086e-150 0.665911 0.334089) 76354 391547 2
(0 0.776672 0.223328 1.06132e-153) 73006 545591 1
(0.359418 0.22149 0.321872 0.0972203) 81882 163057 2
(0.0313471 0.470256 0.00567734 0.49272) 82464 164216 2
(0.180999 0.40825 0.163553 0.247199) 81593 162477 1
(0.0543858 0.470671 0.0835673 0.391376) 82463 164214 1
(0.876396 0.0149705 0.0407128 0.0679205) 81934 163159 2
(0.212112 0.396511 0.18305 0.208327) 81325 161945 1
(0.127878 0.0402095 0.435396 0.396516) 81909 163665 2
(0.631275 0.161436 0.186178 0.0211104) 80755 161361 2
(0.662108 0.136394 0.154608 0.0468904) 81653 162597 1
(0.435804 0.0786895 0.207776 0.27773) 81643 162577 2
(0.21615 0.23236 0.404003 0.147487) 81087 162024 2
(0.456249 0.143848 0.128112 0.271791) 81073 161440 2
(0.45577 0.272292 0.132131 0.139808) 81068 161430 1
(0.395565 0.302322 0.0856754 0.216438) 80797 160891 1
(0.142814 0.425115 0.205094 0.226977) 80789 160872 1
(0.0676047 0.465869 0.0679916 0.398535) 80510 160318 1
(0.926245 0.0369426 0.0317148 0.00509754) 80216 159729 1
(0.0590888 0.333033 0.137381 0.470498) 79933 159164 2
(0.664301 0.168432 0.0733631 0.0939039) 79942 159182 1
(0.218203 0.735103 0.0169595 0.0297344) 79423 158702 1
(0.0558163 0.470438 0.0875418 0.386204) 79959 159215 1
(0.0249465 0.477213 0.332826 0.165015) 79416 158688 1
(0.164062 0.0196764 0.418903 0.397359) 79092 158041 2
(0.177659 0.39665 0.0470832 0.378608) 79137 158131 1
(0.604578 0.142018 0.199613 0.0537906) 78811 157480 2
(0.042094 0.131496 0.345819 0.480592) 79117 157534 2
(0.6641 0.155639 0.00988627 0.170376) 78563 156428 2
(0.288146 0.352676 0.0715244 0.287654) 78297 155897 1
(0.162617 0.185149 0.233383 0.418851) 78276 155856 2
(0.197509 0.401085 0.349421 0.0519853) 77700 154708 1
(0.341969 0.0695204 0.258377 0.330133) 77995 155294 2
(0.303305 0.346552 0.303479 0.0466647) 77422 154153 1
(0.28913 0.284398 0.0710372 0.355435) 77729 154764 2
(0.207371 0.393102 0.128509 0.271019) 77172 153651 1
(0.244257 0.372794 0.0240825 0.358866) 76887 153639 1
(0.187984 0.378198 0.024509 0.409308) 76580 152469 2
(0.204342 0.3982 0.148833 0.248625) 75687 150687 1
(0.499433 0.248106 0.0901399 0.16232) 76023 151914 1
(0.712939 0.143916 0.0475704 0.0955742) 76322 151955 1
(0.0657955 0.466289 0.450244 0.0176718) 76031 151374 1
(0.352337 0.320788 0.153529 0.173346) 76322 151954 1
(0.0566262 0.182995 0.473941 0.286438) 75740 151349 2
(0.615286 0.191304 0.079203 0.114208) 76033 151377 1
(0.00946111 0.492856 0.286618 0.211064) 75743 150798 1
(0.00733559 0.249496 0.496332 0.246837) 75773 150861 2
(0.106912 0.0960955 0.351439 0.445554) 75181 149677 2
(0.02866 0.473246 0.298184 0.19991) 75227 149768 1
(0.23627 0.379195 0.220705 0.163831) 74913 149141 1
(0.560767 0.209431 0.0119209 0.217881) 74348 148014 2
(0.28695 0.356525 0.320772 0.0357527) 74100 147519 1
(0.488886 0.25309 0.243463 0.0145611) 74076 147470 1
(0.78004 0.0821999 0.110214 0.0275461) 74091 147503 2
(0.714152 0.0880207 0.0564408 0.141387) 73519 146359 2
(0.673768 0.152657 0.164954 0.00862142) 73283 145887 1
(0.21154 0.150078 0.394641 0.243741) 73229 145782 2
(0.290759 0.249383 0.356847 0.103011) 72956 145791 2
(0.478003 0.260999 0.135873 0.125126) 72711 144748 1
(0.655361 0.017109 0.154656 0.172875) 72977 145276 2
(0.164866 0.180152 0.238142 0.41684) 72977 145277 2
(0.363345 0.0955471 0.220266 0.320842) 72987 145296 2
(0 0.235829 0.764171 4.27067e-151) 86398 558983 1
(0 7.02438e-151 0.626131 0.373869) 86119 401312 2
(0 0.459876 0.540124 6.67177e-152) 91141 563726 1
(0 5.18389e-151 0.954453 0.0455472) 90583 405776 2
(0 1.14194e-149 0.527937 0.472063) 82771 397964 2
(0 0.352523 0.647477 2.13946e-153) 89746 562331 1
(0 0.0574197 0.94258 5.05353e-151) 90304 562889 1
(0 6.89987e-153 0.955778 0.0442218) 90583 405776 2
(0 0.899759 0.100241 4.02357e-151) 90304 562889 1
(0 0.47417 0.52583 1.95119e-150) 85561 558146 1
(0 0.118551 0.881449 3.00222e-151) 85003 557588 1
(0 0.508218 0.491782 5.95621e-151) 91978 564563 1
(0 6.38631e-150 0.275333 0.724667) 86119 401312 2
(0 8.0194e-151 0.965054 0.0349459) 85282 400475 2
(0 0.0415603 0.95844 3.21123e-151) 88630 561215 1
(0 3.6202e-150 0.12478 0.87522) 88072 403265 2
(0 1.1545e-150 0.247889 0.752111) 90583 405776 2
(0 1.14719e-149 0.835529 0.164471) 83887 399080 2
(0 8.31861e-150 0.713836 0.286164) 88351 403544 2
(0 3.3255e-150 0.853259 0.146741) 87793 402986 2
(0 4.5366e-150 0.0340073 0.965993) 92257 407450 2
(0 3.12557e-152 0.0958818 0.904118) 91699 406892 2
(0 0.211116 0.788884 9.01173e-150) 91699 564284 1
(0 0.353628 0.646372 1.22323e-150) 88630 561215 1
(0 0.680726 0.319274 4.76984e-152) 87235 559820 1
(0 1.34093e-151 0.41673 0.58327) 84166 399359 2
(0 0.97984 0.0201605 4.66489e-151) 85840 558425 1
(0 1.43129e-150 0.0604879 0.939512) 92257 407450 2
(0 1.41662e-150 0.262737 0.737263) 87235 402428 2
(0 0.0450951 0.954905 1.03712e-150) 91699 564284 1
(0 0.577157 0.422843 1.78913e-149) 83887 556472 1
(0 4.21838e-150 0.0210707 0.978929) 90304 405497 2
(0 0.286882 0.713118 3.96094e-150) 85840 558425 1
(0 0.487238 0.512762 1.14587e-150) 91978 564563 1
(0 0.884041 0.115959 7.0663e-150) 88351 560936 1
(0 0.653823 0.346177 9.71216e-151) 88909 561494 1
(0 0.187365 0.812635 1.85392e-151) 85282 557867 1
(0 0.897018 0.102982 4.55577e-152) 83608 556193 1
(0 0.957471 0.0425293 1.77111e-150) 87793 560378 1
(0 0.761553 0.238447 1.03884e-150) 91699 564284 1
(0 1.17164e-149 0.173064 0.826936) 83608 398801 2
(0 2.97165e-151 0.0940055 0.905995) 91420 406613 2
(0 0.271473 0.728527 2.1902e-150) 91699 564284 1
(0 4.70594e-150 0.0200318 0.979968) 90025 405218 2
(0 6.00436e-152 0.220932 0.779068) 88072 403265 2
(0 0.828754 0.171246 1.06707e-149) 90304 562889 1
(0 0.211824 0.788176 2.93891e-150) 91420 564005 1
(0 4.56629e-150 0.737988 0.262012) 87235 402428 2
(0 3.99211e-150 0.526805 0.473195) 90862 406055 2
(0 1.0477e-150 0.268922 0.731078) 89746 404939 2
(0 2.19108e-150 0.423824 0.576176) 89746 404939 2
(0 0.644499 0.355501 1.1224e-150) 83887 556472 1
(0 7.70549e-151 0.603111 0.396889) 89467 404660 2
(0 0.380393 0.619607 6.27045e-151) 87514 560099 1
(0 0.160172 0.839828 3.31286e-150) 91141 563726 1
(0 0.454169 0.545831 4.03978e-150) 85282 557867 1
(0 3.3452e-150 0.25232 0.74768) 90862 406055 2
(0 0.807261 0.192739 1.35172e-150) 87793 560378 1
(0 4.19785e-150 0.4969 0.5031) 89188 404381 2
(0 0.753486 0.246514 6.36081e-152) 86956 559541 1
(0 0.0605731 0.939427 2.20437e-151) 90304 562889 1
(0 0.852877 0.147123 1.89384e-150) 86119 558704 1
(0 0.486963 0.513037 1.5046e-115) 85561 558146 1
(0.572586 0.21384 0.188416 0.0251585) 91923 183657 1
(0.446735 0.276627 0.275691 0.00094797) 91650 182558 1
(0.159458 0.419189 0.205812 0.215542) 91357 181973 1
(0.0927098 0.453809 0.211901 0.24158) 91957 183169 1
(0.161137 0.417048 0.272435 0.149379) 90818 181451 1
(0.373295 0.311619 0.283585 0.0315006) 90221 180259 1
(0.874149 0.0635106 0.050996 0.0113447) 91400 182613 1
(0.241341 0.359015 0.28943 0.110214) 91412 182080 1
(0.538563 0.137898 0.084539 0.239) 91132 181521 2
(0.0804529 0.457263 0.35362 0.108664) 91118 182050 1
(0.131392 0.218022 0.435976 0.214611) 90265 180347 2
(0.272033 0.281038 0.368568 0.0783613) 90263 180343 2
(0.0602809 0.14135 0.328415 0.469954) 90849 180957 2
(0.750079 0.00613004 0.11859 0.125202) 90265 179790 2
(0.70186 0.149134 0.0418504 0.107156) 90561 180382 1
(0.751998 0.0132657 0.0842973 0.150439) 90583 405776 2
(0.0339489 0.482536 0.274217 0.209297) 90278 179819 1
(0.812353 0.0955149 0.0279288 0.0642035) 89996 179254 1
(0.154203 0.426843 0.367703 0.0512509) 89733 178729 1
(0.739016 0.0950627 0.0341124 0.131809) 89736 178735 2
(0.316808 0.181624 0.15921 0.342359) 88282 175832 2
(0.38223 0.248695 0.057137 0.311938) 88868 177001 2
(0.687747 0.0861431 0.0670158 0.159094) 89169 177602 2
(0.164132 0.416485 0.242564 0.176818) 88307 176438 1
(0.485463 0.0713998 0.257722 0.185415) 88017 175305 2
(0.0718153 0.0505104 0.465878 0.411796) 88306 175882 2
(0.0933312 0.0074786 0.452949 0.446241) 87733 174738 2
(0.759854 0.0277914 0.0922006 0.120154) 88042 175353 2
(0.11554 0.359423 0.444396 0.0806411) 88056 175383 2
(0.0861429 0.118012 0.338557 0.457288) 88061 175391 2
(0.728636 0.135282 0.0976482 0.0384332) 87761 174792 1
(0.691512 0.083298 0.154322 0.0708677) 86587 172450 2
(0.493683 0.25307 0.1619 0.0913471) 86592 172460 1
(0.0191187 0.490219 0.143251 0.347411) 87490 174251 1
(0.484094 0.25707 0.087149 0.171687) 86608 173046 1
(0.32898 0.334854 0.10608 0.230085) 87501 174273 1
(0.193853 0.265594 0.40205 0.138504) 87499 174271 2
(0.0469984 0.0913617 0.386629 0.475011) 86907 173087 2
(0.410041 0.28948 0.228193 0.0722853) 87214 173699 1
(0.0859673 0.456501 0.426839 0.0306931) 86621 172516 1
(0.570719 0.0563301 0.157107 0.215843) 86351 171976 2
(0.699355 0.14915 0.0535896 0.0979057) 86653 172579 1
(0.149601 0.425307 0.399605 0.0254868) 86374 172579 1
(0.356189 0.154727 0.165713 0.323371) 86058 171391 2
(0.470933 0.0346561 0.231081 0.26333) 86088 171452 2
(0.587975 0.0594547 0.146562 0.206008) 85795 170867 2
(0.099077 0.0964955 0.353655 0.450773) 85804 170885 2
(0.689286 0.155812 0.116568 0.0383334) 85237 169755 1
(0.226593 0.018362 0.367087 0.387958) 84931 169142 2
(0.193462 0.331509 0.413144 0.0618858) 84986 169808 2
(0.17164 0.279 0.135294 0.414066) 84960 169200 2
(0.339142 0.00159979 0.330429 0.328829) 84984 169250 2
(0.815602 0.0938904 0.000636949 0.0898709) 84684 169205 1
(0.34673 0.32801 0.0827799 0.24248) 84705 168693 1
(0.418899 0.0179266 0.272284 0.290891) 84688 168657 2
(0.421827 0.21256 0.0742233 0.291389) 84690 168660 2
(0.00372496 0.267665 0.498176 0.230434) 84704 168691 2
(0.202095 0.392767 0.153551 0.251587) 84720 168720 1
(0.356789 0.322487 0.0961158 0.224608) 84135 167553 1
(0.887429 0.0551572 0.0456614 0.011752) 84151 167584 1
(0.137329 0.430958 0.0170522 0.414661) 84129 167540 1
(0.0771397 0.00620836 0.460562 0.456089) 83859 167558 2
(0.402945 0.297905 0.136326 0.162825) 83224 166290 1
(0.413844 0.289065 0.0428094 0.254281) 83297 166436 1
(0.687771 0.155205 0.0532295 0.103795) 83278 165841 1
(0.364931 0.283408 0.0305279 0.321133) 83290 165865 2
(0.394165 0.300172 0.021517 0.284146) 82997 165837 1
(0.335519 0.246915 0.333187 0.084379) 83014 165317 2
(0.313723 0.307395 0.0261373 0.352745) 83034 165354 2
(0.902883 0.0273478 0.0242408 0.045528) 82765 164817 2
(0.279751 0.122207 0.234323 0.363719) 82754 164795 2
(0 6.52075e-150 0.904693 0.0953067) 96721 411914 2
(0 0.469592 0.530408 2.62965e-151) 99511 572096 1
(0 7.98628e-150 0.743729 0.256271) 99511 414704 2
(0 0.64206 0.35794 1.25458e-150) 95047 567632 1
(0 5.9892e-150 0.322145 0.677855) 98953 414146 2
(0 0.382666 0.617334 1.05677e-150) 100906 573491 1
(0 0.574928 0.425072 8.26745e-150) 100348 572933 1
(0 0.317555 0.682445 1.18621e-150) 94489 567074 1
(0 0.152447 0.847553 3.06291e-150) 100348 572933 1
(0 2.36508e-150 0.810423 0.189577) 96163 411356 2
(0 0.545219 0.454781 2.22493e-150) 97000 569585 1
(0 0.628763 0.371237 3.9003e-151) 94768 567353 1
(0 8.58357e-150 0.45072 0.54928) 98674 413867 2
(0 0.442799 0.557201 1.10379e-149) 92536 565121 1
(0 5.29842e-153 0.353293 0.646707) 100348 415541 2
(0 1.5551e-150 0.71671 0.28329) 102022 417215 2
(0 0.626687 0.373313 2.78077e-150) 93931 566516 1
(0 1.17507e-149 0.140344 0.859656) 102022 417215 2
(0 0.90149 0.0985097 1.64439e-150) 96442 569027 1
(0 0.538943 0.461057 4.23025e-150) 98953 571538 1
(0 4.18527e-150 0.547856 0.452144) 100348 415541 2
(0 0.60709 0.39291 1.77406e-150) 96721 569306 1
(0 0.918154 0.0818457 6.37122e-151) 100348 572933 1
(0 1.80383e-150 0.179821 0.820179) 97558 412751 2
(0 2.93998e-150 0.757287 0.242713) 100348 415541 2
(0 0.0794788 0.920521 7.08434e-151) 96442 569027 1
(0 0.375996 0.624004 8.35826e-151) 100348 572933 1
(0 0.358291 0.641709 5.79164e-151) 101185 573770 1
(0 2.10516e-150 0.777899 0.222101) 93931 409124 2
(0 2.69681e-150 0.180723 0.819277) 98116 413309 2
(0 1.57995e-150 0.304251 0.695749) 100348 415541 2
(0 0.872758 0.127242 7.3595e-151) 95605 568190 1
(0 0.548166 0.451834 8.95094e-150) 98953 571538 1
(0 4.95225e-150 0.780422 0.219578) 101185 416378 2
(0 0.0772349 0.922765 1.17156e-150) 93931 566516 1
(0 0.612232 0.387768 8.42802e-150) 101185 573770 1
(0 0.438177 0.561823 6.64983e-151) 94489 567074 1
(0 6.3779e-152 0.966544 0.0334556) 96721 411914 2
(0 0.547747 0.452253 2.55341e-150) 102022 574607 1
(0 4.74372e-150 0.804403 0.195597) 97279 412472 2
(0 0.905559 0.0944411 2.84217e-150) 98395 570980 1
(0 0.137621 0.862379 1.57977e-150) 101464 574049 1
(0 1.98819e-151 0.0369111 0.963089) 94768 409961 2
(0 0.0949369 0.905063 1.7027e-150) 95884 568469 1
(0 0.198656 0.801344 3.34671e-150) 100069 572654 1
(0 0.606469 0.393531 3.17276e-150) 95047 567632 1
(0 0.465369 0.534631 2.38647e-150) 95326 567911 1
(0 0.708163 0.291837 5.58274e-150) 95047 567632 1
(0 1.76896e-150 0.702384 0.297616) 94489 409682 2
(0 3.59746e-150 0.567896 0.432104) 98116 413309 2
(0 0.357755 0.642245 1.47716e-150) 95884 568469 1
(0 0.583169 0.416831 7.11324e-151) 101185 573770 1
(0 0.78311 0.21689 1.17011e-150) 95884 568469 1
(0 8.61427e-151 0.999986 1.38192e-05) 93931 409124 2
(0 0.456765 0.543235 2.5037e-151) 102022 574607 1
(0 7.0624e-150 0.914513 0.0854874) 92536 407729 2
(0 6.73805e-152 0.759446 0.240554) 97837 413030 2
(0 5.79508e-150 0.0457747 0.954225) 96163 411356 2
(0 1.45215e-150 0.763332 0.236668) 101743 416936 2
(0 4.29819e-150 0.308351 0.691649) 99790 414983 2
(0 0.863436 0.136564 5.1547e-150) 102022 574607 1
(0 0.655332 0.344668 1.32883e-150) 95047 567632 1
(0 0.754952 0.245048 6.48483e-151) 95047 567632 1
(0 3.6553e-151 0.0325635 0.967436) 97558 412751 2
(0 0.737985 0.262015 2.09466e-150) 99511 572096 1
(0 0.0562678 0.943732 1.01228e-149) 92815 565400 1
(0 0.635836 0.364164 3.35229e-153) 93373 565958 1
(0 0.793701 0.206299 3.13864e-150) 93094 565679 1
(0 0.803633 0.196367 5.1764e-150) 95884 568469 1
(0 0.362211 0.637789 2.11563e-151) 95605 568190 1
(0 6.65456e-153 0.7501 0.2499) 97279 412472 2
(0 0.0679675 0.932033 1.53498e-151) 101464 574049 1
(0 6.80104e-151 0.486619 0.513381) 95605 410798 2
(0 2.56202e-150 0.995195 0.00480539) 94489 409682 2
(0 3.86357e-150 0.230648 0.769352) 96721 411914 2
(0 3.87819e-150 0.699526 0.300474) 98116 413309 2
(0 3.81565e-150 0.66777 0.33223) 95605 410798 2
(0 0.327183 0.672817 3.61724e-150) 97000 569585 1
(0 0.752844 0.247156 6.13153e-151) 96163 568748 1
(0 0.566453 0.433547 1.10304e-150) 98395 570980 1