/*--------------------------------*- C++ -*----------------------------------*\
  =========                 |
  \\      /  F ield         | OpenFOAM: The Open Source CFD Toolbox
   \\    /   O peration     | Website:  https://openfoam.org
    \\  /    A nd           | Version:  7
     \\/     M anipulation  |
\*---------------------------------------------------------------------------*/
FoamFile
{
    version     2.0;
    format      ascii;
    class       scalarField;
    location    "0.7/lagrangian/reactingCloud1";
    object      pressure;
}
// * * * * * * * * * * * * * * * * * * * * * * * * * * * * * * * * * * * * * //


2581
(
593.434
591.726
590.617
589.836
588.848
589.062
583.488
587.798
584.576
581.534
586.769
584.53
582.496
584.796
582.041
581.451
580.954
580.821
584.151
582.789
583.689
583.522
582.58
582.696
583.119
582.382
583.45
582.883
582.696
582.745
583.049
582.949
582.868
582.911
582.904
582.925
582.952
583.022
583
583.065
583.037
583.029
601.497
602.639
597.161
604.48
588.159
596.71
598.139
595.012
583.727
589.083
598.269
592.169
595.265
602.05
589.637
599.01
602.813
600.483
604.049
597.371
599.642
603.112
600.353
602.839
605.216
601.995
601.833
605.1
598.067
599.055
601.347
598.947
601.681
603.905
601.061
603.291
600.711
602.577
601.057
601.793
602.954
602.616
602.356
601.18
602.018
599.286
601.047
601.487
599.937
601.571
599.59
599.221
597.778
600.332
597.417
598.073
601.158
600.141
595.857
597.735
600.004
598.041
595.235
599.732
595.415
594.685
593.574
593.336
475.285
494.48
510.87
531.236
520.636
543.923
542.499
550.36
556.158
569.76
568.954
558.673
565.429
571.733
573.759
578.277
582.518
583.378
585.114
365.998
32.5177
368.436
373.453
380.757
379.322
385.828
386.352
412.697
425.578
426.172
432.301
437.055
440.776
234.772
335.699
335.701
239.35
338.776
339.94
344.839
344.346
350.392
338.482
355.955
342.984
361.978
367.766
331.384
241.241
331.578
303.951
6.29578
328.976
316.369
97.6964
332.021
3.13891
332.091
332.092
332.091
321.977
332.162
26.9729
332.499
326.422
333.084
332.762
183.126
333.731
333.9
334.243
334.175
328.881
330.23
328.446
328.446
328.582
291.587
143.805
328.446
327.736
328.451
328.582
328.653
328.211
13.0895
328.799
275.83
240.278
201.355
329.037
329.3
329.466
249.325
315.641
40.945
330.152
288.708
327.482
330.769
330.978
297.168
331.333
327.94
327.615
327.348
327.145
327.374
327.765
327.229
327.207
17.2847
224.658
162.5
115.748
326.992
318.984
326.881
212.821
287.855
327.169
324.79
326.313
322.101
327.251
327.275
327.253
327.323
325.327
299.366
327.428
327.508
327.518
224.342
327.605
327.614
327.688
327.674
218.235
282.952
49.2026
327.715
327.206
307.985
0.833275
80.0451
292.776
284.626
326.481
142.059
323.954
308.043
328.152
228.818
326.799
326.967
326.751
326.704
326.868
326.937
326.922
326.799
327.033
326.855
326.711
326.711
326.769
326.908
326.983
326.76
326.711
326.983
326.809
326.894
327.033
326.769
326.718
326.894
327.087
326.742
326.718
326.894
327.087
186.328
324.141
119.283
322.943
326.697
194.873
326.031
112.866
326.704
326.698
326.716
326.386
324.594
326.625
324.824
325.029
249.243
221.185
287.15
326.769
326.648
326.769
194.63
326.778
180.51
326.309
326.713
326.809
325.223
222.36
323.602
231.354
326.811
326.844
326.772
194.443
0.921593
204.297
325.732
270.242
325.732
172.194
286.395
196.937
326.892
165.049
326.952
259.127
201.188
327.005
263.218
326.653
274.77
327.068
177.887
232.653
327.106
326.972
326.972
327.084
326.616
326.62
326.555
326.563
326.679
326.574
326.567
326.563
326.567
326.629
326.638
326.541
326.62
326.633
326.587
326.594
326.563
326.656
326.592
326.598
326.536
326.547
326.547
326.587
326.604
326.651
326.625
326.536
326.604
326.547
326.656
326.567
326.625
326.541
326.592
326.584
326.633
326.662
326.598
326.547
326.662
326.551
326.547
326.571
326.594
326.567
326.551
326.604
326.559
326.574
326.574
326.656
326.577
326.601
326.555
326.633
326.559
326.598
326.581
326.609
326.567
326.62
326.629
144.696
176.613
103.903
318.018
205.565
22.6526
321.547
326.459
326.439
314.656
234.821
223.82
326.162
234.821
319.373
326.563
305.918
292.012
326.316
326.479
75.1215
229.33
325.072
214.392
153.276
208.7
125.751
296.968
326.235
326.526
287.175
8.49102
14.2492
322.112
75.4798
326.496
326.395
190.198
325.212
150.261
203.766
323.394
323.739
121.968
302.009
217.868
273.755
220.045
57.9178
326.493
233.766
326.351
254.251
326.388
279.958
292.458
326.283
326.641
311.944
326.601
276.705
322.108
1.72955
311.289
188.814
268.25
176.594
289.71
326.629
326.677
326.622
326.353
325.981
325.981
326.453
326.087
325.595
325.774
326.475
325.774
326.392
326.329
326.465
326.134
326.53
325.774
325.084
326.495
325.084
326.374
326.087
325.774
326.353
325.774
326.276
325.774
326.374
325.774
325.489
326.495
326.212
325.774
326.425
326.087
325.489
326.495
325.489
326.475
326.353
325.084
326.304
326.175
325.372
326.465
326.409
325.85
326.453
326.44
326.453
326.475
326.212
326.409
325.489
326.409
326.495
325.084
326.53
326.246
326.392
325.24
325.92
325.084
326.453
326.453
326.276
325.981
326.524
326.511
326.518
326.409
326.425
326.304
325.372
326.425
326.475
326.353
326.212
326.425
326.329
326.392
326.175
326.246
326.425
325.084
326.246
326.453
326.485
326.037
326.037
326.392
326.246
326.374
325.85
326.329
326.453
325.774
326.503
326.212
326.212
326.353
326.246
326.353
326.392
326.503
325.084
326.503
326.087
325.084
326.246
325.92
326.134
325.92
326.453
326.453
325.689
326.374
326.475
2.89098
11.1462
325.689
26.1128
53.9248
84.817
32.5823
166.605
33.2856
117.151
211.545
246.427
202.089
298.185
91.319
115.445
48.5008
283.047
209.767
315.856
267.16
35.846
233.595
267.16
325.735
284.635
153.538
74.8468
271.802
210.66
324.234
317.897
231.258
75.333
209.891
83.2194
191.897
277.826
325.488
201.545
227.022
151.885
283.724
6.64426
259.082
326.425
325.848
150.163
259.621
250.945
192.694
227.274
9.87659
324.525
321.369
253.575
166.049
326.04
182.972
326.14
294.672
3.35766
289.694
209.069
326.485
270.559
277.155
16.6001
293.992
247.165
279.983
326.49
326.5
90.6762
146.903
244.416
325.241
272.218
20.8172
323.436
219.496
245.647
324.93
325.096
326.331
236.187
323.59
182.528
193.273
303.86
322.992
311.424
216.887
236.187
299.197
322.992
276.077
198.918
322.992
299.197
193.273
316.686
294.008
324.896
320.098
210.732
294.008
204.74
223.192
193.273
269.585
303.86
322.992
204.74
256.257
216.887
324.041
223.192
322.244
282.364
320.098
303.86
216.887
324.391
223.192
322.992
236.187
198.918
320.098
198.918
223.192
324.391
276.077
204.74
182.528
269.585
307.943
323.59
320.098
204.74
322.244
204.74
193.273
262.958
269.585
276.077
322.244
318.586
324.669
229.632
262.958
229.632
294.008
307.943
223.192
198.918
321.297
324.669
249.533
322.992
321.297
216.887
249.533
242.831
311.424
182.528
318.586
223.192
198.918
249.533
249.533
269.585
324.041
204.74
269.585
187.809
193.273
216.887
321.297
303.86
204.74
249.533
216.887
299.197
316.686
318.586
276.077
249.533
299.197
187.809
299.197
324.041
320.098
314.322
242.831
282.364
324.669
187.809
229.632
323.59
187.809
282.364
303.86
236.187
216.887
323.59
324.041
210.732
187.809
299.197
316.686
269.585
256.257
256.257
187.809
324.041
210.732
187.809
321.297
303.86
318.586
299.197
187.809
324.041
210.732
262.958
256.257
324.041
182.528
320.098
204.74
316.686
282.364
236.187
288.37
182.528
223.192
204.74
311.424
323.59
198.918
229.632
242.831
193.273
276.077
204.74
269.585
229.632
318.586
282.364
249.533
204.74
249.533
249.533
288.37
318.586
311.424
276.077
236.187
223.192
314.322
324.896
262.958
256.257
276.077
294.008
303.86
249.533
303.86
323.59
223.192
242.831
303.86
216.887
320.098
307.943
249.533
322.992
204.74
324.669
303.86
216.887
324.669
282.364
276.077
198.918
294.008
223.192
314.322
316.686
316.686
276.077
322.992
216.887
210.732
322.244
316.686
276.077
323.59
15.3338
276.077
322.992
324.391
262.958
29.859
60.2952
320.098
47.8324
311.424
242.831
153.89
80.9508
322.992
126.758
141.561
49.0058
175.395
144.4
46.4489
191.674
182.052
164.523
77.5632
5.79626
181.567
322.244
65.7619
188.195
164.069
185.034
165.721
0.875971
193.098
32.8887
120.626
110.727
204.74
61.726
46.0092
173.736
29.571
210.503
176.606
63.5116
18.6338
69.2132
324.669
162.272
29.2578
60.4131
74.5894
105.734
219.029
131.909
50.9283
198.8
76.9662
88.266
241.668
144.162
241.668
209.357
117.553
202.688
15.5608
220.893
24.5129
246.939
99.6069
261.42
202.692
187.48
324.896
136.067
121.846
258.928
72.8602
155.235
234.61
111.095
111.095
229.971
118.469
284.185
97.8718
212.95
20.3293
50.0953
159.891
277.194
150.975
105.537
134.899
223.37
168.611
163.131
55.1756
12.1321
250.255
310.766
221.146
161.505
34.3087
324.896
293.89
256.55
45.7742
315.03
150.003
56.9451
170.348
45.531
86.1744
258.67
249.317
268.028
59.0054
229.209
130.469
209.138
305.413
322.793
187.217
323.428
210.103
238.118
83.0422
151.475
324.017
151.475
303.466
44.0185
324.669
159.133
137.318
158.801
129.132
158.801
117.412
163.199
132.355
94.7423
109.718
154.569
154.569
109.718
109.718
81.5495
117.412
158.801
142.814
87.7037
114.75
81.5495
87.7037
154.569
105.046
154.569
80.1323
80.1323
135.706
142.814
146.581
83.0132
112.187
154.569
105.046
150.497
167.767
167.767
100.703
98.645
112.187
89.3743
112.187
109.718
83.0132
89.3743
87.7037
109.718
123.047
80.1323
146.581
135.706
100.703
86.0881
112.187
177.428
105.046
126.031
80.1323
142.814
142.814
105.046
98.645
123.047
129.132
109.718
177.428
91.1026
105.046
83.0132
105.046
86.0881
123.047
117.412
117.412
120.176
139.191
94.7423
135.706
96.6593
167.767
158.801
84.5254
105.046
105.046
87.7037
123.047
112.187
150.497
177.428
92.8911
89.3743
91.1026
80.1323
142.814
167.767
102.835
150.497
92.8911
100.703
86.0881
100.703
120.176
91.1026
100.703
158.801
132.355
105.046
126.031
126.031
109.718
142.814
105.046
142.814
83.0132
150.497
80.1323
112.187
146.581
142.814
94.7423
120.176
167.767
105.046
146.581
139.191
100.703
132.355
114.75
87.7037
139.191
126.031
129.132
112.187
80.1323
177.428
83.0132
126.031
129.132
177.428
129.132
146.581
142.814
112.187
102.835
139.191
80.1323
167.767
81.5495
98.645
80.1323
120.176
107.339
132.355
98.645
150.497
89.3743
142.814
84.5254
177.428
80.1323
98.645
92.8911
150.497
89.3743
163.199
172.509
120.176
87.7037
86.0881
84.5254
167.767
96.6593
109.718
123.047
80.1323
126.031
172.509
112.187
87.7037
167.767
91.1026
81.5495
129.132
107.339
177.428
109.718
94.7423
123.047
120.176
89.3743
117.412
177.428
81.5495
105.046
80.1323
80.1323
167.767
123.047
172.509
109.718
142.814
129.132
94.7423
158.801
84.5254
91.1026
123.047
96.6593
123.047
146.581
98.645
120.176
87.7037
117.412
158.801
132.355
84.5254
139.191
163.199
132.355
123.047
117.412
158.801
102.835
167.767
107.339
89.3743
135.706
96.6593
172.509
100.703
135.706
84.5254
177.428
158.801
84.5254
177.428
132.355
94.7423
129.132
102.835
129.132
105.046
129.132
105.046
105.046
84.5254
142.814
114.75
114.75
158.801
102.835
102.835
120.176
117.412
87.7037
102.835
96.6593
87.7037
132.355
112.187
0.822706
81.5495
114.75
129.132
172.509
98.645
102.835
14.7579
8.84972
23.7675
33.7518
37.9911
43.3623
139.191
109.718
53.9412
58.1523
0.822718
100.703
69.0516
40.648
11.1567
91.1026
78.6605
69.2845
24.0159
31.3044
2.98072
100.703
72.1336
82.5727
22.8451
67.7634
36.8237
54.8354
85.0679
81.9295
83.0698
56.7356
64.0725
87.5636
31.7872
84.905
77.1574
71.4142
86.4435
78.9979
58.7271
96.6593
117.412
92.8911
49.5432
88.3694
94.7423
91.3615
81.3455
77.8219
76.3765
40.2857
94.9127
85.6511
82.6238
86.391
98.3278
98.4566
95.2049
23.0627
92.7897
102.804
41.984
90.9148
29.8865
42.8748
96.7503
97.6742
84.3239
146.581
34.274
107.304
158.801
109.598
52.8716
55.584
89.4724
107.439
105.048
112.06
107.847
108.257
72.0426
112.654
106.44
96.6407
87.5332
90.9754
82.8565
88.8025
23.988
81.4885
95.9353
124.778
124.778
68.0298
120.997
33.7175
119.211
125.689
128.498
4.58735
38.8557
120.94
26.0072
99.7516
142.814
95.3071
73.4962
131.484
31.0077
111.84
139.931
150.051
7.9787
20.3389
125.55
143.385
61.4469
114.254
126.429
85.8941
162.012
105.681
127.807
46.8835
157.63
160.877
62.459
62.459
69.1805
55.4939
68.1364
57.64
72.5036
60.7666
63.3405
60.7666
74.891
52.2209
54.1436
54.1436
73.6792
63.3405
64.2465
49.8184
63.3405
56.1923
72.5036
70.2556
53.4898
55.4939
66.1363
50.4037
52.8491
61.6014
56.1923
57.64
68.1364
57.64
66.1363
56.9072
59.1624
72.5036
56.1923
73.6792
65.1782
61.6014
69.1805
69.1805
54.1436
60.7666
50.9988
53.4898
66.1363
77.4296
60.7666
62.459
67.1221
55.4939
69.1805
72.5036
65.1782
57.64
60.7666
51.6044
61.6014
53.4898
71.3629
67.1221
49.8184
51.6044
56.1923
54.8114
49.8184
65.1782
50.4037
52.8491
71.3629
77.4296
59.9538
68.1364
67.1221
73.6792
69.1805
69.1805
59.1624
50.4037
76.1406
66.1363
56.9072
59.9538
74.891
61.6014
53.4898
50.4037
58.3914
65.1782
59.9538
50.9988
50.4037
61.6014
52.8491
78.7596
71.3629
69.1805
76.1406
56.9072
73.6792
63.3405
52.2209
72.5036
53.4898
67.1221
52.8491
50.9988
62.459
52.2209
71.3629
59.1624
56.1923
50.4037
59.9538
50.4037
71.3629
71.3629
69.1805
59.1624
51.6044
52.2209
54.1436
65.1782
49.8184
60.7666
54.1436
54.8114
78.7596
54.8114
76.1406
78.7596
53.4898
58.3914
58.3914
52.8491
52.8491
57.64
77.4296
78.7596
69.1805
69.1805
76.1406
55.4939
59.9538
74.891
76.1406
52.8491
50.9988
68.1364
77.4296
67.1221
77.4296
65.1782
72.5036
58.3914
59.1624
69.1805
63.3405
49.8184
58.3914
58.3914
73.6792
68.1364
71.3629
60.7666
74.891
68.1364
49.8184
57.64
64.2465
76.1406
65.1782
72.5036
66.1363
78.7596
56.9072
54.1436
55.4939
51.6044
76.1406
52.2209
70.2556
67.1221
70.2556
61.6014
56.1143
69.1805
60.7666
56.1923
0.822631
49.8184
4.6975
0.822629
17.552
9.9402
54.1436
26.4412
47.7016
0.822657
68.1364
20.367
48.7991
48.9295
32.7618
41.1147
50.9988
19.302
18.258
27.7964
47.5165
48.6352
30.4573
50.1325
48.0359
50.9625
50.1325
49.1791
28.8597
49.8772
41.6168
32.8718
48.5162
48.1045
44.3674
47.4557
23.3104
54.1436
44.3674
63.3405
53.3436
40.7105
53.2945
25.9174
50.9858
40.0809
71.3629
18.5794
10.7459
1.47418
39.023
0.822653
54.6038
24.2245
38.4121
54.8594
74.891
0.822663
35.735
54.4617
44.0156
39.2911
42.6638
46.3177
56.0566
38.6562
3.33432
56.7622
27.5244
9.85724
54.7944
0.822664
57.7163
59.1624
56.8261
56.8261
59.5371
38.0723
60.7392
60.4987
21.5862
56.9796
61.6014
42.4123
12.4775
56.8095
55.8813
1.56064
62.5155
7.92086
44.972
15.5253
32.4249
17.4584
65.1782
65.1456
14.0826
63.7159
62.7283
57.5294
46.0373
38.2432
68.0106
68.1253
60.8522
65.285
35.7298
52.4856
58.3911
69.0499
68.3118
67.8065
19.8421
64.7783
63.5922
50.0609
72.3568
63.6743
43.1946
7.25832
59.3011
73.3557
38.3395
73.2221
18.802
74.8451
67.1629
54.1559
25.2543
7.69311
76.1259
17.2848
64.6372
61.967
76.9412
77.3797
77.1183
38.6281
38.6281
41.4392
42.8995
43.8965
34.6393
34.2112
47.5652
34.2112
44.4027
34.6393
39.5502
46.4851
47.0216
47.5652
48.6752
45.9553
34.6393
42.4082
35.0702
48.6752
32.9445
47.5652
39.5502
37.7197
35.0702
48.1163
36.8243
45.9553
34.6393
42.4082
36.3813
33.3639
42.8995
34.2112
39.0874
43.3955
34.6393
32.5277
39.5502
44.4027
40.961
35.5043
35.0702
47.5652
40.0168
41.9215
37.2704
44.9144
32.5277
32.9445
35.5043
38.1722
32.5277
46.4851
39.5502
40.961
39.0874
45.9553
44.4027
46.4851
46.4851
33.7861
41.9215
41.9215
42.8995
39.0874
38.6281
43.3955
41.4392
36.8243
42.4082
36.8243
46.4851
32.5277
35.0702
45.9553
35.5043
32.5277
33.3639
35.9413
41.4392
40.961
43.8965
43.3955
38.1722
45.4318
45.9553
45.9553
33.7861
38.6281
38.1722
36.8243
32.5277
44.9144
36.3813
38.6281
35.0702
33.3639
35.5043
38.6281
39.5502
35.0702
37.2704
42.4082
40.961
35.5043
32.9445
33.3639
36.8243
35.9413
35.0702
35.9413
32.5277
42.8995
34.2112
35.5043
43.3955
35.9413
37.7197
44.9144
39.5502
35.5043
36.3813
47.5652
40.961
32.9445
39.5502
42.4082
47.0216
44.4027
44.9144
45.4318
41.4392
37.2704
34.2112
44.4027
44.4027
42.8995
8.01818
32.9445
8.83275
0.822561
0.822635
17.4948
0.822552
24.0049
13.7097
0.822886
38.1722
17.5806
24.3709
30.1726
32.3698
28.8638
0.82256
30.6981
23.9761
30.1343
33.3036
26.8669
31.127
31.208
32.7224
30.7869
3.87046
25.3111
30.5205
38.1722
31.9653
24.7294
21.4385
27.5476
18.4527
30.6961
32.4191
22.7776
7.04958
32.2188
23.3759
0.822567
33.7861
28.6039
17.4319
30.2348
21.3516
33.0236
32.9399
33.9358
27.0954
33.1058
34.2847
0.82257
33.8175
16.4689
32.2474
28.3193
33.2305
37.7197
23.3196
34.6972
29.2749
24.9407
26.5381
34.2231
0.822572
34.5597
35.3076
30.5115
22.5005
19.7146
21.8641
32.4828
34.9735
18.3698
34.1245
30.3012
36.3065
3.93653
13.3209
2.05045
15.6941
34.7534
36.7971
0.822583
36.6089
0.829964
0.822579
32.414
36.9719
0.822581
22.0946
33.3349
35.3412
9.80751
35.9307
37.6014
0.82258
21.1061
43.246
15.817
37.8554
38.0061
0.822636
39.0874
37.632
13.8442
38.542
21.7209
12.194
20.9435
0.822583
28.2325
19.8171
34.4579
39.5177
14.8675
38.0617
35.7532
25.9954
37.1099
38.8442
1.02051
46.4851
40.8857
33.8557
38.4108
33.9584
37.4001
48.1163
38.4175
39.1919
36.9574
19.9018
32.8683
28.966
24.7603
6.24644
22.6717
40.5091
11.4156
42.7542
41.8897
42.7866
38.7397
42.6344
43.7041
31.6316
38.1521
0.822604
40.0057
41.889
44.3988
17.4001
39.4761
44.3728
20.8552
44.8197
35.5684
11.6006
42.1636
45.4277
43.073
45.3064
46.4116
45.2556
25.745
0.82261
39.4526
42.5719
26.2469
46.7933
42.401
18.8095
44.4355
17.691
30.3608
1.48628
22.8524
45.8548
48.0848
48.6703
48.6752
48.4264
22.1875
20.848
30.0782
25.0204
21.6606
28.4808
22.4601
26.9066
27.6899
25.0204
23.338
25.7574
23.9798
22.4601
25.0204
31.7021
24.3169
20.1649
30.0782
29.277
27.6899
32.1136
19.7418
23.338
30.0782
30.886
31.2929
23.0341
20.1649
26.9066
30.4812
20.848
25.7574
31.2929
20.848
28.4808
26.9066
26.1358
24.6639
21.4
20.53
27.6899
20.53
27.6899
24.3169
20.1649
19.7418
28.8783
21.4
24.6639
21.4
31.2929
26.1358
23.338
26.9066
22.4601
28.0846
25.7574
22.1875
26.5192
21.9219
23.0341
22.4601
22.7417
26.1358
23.6534
31.2929
20.1649
20.1649
20.848
21.6606
23.0341
19.7418
20.53
30.4812
29.6769
25.7574
22.1875
22.7417
26.9066
21.133
21.4
23.6534
22.7417
29.6769
19.7418
21.9219
20.53
27.297
28.4808
22.4601
27.297
26.1358
22.7417
21.4
25.3852
29.6769
22.4601
24.6639
22.7417
28.0846
22.7417
21.6606
30.4812
28.4808
23.338
20.53
26.5192
20.1649
22.4601
31.2929
25.0204
24.6639
25.3852
27.6899
28.8783
29.6769
27.297
30.4812
31.7021
0.822522
0.822521
20.1649
26.9066
0.822557
0.822521
0.873135
5.37396
4.78183
0.822525
4.78183
1.11226
5.37396
1.22878
10.1751
13.7285
11.8821
23.9798
24.3169
29.277
16.1818
0.822524
5.9291
14.9561
5.9291
16.6932
6.14811
18.3136
8.19777
16.8185
13.8034
21.6606
16.6932
19.0954
19.7292
11.0752
7.42878
10.1809
12.8992
20.53
14.0621
15.4072
17.8059
20.0346
18.8087
0.822772
0.822696
17.3182
18.5813
11.2575
21.133
19.7099
16.3972
19.3997
19.7028
19.0263
20.2537
29.6769
0.822532
7.72647
8.74298
20.5071
20.8243
21.133
18.9731
16.4099
0.822519
20.1794
0.822521
16.308
15.9126
6.64784
22.4601
25.7574
18.2406
6.97363
0.822529
27.6899
20.5845
19.1154
15.304
20.9766
18.2406
12.0362
20.3541
5.8131
21.1263
19.0193
18.2406
20.5952
20.9393
20.1878
0.822523
0.822525
20.1358
17.4314
20.8959
4.80505
0.86998
18.6458
6.23952
21.3895
21.2388
6.98314
19.2729
17.6241
21.6131
21.6456
10.9968
21.0202
19.4556
11.7717
6.40827
29.6769
0.822526
24.6639
14.094
17.7725
1.35086
21.7344
20.7495
21.9198
16.8967
20.8785
18.3642
14.6952
14.6494
0.822611
4.87696
18.7587
19.0493
0.822618
19.8111
12.2245
0.894508
20.1282
0.822519
14.3139
20.8884
21.6266
16.5878
23.338
0.822524
17.2091
7.07402
14.914
19.239
20.9282
15.8739
0.822522
9.46469
22.3095
10.4262
12.3751
19.4231
15.6303
20.49
22.4554
0.823719
8.57384
19.6677
17.9155
19.2873
25.0204
19.7296
0.822921
15.8739
23.2984
23.0258
19.6054
23.338
0.822533
0.822852
14.628
18.7086
19.3041
1.00143
10.9288
7.70863
23.0527
20.6603
20.5294
19.3747
23.6508
22.2011
0.822521
20.6909
26.1358
0.822527
12.264
23.9458
10.7107
17.4338
23.8804
29.6769
0.822522
19.8229
27.6899
21.6989
20.1714
0.822526
23.1024
12.7529
21.649
23.238
24.2964
17.4748
22.0993
18.993
25.3852
32.1136
9.38478
23.8611
15.6712
24.6639
0.823273
21.8802
24.4067
23.3074
0.822522
24.5253
24.308
10.6126
22.7053
13.1177
18.8823
16.2395
22.6949
25.3843
0.822597
22.4977
23.1042
9.01119
22.9838
0.822531
7.86282
0.822524
25.1086
25.3788
25.7564
6.21295
18.9504
22.3541
10.1691
24.1366
16.2395
0.822534
0.822527
18.5724
2.06881
25.3897
11.7448
21.5879
7.97956
18.2673
25.7612
24.0609
0.822525
24.2772
24.4013
32.1136
0.822525
25.1432
3.69833
0.824571
1.0754
25.3929
0.828484
12.2938
1.25627
26.7913
26.2874
17.4484
0.822536
23.847
26.8078
0.822531
25.8085
0.822528
12.1035
24.1242
27.2604
27.2841
0.822531
27.0966
25.8085
13.3578
27.1777
27.2604
24.4941
0.822528
26.5287
0.822535
12.0974
21.4251
27.2514
0.822531
19.9632
25.0341
17.208
4.60673
28.4154
0.868203
24.4386
13.0384
28.4808
26.9627
15.5874
28.1461
20.0147
20.3948
25.7426
28.0114
28.8469
19.5092
0.822532
11.8564
28.8635
25.7981
26.2714
22.7789
29.0392
20.8244
18.4333
28.9513
17.8266
29.6769
29.5514
26.7501
13.4092
10.9257
29.3068
18.1588
26.7501
21.4565
20.1296
10.1759
22.1648
0.822542
20.1296
0.822537
27.1462
23.3129
19.6327
19.129
30.2749
30.4193
10.6016
30.8685
15.7876
24.1983
8.78846
29.4028
23.6097
20.5067
29.1899
12.3596
31.2929
0.82254
10.3078
30.6544
31.1717
30.1609
32.1136
31.1819
31.2248
30.9928
8.97895
31.5029
0.823584
28.864
22.0829
3.82313
30.557
10.9223
5.52865
23.6891
29.2825
)


// ************************************************************************* //
