/*--------------------------------*- C++ -*----------------------------------*\
  =========                 |
  \\      /  F ield         | OpenFOAM: The Open Source CFD Toolbox
   \\    /   O peration     | Website:  https://openfoam.org
    \\  /    A nd           | Version:  7
     \\/     M anipulation  |
\*---------------------------------------------------------------------------*/
FoamFile
{
    version     2.0;
    format      ascii;
    class       scalarField;
    location    "0.7/lagrangian/reactingCloud1";
    object      T;
}
// * * * * * * * * * * * * * * * * * * * * * * * * * * * * * * * * * * * * * //


2581
(
591.765
590.945
590.646
590.362
590.089
590.145
589.463
589.794
588.9
588.211
589.506
588.882
588.314
588.956
588.188
588.027
587.906
587.998
588.777
588.397
588.648
588.601
588.339
588.372
588.489
588.324
588.582
588.424
588.372
589.511
588.47
588.442
588.419
588.431
588.429
588.454
588.442
588.463
588.456
588.475
588.467
588.467
597.869
597.825
593.621
597.197
590.082
592.898
593.545
592.115
588.779
590.245
592.907
591.083
591.928
594.148
590.366
592.955
594.537
593.356
595.489
592.468
593.099
594.16
593.287
594.002
596.257
597.504
598.221
595.63
592.641
592.914
593.552
592.882
593.647
594.428
593.47
594.203
593.371
593.953
593.471
598.085
595.582
594.5
593.979
593.512
594.004
592.974
593.486
593.662
593.165
593.795
593.072
592.969
592.562
593.329
592.462
592.65
593.841
593.391
592.029
592.573
593.483
592.715
591.86
593.669
591.93
591.727
591.41
591.357
558.089
563.709
568.413
575.148
571.217
579.208
577.776
579.75
581.352
587.241
586.443
582.035
583.853
585.616
586.16
587.531
590.436
588.818
589.28
520.644
265.885
521.458
523.197
525.792
525.375
527.56
528.079
537.348
541.812
541.952
543.938
545.948
546.747
433.453
508.047
508.509
436.798
510.014
510.496
512.305
511.971
514.482
506.813
516.686
508.722
519.208
520.907
506.728
440.056
506.503
489.96
232.32
505.703
498.298
312.468
506.674
229.32
507.023
506.789
507.023
501.576
506.861
251.329
507.06
503.967
507.335
507.463
389.053
507.67
507.818
507.777
507.647
505.261
505.813
505.084
505.084
505.139
481.945
353.339
505.137
505.269
505.484
505.258
505.213
505.448
237.071
505.457
469.572
439.857
405.532
505.558
505.436
505.799
447.417
498.341
261.742
506.213
479.112
505.077
506.514
506.334
485.249
506.304
504.881
504.754
504.653
504.579
504.662
504.812
504.609
504.602
239.689
426.64
370.431
327.47
504.781
500.861
504.776
416.099
479.358
504.814
503.945
504.6
502.598
504.666
504.644
504.847
504.858
504.205
487.895
504.804
504.917
504.969
426.267
504.972
504.932
504.79
505.016
420.829
475.491
267.713
505.141
505.016
493.842
231.301
295.298
482.937
476.697
504.74
351.711
503.52
493.806
505.361
430.065
504.467
504.519
504.455
504.445
504.487
504.509
504.504
504.467
504.541
504.483
504.446
504.446
504.459
504.5
504.524
504.457
504.446
504.524
504.47
504.495
504.541
504.459
504.447
504.495
504.559
504.453
504.447
504.495
504.559
392.454
503.514
330.81
502.923
504.443
400.191
504.336
324.873
504.445
504.47
504.465
504.461
503.743
504.513
503.851
503.946
448.077
423.715
478.832
504.459
504.53
504.468
399.902
504.471
387.052
504.467
504.562
504.489
504.059
424.702
503.308
432.603
504.56
504.561
504.607
399.67
231.722
408.553
504.297
465.486
504.297
379.375
478.256
401.91
504.622
372.813
504.539
456.33
405.721
504.651
459.72
504.655
469.121
504.554
384.541
433.664
504.627
504.74
504.74
504.647
504.436
504.436
504.439
504.438
504.44
504.438
504.438
504.438
504.438
504.436
504.437
504.438
504.436
504.436
504.437
504.436
504.438
504.438
504.436
504.436
504.438
504.438
504.438
504.437
504.436
504.437
504.436
504.438
504.436
504.438
504.438
504.438
504.436
504.438
504.436
504.437
504.436
504.438
504.436
504.438
504.438
504.439
504.438
504.438
504.436
504.438
504.439
504.436
504.439
504.438
504.438
504.438
504.437
504.436
504.439
504.436
504.439
504.436
504.437
504.436
504.438
504.436
504.436
355.642
384.477
318.83
500.16
410.399
249.756
502.136
504.42
504.414
498.139
436.075
426.501
504.326
436.075
500.938
504.438
492.459
482.556
504.379
504.424
292.105
431.223
503.888
418.044
362.627
412.978
337.364
486.16
504.357
504.436
478.892
238.082
242.033
502.448
291.758
504.432
504.408
396.234
503.959
359.698
408.438
503.11
503.282
333.635
489.742
420.986
468.4
422.887
275.843
504.445
434.901
504.41
452.394
504.422
473.286
482.832
504.392
504.439
496.444
504.464
470.719
502.474
232.319
496.028
394.773
463.926
383.621
480.772
504.476
504.446
504.481
504.401
504.285
504.285
504.425
504.32
504.147
504.212
504.43
504.212
504.411
504.395
504.428
504.335
504.438
504.212
503.952
504.433
503.952
504.407
504.32
504.212
504.401
504.212
504.379
504.212
504.407
504.212
504.107
504.433
504.36
504.212
504.419
504.32
504.107
504.433
504.107
504.43
504.401
503.952
504.387
504.348
504.063
504.428
504.416
504.239
504.425
504.423
504.425
504.43
504.36
504.416
504.107
504.416
504.433
503.952
504.438
504.37
504.411
504.013
504.263
503.952
504.425
504.425
504.379
504.285
504.437
504.436
504.437
504.416
504.419
504.387
504.063
504.419
504.43
504.401
504.36
504.419
504.395
504.411
504.348
504.37
504.419
503.952
504.37
504.425
504.432
504.303
504.303
504.411
504.37
504.407
504.239
504.395
504.425
504.212
504.435
504.36
504.36
504.401
504.37
504.401
504.411
504.435
503.952
504.435
504.32
503.952
504.37
504.263
504.335
504.263
504.425
504.425
504.181
504.407
504.43
225.073
237.943
504.181
253.38
279.082
306.993
259.525
379.323
260.188
335.284
418.417
447.619
409.952
487.546
312.021
333.37
273.914
476.478
416.351
499.031
464.118
262.504
436.636
464.118
504.197
477.54
366.732
296.912
467.648
416.728
503.536
500.179
434.288
297.119
415.791
303.916
399.997
472.206
504.08
408.439
430.406
364.327
476.628
234.409
457.172
504.419
504.22
362.411
457.482
450.294
399.876
430.167
238.63
503.641
502.055
452.416
375.877
504.286
390.837
504.321
484.616
230.333
480.952
413.979
504.432
466.138
471.339
245.257
484.095
446.867
473.517
504.431
504.433
308.043
358.004
444.496
503.956
467.386
248.831
503.111
422.951
445.515
503.819
503.893
504.383
446.542
503.321
404.871
413.485
492.743
503.05
497.092
431.95
446.542
489.936
503.05
474.981
417.958
503.05
489.936
413.485
499.932
486.717
503.877
501.668
427.2
486.717
422.532
436.769
413.485
470.543
492.743
503.05
422.532
461.179
431.95
503.52
436.769
502.703
479.191
501.668
492.743
431.95
503.669
436.769
503.05
446.542
417.958
501.668
417.958
436.769
503.669
474.981
422.532
404.871
470.543
495.125
503.321
501.668
422.532
502.703
422.532
413.485
465.927
470.543
474.981
502.703
500.91
503.785
441.639
465.927
441.639
486.717
495.125
436.769
417.958
502.253
503.785
456.342
503.05
502.253
431.95
456.342
451.452
497.092
404.871
500.91
436.769
417.958
456.342
456.342
470.543
503.52
422.532
470.543
409.121
413.485
431.95
502.253
492.743
422.532
456.342
431.95
489.936
499.932
500.91
474.981
456.342
489.936
409.121
489.936
503.52
501.668
498.678
451.452
479.191
503.785
409.121
441.639
503.321
409.121
479.191
492.743
446.542
431.95
503.321
503.52
427.2
409.121
489.936
499.932
470.543
461.179
461.179
409.121
503.52
427.2
409.121
502.253
492.743
500.91
489.936
409.121
503.52
427.2
465.927
461.179
503.52
404.871
501.668
422.532
499.932
479.191
446.542
483.121
404.871
436.769
422.532
497.092
503.321
417.958
441.639
451.452
413.485
474.981
422.532
470.543
441.639
500.91
479.191
456.342
422.532
456.342
456.342
483.121
500.91
497.092
474.981
446.542
436.769
498.678
503.877
465.927
461.179
474.981
486.717
492.743
456.342
492.743
503.321
436.769
451.452
492.743
431.95
501.668
495.125
456.342
503.05
422.532
503.785
492.743
431.95
503.785
479.191
474.981
417.958
486.717
436.769
498.678
499.932
499.932
474.981
503.05
431.95
427.2
502.703
499.932
474.981
503.321
238.151
474.981
503.05
503.669
465.927
255.122
286.858
501.668
274.115
497.092
451.452
378.197
307.573
503.05
352.175
366.39
275.318
396.232
368.662
272.681
411.268
404.417
386.674
303.551
226.325
402.57
502.703
292.006
408.056
385.278
405.801
387.28
216.275
413.32
258.766
344.861
334.9
422.532
287.816
272.232
393.194
255.374
426.991
395.79
289.507
243.549
294.893
503.785
382.05
255.103
286.395
300.128
329.525
431.73
353.452
277.081
413.236
302.308
312.893
450.464
364.57
450.464
422.344
339.925
416.2
240.433
431.726
250.34
453.498
323.212
464.685
415.498
402.396
503.877
356.363
343.287
461.119
297.896
373.29
441.573
333.31
333.31
437.17
339.848
480.035
321.029
423.01
246.281
276.147
376.943
474.123
368.821
327.741
354.27
430.962
384.14
379.099
280.917
237.257
452.851
496.686
428.654
377.44
260.894
503.877
485.521
457.252
271.939
498.97
366.85
282.436
384.729
271.693
309.351
458.593
451.147
465.893
284.294
434.535
349.08
417.479
492.696
502.951
398.272
503.243
417.911
441.394
305.85
366.666
503.495
366.666
491.259
270.167
503.785
373.062
353.835
385.381
360.05
385.381
349.714
389.043
362.858
329.077
342.813
381.835
381.835
342.813
342.813
316.578
349.714
385.381
371.872
322.461
347.338
316.578
322.461
381.835
338.573
381.835
315.209
315.209
365.762
371.872
375.083
317.986
345.039
381.835
338.573
378.404
392.822
392.822
334.596
332.699
345.039
324.042
345.039
342.813
317.986
324.042
322.461
342.813
354.71
315.209
375.083
365.762
334.596
320.926
345.039
400.736
338.573
357.335
315.209
371.872
371.872
338.573
332.699
354.71
360.05
342.813
400.736
325.67
338.573
317.986
338.573
320.926
354.71
349.714
349.714
352.17
368.766
329.077
365.762
330.86
392.822
385.381
319.435
338.573
338.573
322.461
354.71
345.039
378.404
400.736
327.348
324.042
325.67
315.209
371.872
392.822
336.553
378.404
327.348
334.596
320.926
334.596
352.17
325.67
334.596
385.381
362.858
338.573
357.335
357.335
342.813
371.872
338.573
371.872
317.986
378.404
315.209
345.039
375.083
371.872
329.077
352.17
392.822
338.573
375.083
368.766
334.596
362.858
347.338
322.461
368.766
357.335
360.05
345.039
315.209
400.736
317.986
357.335
360.05
400.736
360.05
375.083
371.872
345.039
336.553
368.766
315.209
392.822
316.578
332.699
315.209
352.17
340.659
362.858
332.699
378.404
324.042
371.872
319.435
400.736
315.209
332.699
327.348
378.404
324.042
389.043
396.72
352.17
322.461
320.926
319.435
392.822
330.86
342.813
354.71
315.209
357.335
396.72
345.039
322.461
392.822
325.67
316.578
360.05
340.659
400.736
342.813
329.077
354.71
352.17
324.042
349.714
400.736
316.578
338.573
315.209
315.209
392.822
354.71
396.72
342.813
371.872
360.05
329.077
385.381
319.435
325.67
354.71
330.86
354.71
375.083
332.699
352.17
322.461
349.714
385.381
362.858
319.435
368.766
389.043
362.858
354.71
349.714
385.381
336.553
392.822
340.659
324.042
365.762
330.86
396.72
334.596
365.762
319.435
400.736
385.381
319.435
400.736
362.858
329.077
360.05
336.553
360.05
338.573
360.05
338.573
338.573
319.435
371.872
347.338
347.338
385.381
336.553
336.553
352.17
349.714
322.461
336.553
330.86
322.461
362.858
345.039
216.091
316.578
347.338
360.05
396.72
332.699
336.553
235.024
226.8
246.758
259.213
264.35
270.934
368.766
342.813
283.689
288.749
216.389
334.596
301.844
267.37
230.47
325.67
313.428
301.62
247.17
256.099
218.34
334.596
305.008
317.112
245.686
299.577
262.672
283.876
319.719
316.012
317.358
285.939
294.81
322.296
256.657
319.171
309.801
302.885
320.616
311.641
288.084
330.86
349.714
327.348
277.394
322.127
329.077
325.195
313.435
309.168
307.283
266.528
328.465
318.322
314.579
318.829
332.338
332.484
328.4
246.325
325.684
336.517
268.308
323.222
254.451
269.234
328.58
330.371
315.284
375.083
259.513
340.619
385.381
342.68
280.307
283.283
320.622
340.305
337.242
344.898
340.753
340.743
300.992
345.06
338.323
327.033
317.335
321.001
312.11
318.406
247.716
310.433
325.952
356.008
356.008
296.06
351.51
258.938
350.125
356.432
359.383
221.933
264.652
350.492
250.278
328.347
371.872
323.523
301.335
360.842
256.004
340.34
368.343
377.322
227.695
243.823
353.361
371.248
288.434
342.042
353.802
313.125
387.874
332.57
354.326
273.193
382.345
385.481
297.59
297.59
304.421
290.304
303.372
292.574
307.736
295.841
298.497
295.841
310.094
286.792
288.862
288.862
308.899
298.497
299.425
284.172
298.497
291.045
307.736
305.498
288.161
290.304
301.35
284.814
287.471
296.705
291.045
292.574
303.372
292.574
301.35
291.802
294.171
307.736
291.045
308.899
300.375
296.705
304.421
304.421
288.862
295.841
285.464
288.161
301.35
312.582
295.841
297.59
302.348
290.304
304.421
307.736
300.375
292.574
295.841
286.123
296.705
288.161
306.602
302.348
284.172
286.123
291.045
289.577
284.172
300.375
284.814
287.471
306.602
312.582
294.996
303.372
302.348
308.899
304.421
304.421
294.171
284.814
311.321
301.35
291.802
294.996
310.094
296.705
288.161
284.814
293.364
300.375
294.996
285.464
284.814
296.705
287.471
313.877
306.602
304.421
311.321
291.802
308.899
298.497
286.792
307.736
288.161
302.348
287.471
285.464
297.59
286.792
306.602
294.171
291.045
284.814
294.996
284.814
306.602
306.602
304.421
294.171
286.123
286.792
288.862
300.375
284.172
295.841
288.862
289.577
313.877
289.577
311.321
313.877
288.161
293.364
293.364
287.471
287.471
292.574
312.582
313.877
304.421
304.421
311.321
290.304
294.996
310.094
311.321
287.471
285.464
303.372
312.582
302.348
312.582
300.375
307.736
293.364
294.171
304.421
298.497
284.172
293.364
293.364
308.899
303.372
306.602
295.841
310.094
303.372
284.172
292.574
299.425
311.321
300.375
307.736
301.35
313.877
291.802
288.862
290.304
286.123
311.321
286.792
305.498
302.348
305.498
296.705
290.939
304.421
295.841
291.045
216.164
284.172
219.745
216.077
238.284
227.277
288.862
250.939
281.328
216.505
303.372
242.28
282.902
283.089
259.946
271.52
285.464
240.751
239.27
252.707
280.885
282.299
256.423
284.428
281.448
285.412
284.428
282.888
254.088
283.688
271.713
259.497
281.598
281.022
275.372
280.115
246.323
288.862
275.372
298.497
287.957
270.344
287.889
249.967
285.058
269.479
306.602
239.718
228.657
216.272
267.813
216.346
289.29
247.496
266.684
289.225
310.094
216.428
263.166
288.887
274.346
268.073
272.521
277.454
290.645
266.915
218.129
291.386
251.883
227.457
288.726
216.245
292.454
294.171
290.826
290.826
294.44
265.768
295.804
295.485
243.835
290.606
296.705
271.47
231.339
290.173
288.758
216.292
297.417
224.882
274.322
235.634
258.056
238.278
300.375
300.333
233.67
298.23
296.96
290.282
275.311
265.405
303.211
303.357
294.096
299.735
262.132
283.484
290.766
304.255
303.318
302.677
241.545
298.839
297.098
279.828
307.552
296.729
271.191
224.234
291.095
308.497
265.086
308.031
240.243
310.037
300.559
284.417
248.626
224.919
311.302
238.288
296.989
293.744
311.984
312.52
311.88
271.408
271.408
274.713
276.402
277.544
266.577
266.048
281.681
266.048
278.121
266.577
272.5
280.474
281.074
281.681
282.913
279.878
266.577
275.836
267.108
282.913
264.467
281.681
272.5
270.323
267.108
282.293
269.245
279.878
266.577
275.836
268.708
264.994
276.402
266.048
271.953
276.971
266.577
263.945
272.5
278.121
274.156
267.639
267.108
281.681
273.05
275.273
269.782
278.702
263.945
264.467
267.639
270.864
263.945
280.474
272.5
274.156
271.953
279.878
278.121
280.474
280.474
265.519
275.273
275.273
276.402
271.953
271.408
276.971
274.713
269.245
275.836
269.245
280.474
263.945
267.108
279.878
267.639
263.945
264.994
268.173
274.713
274.156
277.544
276.971
270.864
279.288
279.878
279.878
265.519
271.408
270.864
269.245
263.945
278.702
268.708
271.408
267.108
264.994
267.639
271.408
272.5
267.108
269.782
275.836
274.156
267.639
264.467
264.994
269.245
268.173
267.108
268.173
263.945
276.402
266.048
267.639
276.971
268.173
270.323
278.702
272.5
267.639
268.708
281.681
274.156
264.467
272.5
275.836
281.074
278.121
278.702
279.288
274.713
269.782
266.048
278.121
278.121
276.402
224.097
264.467
225.324
216.345
216.386
239.077
216.214
249.797
232.938
216.412
270.864
239.123
250.204
259.977
263.678
257.641
216.201
260.701
249.463
259.759
264.893
254.094
261.418
261.554
263.921
260.849
218.43
251.549
260.562
270.864
262.658
250.6
245.253
255.21
240.391
260.395
263.248
247.347
222.703
262.756
248.234
216.097
265.519
256.82
238.685
259.492
244.855
264.084
263.781
265.592
254.356
264.054
265.821
216.111
265.224
237.102
262.493
256.232
264.097
270.323
247.989
266.496
257.662
250.667
253.137
265.72
216.119
266.271
267.318
259.533
246.683
242.257
245.543
262.575
266.603
239.973
265.391
258.694
268.587
218.528
232.147
216.642
235.799
265.92
269.201
216.162
268.898
216.517
216.111
262.041
269.305
216.111
245.62
263.224
266.385
226.817
267.476
269.959
216.187
244.141
276.746
235.918
270.362
270.6
216.441
271.953
269.669
232.914
271.096
244.896
230.414
243.71
216.087
254.857
241.957
264.434
272.449
234.439
270.011
266.293
251.358
268.535
271.226
216.386
280.474
274.04
263.252
270.23
263.287
268.53
282.293
270.084
271.269
267.712
241.959
261.518
255.714
249.238
221.694
246.065
273.116
229.261
276.182
274.873
276.231
269.829
275.651
277.255
259.167
268.816
216.302
271.569
274.371
278.115
238.137
270.638
277.897
243.204
278.561
264.757
229.572
274.457
279.282
275.636
278.922
280.366
278.67
250.22
216.085
270.057
274.587
250.947
280.741
274.188
240.138
277.135
238.512
256.752
216.318
245.964
279.021
282.248
282.905
282.913
282.554
250.013
247.566
260.837
254.294
249.049
258.794
250.463
256.781
257.784
254.294
251.914
255.278
252.861
250.463
254.294
262.903
253.323
246.616
260.837
259.812
257.784
263.421
246.248
251.914
260.837
261.867
262.382
251.419
246.616
256.781
261.348
247.566
255.278
262.382
247.566
258.794
256.781
255.784
253.821
248.523
247.148
257.784
247.148
257.784
253.323
246.616
246.248
259.298
248.523
253.821
248.523
262.382
255.784
251.914
256.781
250.463
258.282
255.278
250.013
256.272
249.497
251.419
250.463
250.969
255.784
252.367
262.382
246.616
246.616
247.566
249.049
251.419
246.248
247.148
261.348
260.32
255.278
250.013
250.969
256.781
248.088
248.523
252.367
250.969
260.32
246.248
249.497
247.148
257.274
258.794
250.463
257.274
255.784
250.969
248.523
254.796
260.32
250.463
253.821
250.969
258.282
250.969
249.049
261.348
258.794
251.914
247.148
256.272
246.616
250.463
262.382
254.294
253.821
254.796
257.784
259.298
260.32
257.274
261.348
262.903
216.032
216.038
246.616
256.781
216.052
216.044
216.154
220.03
219.241
216.026
219.241
216.198
220.03
216.183
228.37
234.895
231.241
252.861
253.323
259.812
239.487
216.045
221.024
236.651
221.024
239.871
221.519
243.522
224.732
240.688
234.725
249.049
239.871
244.402
246.224
229.663
223.479
228.058
232.907
247.148
235.014
237.482
242.151
246.368
244.464
216.1
216.089
241.041
243.425
230.122
248.088
245.75
239.319
244.982
245.561
244.083
246.617
260.32
216.017
223.989
225.646
247.104
247.521
248.088
244.169
239.176
216.08
246.282
216.069
238.945
238.215
222.384
250.463
255.278
242.557
222.842
216.029
257.784
247.028
244.252
237.097
247.785
242.557
231.193
246.506
221.152
248.075
243.959
242.557
246.969
247.632
246.264
216.065
216.045
246.1
240.97
247.629
219.779
216.297
243.252
221.776
248.522
248.211
222.879
244.441
241.331
248.957
249.02
229.372
247.806
244.743
230.703
222.017
260.32
216.047
253.821
234.84
241.56
216.348
249.132
247.266
249.493
239.925
247.471
242.724
235.884
235.77
216.161
219.873
243.416
244.023
216.149
245.42
231.466
216.328
246.027
216.101
235.189
247.492
248.92
239.347
251.914
216.062
240.463
223.014
236.248
244.274
247.499
237.942
216.071
226.781
250.17
228.379
231.722
244.623
237.552
246.658
250.454
216.272
225.322
245.066
241.766
244.345
254.294
245.183
216.257
237.942
251.838
251.403
244.947
251.914
216.021
216.228
235.654
243.183
244.242
216.335
229.184
223.891
251.365
246.681
246.434
244.375
252.362
249.594
216.084
246.855
255.784
216.057
231.407
252.796
228.759
240.618
252.671
260.32
216.089
245.024
257.784
248.271
245.551
216.061
251.027
232.177
248.299
251.282
253.284
240.604
249.015
243.288
254.796
263.421
226.498
252.128
237.223
253.821
216.328
248.455
253.336
251.271
216.077
253.56
253.15
228.485
249.834
232.664
242.876
238.16
249.648
254.794
216.3
249.596
250.569
225.832
250.176
216.061
224.05
216.109
254.281
254.784
255.276
221.566
242.882
249.189
227.727
252.288
238.16
216.037
216.08
242.207
216.727
254.597
230.301
247.498
224.196
241.456
254.888
251.799
216.227
252.377
252.415
263.421
216.16
253.961
218.254
216.367
216.356
254.217
216.388
231.132
216.363
256.571
255.849
240.02
216.042
251.412
256.601
216.08
254.589
216.213
230.769
251.572
257.208
257.25
216.074
256.911
254.589
232.859
257.058
257.208
252.07
216.109
255.886
216.056
230.715
246.653
256.995
216.228
244.098
252.855
239.242
219.334
258.678
216.403
251.803
232.175
258.794
256.099
236.423
258.199
244.069
244.618
253.944
257.959
259.242
242.992
216.228
230.2
259.272
253.874
254.545
248.616
259.393
245.141
241.076
259.239
240.051
260.32
260.1
255.216
232.655
228.645
259.671
240.534
255.216
246.114
243.859
227.44
247.322
216.058
243.859
216.228
255.749
249.286
242.936
242.09
260.991
261.241
228.094
261.837
236.471
250.559
225.269
259.314
249.56
244.24
258.948
230.87
262.382
216.118
227.619
261.287
262.174
260.442
263.421
262.015
262.088
261.693
225.554
262.563
216.411
258.076
246.786
218.353
260.783
228.559
220.522
249.374
258.631
)


// ************************************************************************* //
