/*--------------------------------*- C++ -*----------------------------------*\
  =========                 |
  \\      /  F ield         | OpenFOAM: The Open Source CFD Toolbox
   \\    /   O peration     | Website:  https://openfoam.org
    \\  /    A nd           | Version:  7
     \\/     M anipulation  |
\*---------------------------------------------------------------------------*/
FoamFile
{
    version     2.0;
    format      ascii;
    class       scalarField;
    location    "0.7/lagrangian/reactingCloud1";
    object      tTurb;
}
// * * * * * * * * * * * * * * * * * * * * * * * * * * * * * * * * * * * * * //


2581
(
0.004115
0.00401
0.003905
0.0038
0.003695
0.00359
0.0018505
0.00338
0.003275
0.00317
0.003065
0.00296
0.002855
0.00275
0.002645
0.00254
0.002435
0.00233
0.002225
0.00212
0.002015
0.00191
0.001805
0.0017
0.001595
0.00149
0.001385
0.00128
0.001175
1.05e-05
0.00106625
0.000965
0.00086
0.000755
0.00065
0.000545
0.00044
0.000335
0.00033125
0.00023
0.000125
2e-05
0.000957154
0.001745
0.00467742
0.0001655
0.01042
0.00337136
0.00509647
0.010105
0.01
0.0098
0.0097
0.0096
0.0095
0.0014305
0.0094
0.0092
0.0012305
0.009
0.00334512
0.0088
0.0087
0.0086
0.0085
0.0082
0.00050135
0.00102
0.000535
0.0030055
0.0081
0.0079
0.0077
0.0078
0.0076
0.006952
0.0073
0.0072
0.0071
0.007
0.0069
0.000600501
0.00221634
0.00116082
0.0066
0.0065
0.0063
0.0064
0.0062
0.0061
0.006
0.0059
0.005795
0.00569
0.005585
0.00547625
0.00548
0.005375
0.00527
0.00506
0.005165
0.004955
0.00485
0.004745
0.00484625
5.5e-05
0.004535
0.00443
0.004325
0.00422
0.000441985
0.011995
0.01168
0.0017035
0.011575
0.0008455
0.0001605
0.011365
0.01126
0.00181829
0.001012
0.011155
0.01084
0.010945
0.0108362
0.01105
0.000585
0.010735
0.01063
0.0018861
0.00176
0.00136651
0.0134612
0.013255
0.00284
0.01315
0.0008685
0.01294
0.0002135
0.01273
0.012625
0.00844723
0.01252
0.0014135
0.01462
0.002542
0.0011
0.0067035
0.00312645
0.002155
0.0027855
0.001847
0.00163
0.0017935
0.00111601
0.0066785
0.013465
0.004787
0.002522
0.01678
0.000486945
0.00269002
0.00499689
0.0003555
0.000222
0.01638
0.0033505
0.00461554
0.01076
0.00448695
0.00546785
0.01552
0.003902
0.01608
0.0045505
0.01567
0.00379113
0.001542
0.0029685
0.002322
0.015145
0.01504
0.000392796
0.00027071
0.00100248
0.00167006
0.000379323
0.004102
0.003017
0.01958
0.00772316
0.007532
0.01948
0.01938
0.0076012
0.0034435
0.01928
0.000632
0.0019185
0.0016355
0.01898
0.01858
0.01868
0.00307763
0.000336417
0.00460714
0.00559089
0.0013605
0.00598634
0.0053585
0.01728
0.00167071
0.01698
0.000398239
0.000157645
0.000635398
0.000418772
0.000833048
0.000618401
0.00452276
0.000128931
0.0054805
0.0009935
0.004637
0.004877
0.0133135
0.0020105
0.0110185
0.0016885
0.004267
0.000737
0.011535
0.003287
0.0075685
0.02292
0.0228112
0.000317
0.0104085
0.0107171
0.00324845
0.02208
0.02187
7.85e-05
0.0026835
0.01087
0.02145
0.021135
0.02124
0.003112
0.00447597
0.00376
0.008637
0.00928164
0.00239163
0.00260761
0.004632
0.00238564
0.0027905
0.0140783
0.004325
0.00838339
0.00149
0.00822719
0.0030085
0.000501433
0.00330569
9.959e-05
0.0014805
0.000240015
2.77098e-150
0.000830019
0.000653683
6.8123e-150
7.94905e-05
0.000324761
0.000516168
0.000192894
6.15345e-05
0.000977691
6.27446e-19
0.00146248
0.00183817
0.000733352
0.00181635
6.78453e-151
0.00355089
0.000325315
0.00089733
0.000382234
1.33562e-150
0.000400929
9.81892e-05
0.00170633
0.0014985
0.0062055
7.35e-05
0.005322
0.00497202
0.001337
0.00488571
0.0078785
0.00813238
0.0146979
0.0171521
0.008932
0.0069735
0.0006435
0.0055685
0.0050055
0.006925
0.00468
0.0011785
0.00138
0.001202
0.02756
0.0009485
0.0159866
0.004317
0.0026505
0.01569
0.02676
0.014912
0.002765
0.0142455
0.0009335
0.02656
0.02616
0.0150205
0.005607
0.000186401
0.000147
0.00898044
0.0025905
0.013507
0.0032455
0.003667
0.0057555
0.02544
0.0042905
0.02502
0.00600178
0.002102
0.0246
0.0046
0.004862
0.0016105
0.0178627
0.003442
0.0041335
0.023865
0.0007205
0.01229
0.02397
0.00114784
0.000531009
0.000111273
0.00266805
0.000339547
0.0004779
0.000128799
0.00109677
0.00050679
0.0061271
0.000109528
0.00108627
0.000416943
0.00160266
0.000223462
0.00279501
0.00219984
0.00113094
0.000398201
0.000806976
0.00288135
0.00178722
0.00022475
0.000398275
0.0117237
9.90763e-151
0.000148336
0.000312825
0.00163797
1.09374e-150
0.000262496
0.000423684
2.03e-150
0.00147463
0.000845692
0.000299508
0.00145073
6.83817e-151
0.000885965
0.000279949
0.00029076
5.4887e-151
0.000933576
0.00163645
0.000489597
0.000259408
0.000269183
0.003189
0.00244744
0.000464183
0.00187649
0.00246025
0.000151576
0.00107685
3.69545e-05
0.00192949
0.00267799
0.00264965
0.00155473
0.00318829
0.00151468
0.00158998
0.00104763
0.007882
0.0016005
0.011082
0.00137
0.0028135
0.0083366
0.011212
0.0110105
0.0030685
0.0086185
0.007292
0.001037
0.0071835
0.002442
0.0082605
0.00993705
0.000227
0.0097255
0.0217555
0.002707
0.011707
0.006997
0.0065535
0.0004255
0.004122
0.0042655
0.0103405
0.0044802
0.0033235
0.0018305
0.006435
0.00997054
0.003087
0.0078955
0.0095635
0.014412
0.0025085
0.0009255
0.005597
0.0085735
0.0075955
0.019877
0.0205985
0.0070405
0.0067655
0.0036805
0.0065305
0.0010655
0.0117485
0.0025535
0.0034405
0.0178105
0.0007955
0.00797866
0.00917741
0.0022655
0.0027735
0.0164855
0.008407
0.0270573
0.00679633
0.0073405
0.00779536
0.0069205
0.0073755
0.00693323
0.0049805
0.0030635
0.02986
0.0175656
0.02966
0.000226886
0.000866311
0.00041167
0.00284213
0.00233696
0.00458688
0.000304496
7.7004e-150
0.00019142
0.00583018
0.000298976
0.000141322
0.000940034
0.000329912
0.00237779
0.00340156
0.0010681
0.000636691
0.000605268
0.000181534
0.000428635
0.0021921
0.010888
0.000264187
0.00382333
8.69405e-05
1.59078e-150
0.00246857
0.0043473
0.00275958
0.000860087
0.0020363
0.00013109
1.27331e-05
0.00528213
0.00197773
0.00280637
0.000545568
0.00108013
0.00125997
0.00105883
1.95527e-150
0.000123429
0.00371057
0.000384443
0.00169629
0.00161377
0.00279128
0.00458334
0.000673388
0.000913196
0.000276565
0.00100026
0.000752197
0.00116742
6.28554e-05
0.000499708
0.000996718
0.00110044
0.000770118
9.94027e-05
0.00102846
0.000427888
0.00137816
0.000753568
0.000391796
0.00169364
6.07959e-05
0.00145093
0.000195831
0.000615081
0.00646926
0.00192734
0.00223625
0.00385476
0.00196274
0.000647127
0.00430879
0.00648071
1.0946e-05
0.00022426
0.00076836
9.46441e-05
0.00125799
0.000932018
0.000232453
0.00203884
0.00168862
0.000421181
0.000118129
0.00132546
0.00511065
0.00132656
0.000153121
0.0104721
0.000255331
0.00366511
0.000368068
3.67341e-151
2.24586e-151
0.0064415
0.0019683
0.0104222
0.00171797
8.57555e-151
3.7465e-151
0.000398754
0.00504912
6.24882e-151
0.00358169
1.95941e-151
0.000738793
0.00205036
6.47889e-152
0.000551033
0.00110582
0.01727
0.0070405
0.000161406
0.01499
0.008317
0.0053505
0.0032235
0.0099985
0.0101685
0.012582
0.0006755
0.0053455
0.0082535
0.00666044
0.0034805
0.0014455
0.0108455
0.000797
0.0122606
0.0127785
0.0069685
0.0150655
0.000597
0.0098735
0.016427
0.0106555
0.006512
0.012992
0.007912
0.0082255
0.013267
0.0113335
0.004205
0.0089755
0.001022
0.009317
0.0107605
0.00705152
0.0085135
0.006295
0.0051705
0.0061885
0.01111
0.0150685
0.00347
0.00556456
0.00738
2.55e-05
0.003917
0.007235
0.00763
0.004425
0.00966549
0.0069678
0.0089385
0.0039585
0.0080435
0.031425
0.0063835
0.0260535
0.00938513
0.0143555
0.00456
0.00887549
0.0086855
0.00479
0.0017205
0.0055355
0.0093035
0.010422
0.0081855
0.0128405
0.00506674
0.0065785
0.0057055
0.0085105
0.013275
0.0016835
0.0108175
0.0155579
0.0042585
0.0009255
0.0042835
0.008027
0.0251753
0.00411561
0.00064944
0.000517266
0.0075849
2.03502e-149
0.00513223
0.00475268
0.00359795
0.0018024
8.26746e-05
0.00146724
0.00193164
0.000595217
0.00256708
2.86715e-150
7.59076e-150
0.000147476
0.000229167
0.000389339
0.000340209
3.05976e-149
0.000146658
2.38118e-150
0.00312284
1.96271e-150
1.27969e-150
3.54544e-150
0.000222755
0.000123437
1.34054e-150
0.00126431
0.000408791
4.35096e-150
0.000186934
0.00069837
0.00134847
0.000736309
0.000831883
0.00631224
0.00471733
0.00225308
3.10719e-150
0.000243907
0.000150425
0.000214358
4.98197e-05
0.00697232
0.00209013
0.00340864
0.000377202
0.000385787
0.00138261
0.000261894
0.000643047
0.000175561
0.000200373
0.00558724
0.00567669
0.00175039
0.000190907
3.69077e-05
0.000872465
0.000259992
0.000139166
0.00243585
0.00131238
0.000359419
0.000175797
0.000138785
0.000303227
0.000134264
0.000340599
0.000615763
0.00608298
0.000917418
1.18924e-150
0.000961961
6.71959e-05
0.00794365
0.00132505
0.00645826
0.000280642
0.000388972
0.000182296
0.00157102
0.0108449
0.00191944
3.18534e-05
0.000593415
0.000200443
0.000212991
0.00424299
0.00140583
0.000252924
0.000658085
8.10464e-151
0.00140677
0.00182646
1.52961e-150
0.00202367
0.00210051
0.00167239
0.00424707
0.000668252
0.000107462
7.91608e-150
0.000322347
0.00746464
0.00100252
6.51777e-150
0.000214379
0.000903691
0.00740336
0.000395336
0.00200076
8.90528e-05
0.000429059
0.00038196
0.00156046
0.00110339
0.000586437
0.000942497
0.000199989
1.8185e-150
2.56889e-06
0.00026137
0.00403648
0.00161541
3.55559e-06
0.00139426
0.000215911
0.000901709
0.00329286
0.000794425
0.000170677
0.00299405
0.0035015
0.00177989
0.0123396
0.000185847
5.70447e-151
0.000205468
0.00232383
0.00674891
0.000696962
0.000674783
0.000928156
0.00468302
0.0109634
0.000178923
0.000536081
0.00259366
0.000379954
0.00019513
0.000882195
8.26982e-151
0.00212875
0.000342094
0.0147662
0.0032087
0.00848742
0.00227899
0.00753801
0.000178903
0.00727448
0.000110407
0.000347291
0.00274992
1.13253e-150
0.000159701
0.00119503
0.00803924
7.86066e-151
0.00426619
0.00473763
0.000133093
0.0119106
0.00151329
0.00334904
3.74979e-06
0.000192238
0.00783526
6.86123e-151
0.00126542
0.00119352
0.000106223
4.8832e-150
0.000496937
0.000142309
0.0022718
0.000980016
0.000387447
5.60276e-144
0.000487944
9.61819e-05
9.27207e-05
2.31729e-151
2.8805e-05
0.000235735
0.00118835
0.00588671
6.42862e-05
0.0050765
0.000689123
0.000524943
0.00869494
1.42762e-151
0.000158079
9.87373e-06
0.0012352
8.2575e-143
1.95139e-151
0.000124665
0.000673438
0.0083385
0.00106023
0.00112682
0.000695213
3.31089e-05
0.0022735
0.014822
0.0014783
0.0090355
0.0031483
6.45362e-96
0.010952
0.0081055
0.00302476
0.0032805
0.011042
0.0167155
0.0083055
0.001977
0.0009105
0.007827
0.010333
1.85e-05
0.0058835
0.011422
0.00957623
0.000546615
0.0073505
0.0041205
0.0154385
0.010281
0.0088005
0.0285005
0.00850518
0.009112
0.0075055
0.007302
0.000360765
0.0175355
0.0157785
0.0065235
0.0128985
0.0066755
0.0140935
0.001932
0.017372
0.0004105
0.000274306
0.0099635
0.015147
0.0161785
0.010977
0.012982
0.0075955
0.0017485
0.0080105
0.001612
0.0050635
0.015727
0.00426143
0.000322
0.00153112
0.008017
0.00231
0.0104255
0.009615
0.0005685
0.0182705
0.00469336
0.0112705
0.0113421
0.007375
0.0001885
8.27755e-95
0.0055505
0.0007585
0.014615
0.0035055
0.003497
0.00294719
0.0019855
0.0103755
0.009917
0.0079005
0.011365
0.0105355
0.01167
0.0195655
0.0043935
0.010022
0.0008505
0.003215
0.0122135
0.0022655
0.000257
0.0063635
0.004955
0.0003355
0.013647
0.0023185
0.0150435
0.005932
0.0031655
0.0175755
7.86228e-153
0.0143171
0.004617
0.012832
0.0214005
0.0116235
0.0133805
0.0102
0.0093905
0.0061755
0.0035335
0.000247
0.003722
0.0073585
0.0038785
0.003832
0.0066135
0.013017
0.0119405
0.0104405
0.0155664
0.012517
0.012792
0.00806
0.007012
0.017002
0.010435
0.0126505
0.014227
0.00686192
0.0130335
0.010197
7.12772e-05
7.6801e-05
0.000168759
0.00941534
6.13739e-05
0.000122314
0.000929094
0.000397713
0.000695283
0.000512149
1.93463e-149
3.00173e-05
1.37632e-07
8.39602e-05
1.2557e-150
0.00309547
0.000593261
3.52377e-149
0.00287841
2.90866e-05
1.29072e-150
0.000156636
0.000124258
0.000135051
0.0193616
3.29862e-05
2.67555e-150
1.57404e-150
7.39972e-05
0.000204339
5.31433e-05
0.00100989
0.00323746
0.000966718
0.015869
0.00228755
0.000277616
0.000298325
0.00154024
0.000274815
0.0170118
0.00333288
0.000105055
0.000389062
5.3763e-05
1.63349e-150
2.6902e-20
0.000320875
0.0176
2.81022e-150
0.000503958
6.86552e-05
0.000211319
0.000469126
0.0111934
1.18369e-150
5.05322e-150
0.00380423
0.0114219
1.00688e-150
7.19257e-05
0.00075925
1.21589e-150
4.88636e-05
2.02142e-150
0.00535091
0.000834099
2.6619e-05
0.000491919
4.48864e-150
0.000461758
0.0116636
1.24796e-150
0.000274218
0.000176099
0.0128804
0.0182507
0.00347562
8.02749e-144
1.26879e-05
0.00308764
0.000760839
0.00179609
0.00155901
1.05162e-150
0.000454541
0.00699448
0.000355615
0.00172513
0.000285219
0.000838487
0.000154788
1.10504e-150
2.32688e-150
0.000153922
1.51777e-150
1.08081e-150
0.000294408
0.00166606
8.2694e-151
0.00253472
1.06568e-150
0.000263048
9.62925e-151
1.0188e-150
0.0127319
0.00120425
0.0168068
9.49666e-151
1.6285e-150
0.000596344
2.17399e-05
0.00318552
0.0238796
0.000988631
7.13225e-05
0.0006735
2.50078e-150
0.00194144
0.00326239
4.25175e-149
0.000572675
0.00345792
8.0402e-151
5.74567e-42
1.65644e-150
0.00411482
0.000841022
0.00123802
0.000368763
0.00046486
0.00173243
1.02729e-150
8.60681e-151
0.000393786
1.29084e-150
0.00155308
7.34477e-05
1.42502e-149
0.00121278
8.39948e-151
1.08073e-150
0.00352779
0.000264565
0.000273581
0.00235292
0.00762856
0.00319578
8.91228e-151
0.000149864
6.77144e-151
7.01314e-05
0.00852581
5.52199e-151
5.9391e-151
0.00034447
0.0056931
0.00305466
0.000308938
5.5891e-151
0.00298237
0.000453331
6.97517e-05
0.00330853
0.000571442
0.000210992
8.10899e-05
0.00138045
6.6801e-05
1.01697e-150
7.54783e-151
0.0191655
0.000167076
0.00112279
1.59906e-149
0.000115054
0.00108177
0.00447561
0.0023814
4.40652e-151
0.00987445
0.00414861
0.000212148
7.14163e-150
0.00101683
0.0124928
0.000154532
1.43073e-150
6.0263e-151
2.72603e-150
0.000394041
4.40689e-151
5.37082e-05
0.0211325
3.01154e-11
5.97284e-150
5.41029e-151
0.00404889
0.000118518
0.00998815
8.37586e-151
8.62673e-151
0.000213873
0.000635773
0.00254212
0.000202951
0.000103181
8.25306e-128
0.00395355
4.00757e-151
2.87289e-151
0.000280747
0.00138092
0.000821113
2.96427e-151
0.00393629
3.46859e-150
0.000368224
0.0011279
6.85201e-151
5.21762e-05
0.0178318
2.39946e-151
7.67559e-05
0.000755571
3.18903e-151
0.00723695
0.000606387
0.000780455
8.24976e-05
0.000980717
0.00075174
2.09812e-151
0.000707927
0.00833841
7.0263e-151
0.000787774
0.00068179
0.000626541
0.000293221
2.78441e-151
1.72237e-151
0.00185053
0.0152666
1.08384e-151
1.55487e-150
4.0856e-151
0.00293249
0.000851519
0.00311875
1.11213e-151
0.000121752
9.95258e-152
0.01746
0.000727382
0.000736401
0.0183279
0.000130083
2.4766e-151
0.0674405
0.000318842
5.54986e-05
0.00229305
0.000258705
6.07708e-151
6.93509e-05
0.001202
0.0314805
0.0275085
0.00587
0.01719
0.007337
0.0114518
0.0017777
0.0182635
0.013637
0.032137
4.09224e-05
0.0182305
0.025765
0.025302
0.00137534
0.0231055
0.0202455
0.0149085
0.025597
0.0120505
0.000416071
0.0117785
0.016147
0.019507
0.0075885
0.024837
0.0173055
0.0244922
0.0209437
0.0072755
0.013737
0.0198885
0.01898
0.0139855
0.0169285
0.0089735
0.020977
0.0061235
0.0029105
0.012637
0.0214074
0.000621826
0.006465
0.0062855
0.0051235
0.000396747
0.0053005
0.0185505
0.0168905
0.005442
0.006595
0.00692
0.0175555
0.0146205
0.021967
0.0176805
0.0167305
0.0081555
1.55e-05
0.0083235
0.0176463
0.0058455
0.021172
0.021905
0.00152
0.00884702
0.020437
0.00562
3.07238e-152
0.015345
0.00357171
0.00022119
0.01402
0.018782
0.011502
0.0198855
0.0089905
0.008847
0.019212
0.0050085
0.0131885
0.0203435
0.0168085
0.017122
0.0046205
0.01501
0.002952
0.0132935
0.0043855
0.023757
0.013607
0.0185605
0.0037205
0.003937
0.0105155
0.009012
0.018382
0.00935247
0.0166475
0.012287
0.0007535
0.0022185
0.0052935
0.018395
0.0084935
0.015865
0.012612
0.01134
0.0182572
0.0002735
0.0133735
0.0103705
0.00656483
0.0210285
0.0225255
0.003622
0.0166305
0.016922
0.012432
0.0147385
0.0182035
0.0080285
0.00111
0.0015155
0.000952
0.00193
0.01316
0.0018453
0.0128961
0.000223192
1.46396e-150
2.05682e-150
2.67863e-150
1.61427e-150
0.00142401
0.000336655
0.00442278
0.000439988
0.000293622
3.01033e-150
0.00107788
0.000843972
0.000198192
1.07917e-150
1.02563e-150
0.00438073
6.3877e-150
0.000175985
8.79719e-05
0.0078548
8.28032e-05
0.0267242
7.27788e-150
0.00020686
0.000423238
0.00534479
2.06476e-150
0.000214026
7.65688e-05
3.38256e-150
9.47158e-151
0.000912792
0.0048991
0.0016937
5.04784e-150
0.000824842
0.000325817
0.000126139
5.33696e-05
0.00553628
0.00633448
2.73825e-150
0.027157
0.000125759
1.07885e-150
0.000349431
0.000583934
0.0267866
1.35064e-150
0.000204952
7.24498e-06
0.000824986
8.86526e-151
0.000126141
0.00126961
0.000191442
0.00214938
0.00667533
0.000613374
1.09351e-150
0.00135176
0.0007553
0.001523
0.000231016
2.05915e-150
1.54539e-150
0.00385566
8.52308e-151
0.000364423
0.000363423
0.0136403
0.00114685
2.21304e-05
0.000504892
0.00120401
2.5277e-150
0.000107858
0.0207215
0.00285769
3.09715e-05
2.17343e-150
0.000156508
0.00166729
0.00134024
0.000462179
6.18088e-151
6.72498e-151
1.70729e-150
0.000176716
7.52507e-151
8.59835e-151
0.000631106
0.000204521
0.00227981
0.00031897
8.78237e-151
0.000101431
2.96023e-150
7.64478e-151
0.000137751
1.0585e-05
0.000201747
0.00138575
0.00736431
0.000793088
0.0108744
0.000253614
5.981e-05
0.000540108
9.89018e-06
0.00378509
0.0148756
0.0286931
0.000697176
1.45385e-150
0.0107771
0.0306878
9.6754e-05
0.00629887
0.00439186
0.00056598
0.000753329
0.000671515
0.0296841
0.000105896
0.000852669
4.78336e-151
0.000908369
0.000610148
0.000383813
0.00919433
0.00177378
5.86113e-151
0.00346669
0.000434088
0.0255679
0.00315752
0.000409792
0.00658008
0.00131844
1.39974e-150
0.000178988
0.000405434
0.000361654
0.0018429
0.00315811
0.000796493
8.11922e-151
0.0266476
0.00377814
3.64478e-151
0.000233741
4.90261e-05
7.38929e-05
3.47196e-151
0.00392163
0.000442683
0.000132111
2.0398e-151
3.00327e-151
0.0240146
2.59133e-151
1.89777e-05
0.000260443
4.29034e-142
7.94938e-05
0.000483234
0.000611187
0.000131312
0.000398217
8.35378e-05
8.93586e-05
0.0254915
0.00819893
0.0101708
0.00299216
2.02405e-06
0.000573016
0.00017214
8.39274e-05
7.26773e-152
0.00193483
8.15037e-05
0.0013405
1.00604e-151
4.33232e-06
0.0194122
0.059572
1.96009e-152
0.0280105
0.056922
0.0301955
0.0361905
0.000119883
0.010622
0.000242
0.045887
0.00119964
0.0311885
0.031517
0.0173946
0.002662
0.02349
0.00175337
0.0265935
0.0035005
0.0224285
0.0364303
0.0031605
0.0281435
0.033112
0.0071435
0.03526
0.029585
0.0324535
0.033557
0.0050755
0.02466
0.0233055
0.0296755
0.0199585
0.026457
0.0213001
0.0030205
0.0029337
0.0262835
0.000502792
0.0299735
0.0282383
0.0106371
0.03333
0.0225905
0.0270055
0.00396407
0.0243305
0.0340655
0.042647
0.032502
0.034645
0.00465204
0.0194555
0.010757
0.008462
3.1223e-151
0.0418222
0.0127405
0.0109785
0.0154285
0.0227185
0.0317885
0.0196005
0.009847
0.0072855
0.0289512
0.006205
0.0270105
0.034685
0.0242685
0.0565855
0.0030505
0.0317635
0.029602
0.0205105
0.015677
0.011322
0.029901
0.00953738
0.0015385
0.023782
0.0143882
0.0221655
0.023045
0.016892
0.020052
0.0161735
0.0277085
0.02858
0.0105755
0.011572
0.012177
0.0213155
0.0281152
0.02113
0.0261905
0.028545
0.0049705
0.0151
0.023735
0.0207785
0.015766
0.022987
0.0261985
0.0238485
0.0224485
0.0235135
0.0189255
0.019107
0.0140205
0.0233785
0.0266005
0.0256876
0.016815
0.009252
0.013795
0.024517
0.0240435
0.0113105
0.0110355
0.023775
0.02158
0.0256955
0.0094035
0.0185098
0.02517
0.0211605
0.0147419
0.030397
0.0216055
0.024617
0.0234755
0.0262455
0.00944
0.0219985
0.0259105
0.00127181
4.07377e-150
0.00153516
0.00012568
3.27334e-149
0.000459234
2.49656e-150
9.20687e-05
1.16501e-150
0.00462944
0.000349314
1.36838e-150
0.000376669
0.000841848
1.1347e-150
0.00151831
1.13186e-150
0.00100312
3.85033e-150
0.00128699
0.0097028
1.17935e-150
9.35034e-151
0.00103758
0.00337845
0.00460866
0.00248907
0.000127389
9.82465e-05
9.51256e-05
0.000292657
0.000363172
0.00187108
0.000114199
0.00334341
0.000205402
0.00490475
0.000506699
0.00157255
0.00107021
0.0107162
0.00207689
0.000496193
0.00340194
0.00147893
0.000975943
0.000797313
0.00550761
0.00199566
0.00248454
0.000183242
0.00390676
0.0026431
0.00107711
4.07449e-05
0.000483116
0.0210582
0.00247326
0.00433786
0.0383551
1.95549e-150
0.00147337
0.00224242
0.00043527
0.013633
0.00375119
0.00297784
7.91587e-151
0.0005285
0.00695302
0.000969874
7.50374e-05
8.25676e-151
0.00181111
0.000177121
0.000767981
0.000305932
0.00957696
1.81871e-150
0.00614437
4.95434e-151
7.82503e-05
0.000313072
4.88615e-151
0.00452676
0.000349144
2.81294e-150
6.71248e-05
4.85458e-05
0.000933004
4.68528e-151
0.0015787
5.01544e-151
0.00255875
9.85917e-05
0.000304296
0.000334439
0.0247663
2.18915e-150
1.36329e-150
0.00243692
0.000289394
0.00578719
0.000306964
0.041577
0.00115115
0.0014532
0.0267682
0.00134417
6.28102e-05
2.67334e-151
0.000348288
0.0408302
0.000252541
0.0118687
0.000245377
0.0129513
9.39098e-05
0.000326562
0.0185015
4.46605e-05
0.00258459
0.000118744
0.000525405
0.000130438
0.0027389
1.46237e-151
0.000148954
0.00311941
8.36958e-05
0.00127049
0.00047536
0.0106049
0.00200309
8.38765e-05
0.000122031
0.0401042
9.02452e-103
0.00135615
0.0088905
0.0160877
0.0166905
0.0590905
0.070972
0.0361635
0.059077
0.0517905
0.05158
0.0470321
0.00235064
0.0238585
0.0269855
0.011882
0.0521555
0.0138305
0.069525
0.0171135
0.0475785
0.014142
0.04508
0.0474935
0.0127385
0.0510105
0.005072
0.009065
0.0434331
0.032372
0.043402
0.000106738
0.003902
0.0355344
0.0023455
0.0112805
0.028162
0.0158185
0.038062
0.0466931
0.0232885
0.02373
0.0459635
0.0553585
0.032105
0.0431336
0.00573
0.047735
0.045257
0.0153985
0.0007235
0.030677
0.018602
0.0112755
0.0320935
0.10579
0.0046035
0.013202
0.0180955
0.0293205
0.0121351
0.0138443
0.033985
0.0118855
0.0188435
0.0322236
0.0337421
0.02055
0.0659185
0.018082
0.0226435
0.0409285
0.012677
0.0294755
0.0124455
0.035377
0.0355411
0.012342
0.014767
0.0409651
0.0331171
0.0459185
0.0061235
0.0421185
0.0326785
0.0391685
0.034087
0.076232
0.005487
0.04123
0.0585605
0.031212
0.00460701
0.0634135
0.0367905
0.0201955
0.0012155
0.0139185
0.0364905
0.0348769
0.0495685
0.0386459
0.00431963
0.0392555
0.0316755
0.042259
0.0657885
0.0342825
0.0119005
0.0062935
0.0101485
0.0312555
0.0218371
0.0054755
0.0733005
0.023705
0.015775
0.0275585
0.024597
0.043637
0.0200609
0.000537
0.0121055
0.0233155
0.0123085
0.0599605
0.00052406
0.030082
0.0218985
0.017792
0.0170035
0.0201655
0.00010605
0.0203917
0.0279885
0.0401685
0.0056985
0.026442
0.0354955
0.0106235
0.0178285
0.035417
0.020772
0.0279555
0.02437
0.004072
0.0034905
0.0031755
0.00752682
0.007992
0.02515
0.0242255
0.0473655
0.0294735
0.0065605
0.00955054
0.0200935
0.0186185
0.0395055
0.0275905
0.0301555
0.0013655
0.0335155
0.0235285
0.0331605
0.0141785
0.033017
0.031707
0.0197935
0.0370985
0.104453
0.0202235
0.0366105
0.0189755
0.02378
0.036212
0.009667
0.00610204
0.0106735
0.0147705
0.0206755
0.0166955
0.005697
0.00578559
0.031142
0.034168
0.0109785
9.76652e-151
0.00485197
0.000108959
0.00137751
0.000226808
1.02274e-150
0.00219651
3.57077e-150
0.00014933
0.000404678
0.00116386
0.000133038
0.000266954
0.000420813
0.00251418
0.000450557
8.42334e-05
2.52396e-150
0.00197331
4.50751e-05
0.000363311
6.58281e-05
0.000991704
0.00586633
5.95089e-05
1.65814e-150
1.15426e-150
0.00112933
0.0106632
0.000575628
6.27318e-05
0.00232556
0.00500391
0.00470522
3.08886e-05
1.59455e-150
5.76651e-05
0.0632275
0.00271951
0.000240996
0.000260554
0.0306991
7.3711e-05
0.000918014
0.000696688
0.0863034
0.0174497
0.00661315
0.00322613
0.00103566
0.000141473
0.000954336
0.000143251
0.00358232
6.34292e-151
0.000864738
6.81444e-151
0.0139859
0.000691654
7.05441e-151
4.78046e-151
0.00528977
0.000808323
0.000110038
0.0101058
7.74584e-05
0.00131204
7.20137e-151
7.16095e-05
0.00121753
2.1512e-150
0.000633
4.70251e-151
9.67241e-05
0.000738515
0.000980676
0.00119889
0.000149461
0.00585583
0.0015737
0.00203518
0.0270895
0.000841166
0.0552829
0.00123375
0.00129326
0.000108933
0.0279327
0.000324385
4.8683e-151
0.00182677
0.0360464
0.000249451
5.79831e-151
0.0460947
0.000308787
6.16312e-05
0.00050525
0.00663387
0.000214535
0.00191455
0.00105913
0.0018463
3.8108e-05
0.000726239
0.0162866
0.00030928
7.7503e-05
0.00032292
0.000280691
0.00284048
0.000169033
0.0421379
0.00166112
0.00094734
0.00025221
0.000696819
0.000362797
0.000331955
0.00750084
0.137378
0.102577
0.000642112
6.70313e-05
0.096402
0.148865
0.103095
0.00343
0.043527
0.0994935
0.0501955
0.095642
0.079397
0.0385335
0.049997
0.0391355
0.0327085
3.64236e-56
0.00431627
0.000347561
0.080707
0.088032
0.072255
0.0491785
0.083257
0.0289155
0.0710885
0.0557691
0.0378455
0.0006435
0.0559405
0.00394266
0.07444
0.071002
0.0431155
0.0688235
0.0811606
0.0229335
0.0736885
0.00112696
0.0736335
0.04721
0.0559505
0.0235105
0.0781835
0.121718
0.0893435
0.031785
0.079115
0.076662
0.000554007
0.0617485
0.0606185
0.0785635
0.0576805
0.0466505
0.059152
0.0249699
0.145288
0.029197
0.0425855
0.020112
0.0501655
7.68872e-134
0.068057
0.058215
0.141873
0.033247
0.136607
0.0319455
0.012345
0.0766805
0.000114703
0.0158328
0.05308
0.07676
0.117112
0.000569314
0.0808855
0.001372
0.018842
0.0397535
0.0543835
0.0179955
0.070017
0.0100305
0.00530703
0.0163535
0.0565605
0.039007
0.005405
0.0192105
0.0937785
0.1491
0.0714685
0.019232
0.0683687
0.0726385
0.0670555
0.018347
0.0622235
0.042452
0.0190105
0.02289
0.0374685
0.0486805
0.0626071
0.0591735
0.0609805
0.0677455
0.0714755
0.02969
0.0111955
0.0018314
0.111025
0.0398483
0.071527
0.0117105
0.0730055
0.0511534
0.036547
0.0544185
0.071072
0.0564555
0.042642
0.035897
0.0014255
0.096902
0.0645816
0.044462
0.06897
0.079002
0.069692
0.026337
0.0598035
0.0705155
0.107825
0.0300405
0.059302
0.0154855
0.0318905
0.0028013
0.067912
0.0702335
0.01681
0.020587
0.0446855
0.0748085
0.071062
0.11293
0.031482
0.0207305
0.039167
0.0570285
0.0646967
0.0681024
0.040542
0.0590905
0.087475
0.0611835
0.0171605
0.0727485
0.0495505
1.08315e-144
0.0421185
0.060397
0.06475
0.0427085
0.0482985
0.00048
0.0152388
0.15989
0.0652405
0.02142
0.05162
0.0691904
0.0293355
0.0619785
0.024685
0.0728455
0.021592
0.0501456
0.0438416
0.052227
0.031052
0.103335
0.0407035
0.000292357
0.118928
0.0368735
0.0389905
0.046885
0.014937
0.031837
0.00107548
0.104218
0.034542
0.0527008
0.0590455
0.04704
0.123037
0.046022
0.028115
0.0622935
0.0467535
0.047107
0.034402
0.0486505
0.0366655
0.0012925
6.86616e-152
0.034065
0.0427385
0.0611855
0.00840706
0.0462855
0.017717
0.0441255
0.0156285
0.0863185
0.0377985
0.060576
0.063272
0.050822
0.026325
0.0025355
0.042992
0.0483235
0.023157
0.090465
0.0624485
0.0033985
0.0353755
0.0274785
0.10056
0.0626185
0.0644605
0.0597905
0.0668401
0.0229365
0.0225835
0.0630135
0.061055
0.0173005
0.024552
0.04147
0.135522
0.113458
0.036817
0.0486485
0.047065
0.0403355
0.049177
0.0622835
0.0321305
0.0355885
0.0045635
0.08303
0.030632
0.0144535
0.00185378
0.0737635
0.0599305
0.052892
0.07356
0.0480735
0.0391505
0.0785155
0.0469485
0.065277
0.046657
0.059462
0.049885
0.0857085
0.0314671
0.0200605
0.108058
0.035772
0.085485
0.0449035
0.054915
0.03311
0.054927
0.10948
0.054652
0.058822
0.041567
0.057422
0.0457785
0.0069835
0.062422
0.0547934
0.0824055
0.0509805
0.032267
0.0393105
0.0551255
0.050072
0.0342455
0.006397
0.0525635
0.0312328
0.0369055
0.042275
0.027192
0.00321702
0.0360405
8.7e-05
0.0486495
0.0397505
0.0322705
0.0114155
0.0354155
0.0277321
0.0227355
0.073182
0.037327
0.0188769
0.057232
0.0410435
0.0340285
0.0415335
0.003507
0.0205105
0.02607
0.032235
0.040217
0.050635
0.0446435
0.0257799
0.055585
0.0415635
0.049692
0.0324519
0.026452
0.0501435
0.048962
0.0495505
0.0839785
0.020347
0.07382
0.0472348
0.05237
0.050797
0.0108935
0.010037
0.0112635
0.034502
0.0366035
0.045735
0.021295
0.0548605
0.022687
0.0333121
0.0244885
0.0441455
0.0208435
0.0132215
0.0978355
0.047172
0.040835
0.018712
0.0400896
1.55001e-153
0.019945
0.0084435
0.0352535
0.0117455
0.018245
0.0434
0.023022
0.046025
0.0326005
0.033835
0.029817
0.0436735
0.0366805
0.048147
)


// ************************************************************************* //
