/*--------------------------------*- C++ -*----------------------------------*\
  =========                 |
  \\      /  F ield         | OpenFOAM: The Open Source CFD Toolbox
   \\    /   O peration     | Website:  https://openfoam.org
    \\  /    A nd           | Version:  7
     \\/     M anipulation  |
\*---------------------------------------------------------------------------*/
FoamFile
{
    version     2.0;
    format      ascii;
    class       vectorField;
    location    "0.7/lagrangian/reactingCloud1";
    object      U;
}
// * * * * * * * * * * * * * * * * * * * * * * * * * * * * * * * * * * * * * //


2581
(
(127.701 23.9362 0.000690869)
(133.952 19.4914 0.000577876)
(136.649 19.7463 -5.43377e-05)
(139.246 5.61834 -2.75522e-05)
(141.299 9.15632 -0.000818974)
(141.346 2.96214 -0.000287315)
(147.378 17.3443 12.695)
(144.008 5.39058 -0.000354295)
(150.101 12.6624 -0.000139703)
(155.153 15.7819 -0.000123162)
(145.774 0.731089 -3.1278e-08)
(150.263 6.64882 -0.000231815)
(154.189 7.82219 -4.96841e-05)
(149.922 4.21096 -0.000608522)
(155.084 5.66196 -0.00190808)
(156.468 4.8636 -0.0021572)
(157.192 3.44509 0.000409541)
(157.326 1.63919 0.000708339)
(151.133 1.63614 -5.93582e-05)
(153.87 2.39803 0.000115018)
(152.081 1.54649 -0.000173963)
(152.418 1.45315 -9.25425e-05)
(154.282 1.27679 1.26852e-05)
(154.094 1.11424 -0.000708019)
(153.269 1.05843 -0.000273996)
(154.549 -0.0476988 -6.38764e-05)
(152.636 0.415406 2.75881e-06)
(153.711 0.567476 4.31579e-06)
(154.023 0.140235 -2.43112e-05)
(150.406 10.6125 11.7288)
(153.4 0.471379 -5.77517e-06)
(153.561 0.345281 -2.71e-05)
(153.724 0.111137 -3.03482e-05)
(153.633 0.132199 -1.6999e-05)
(153.65 -0.037492 2.11631e-05)
(153.582 -0.234546 1.26784e-05)
(153.559 -0.144663 1.18262e-06)
(153.44 0.159362 9.0715e-06)
(153.475 0.0715511 3.64406e-05)
(153.366 0.0890441 3.70398e-07)
(153.41 0.182106 7.90773e-06)
(153.432 -0.27585 2.52133e-06)
(-2.69477 -1.5304 -2.18777)
(-6.16463 1.67983 -0.207488)
(98.2415 -28.2818 -5.88119)
(46.9384 0.475829 1.47437)
(139.141 -28.303 0.00446966)
(111.685 -26.8557 1.93166)
(112.56 -25.803 3.25293)
(123.099 -26.3517 0.0012381)
(150.894 -10.6102 0.00015067)
(139.645 -15.4992 0.00165498)
(117.223 -22.0112 -3.66646e-05)
(132.404 -16.109 -5.61332e-06)
(126.191 -17.2985 0.0020943)
(105.358 -17.1984 -2.27639)
(138.993 -3.54711 0.00026639)
(117.023 -15.8404 0.00297747)
(115.792 -8.89528 6.2367)
(114.575 -14.114 -0.000145095)
(98.979 -7.63363 1.6188)
(122.686 -9.35366 -3.46014e-05)
(116.013 -10.7716 0.00143428)
(107.12 -10.3887 -8.86499e-05)
(115.049 -9.09779 0.00163383)
(108.918 -7.0519 -5.18344e-05)
(74.0858 -5.43691 7.48347)
(72.3141 6.77446 4.42017)
(28.4458 12.3023 0.110272)
(94.8664 -1.32472 -0.244602)
(121.423 -3.03985 -1.07116e-05)
(118.416 -3.75601 -4.02292e-05)
(112.971 -3.7168 -0.000148308)
(118.939 -2.89113 -1.01035e-05)
(112.136 -3.04526 -9.25464e-05)
(108.578 -7.5397 -3.3273)
(113.755 -1.64398 -6.18253e-05)
(107.217 1.01395 -0.000193025)
(114.535 -0.750829 0.00026245)
(109.071 1.48563 -0.000136548)
(113.738 0.33019 0.00118287)
(41.8648 4.21956 -0.549755)
(94.892 11.1345 0.476627)
(106.256 10.9078 3.233)
(109.427 3.7674 -1.99016e-05)
(113.419 2.3475 0.000692253)
(109.66 4.92883 0.00051638)
(118.175 1.25706 1.66548e-05)
(113.456 4.03875 0.000237479)
(112.038 4.99777 0.000159002)
(116.384 4.01659 0.000754549)
(111.076 5.99548 0.000633369)
(117.082 4.95349 0.000100365)
(117.853 5.39627 1.2139e-05)
(121.456 3.72432 -2.78168e-05)
(114.727 7.93179 1.11819e-05)
(122.392 3.8361 -2.81898e-05)
(120.665 6.24196 -2.65946e-06)
(111.273 9.46885 0.00269865)
(114.01 11.2349 0.00283159)
(126.045 1.53308 -4.78154e-06)
(120.925 10.6182 0.000610455)
(113.559 13.517 0.00034992)
(119.059 13.9635 0.00112104)
(127.672 5.11462 0.000383348)
(110.045 15.4188 -7.83886)
(126.427 12.9915 -6.60535e-05)
(128.287 13.4491 0.00013813)
(131.373 11.4824 8.66244e-05)
(131.119 15.5524 0.000907848)
(291.07 -27.4335 5.46173)
(272.82 -22.3303 5.74533e-05)
(255.543 -12.1571 -0.000102702)
(224.171 -49.7098 -2.45385)
(246.509 -8.71483 -4.55094e-05)
(205.498 -48.8466 2.66544)
(210.606 -46.8495 -4.71838)
(203.297 -29.1935 3.00249e-05)
(194.877 -29.3549 0.000778594)
(156.162 -43.8706 3.16913)
(163.316 -46.777 2.56764)
(190.514 -27.2415 0.00182095)
(179.942 -20.2309 1.59955e-05)
(169.406 -29.5484 0.000557976)
(166.665 -28.0544 0.00270656)
(157.513 -35.8875 0.000739556)
(121.81 -25.3163 -1.10916)
(149.31 -31.6462 -5.45787e-05)
(145.109 -30.3547 8.01401e-05)
(401.494 -6.0672 0.238846)
(305.63 20.0662 -10.56)
(407.259 -0.11688 0.934377)
(402.391 -0.977201 -9.61915e-06)
(394.867 -1.33363 -0.000185681)
(392.454 -4.36482 0.0149473)
(389.205 -1.32127 -7.97018e-05)
(387.795 -3.46868 0.0269113)
(362.48 -6.16611 -0.000834099)
(348.528 -16.9466 -0.730045)
(347.427 -7.57623 6.18246e-06)
(342.434 -6.77045 -0.000698352)
(331.748 -20.0244 -6.18378)
(334.332 -7.46339 -5.58174e-05)
(400.1 1.6531 -16.5421)
(439.393 0.157305 2.73183e-05)
(441.347 0.0651127 -0.658576)
(402.268 1.73565 0.0517899)
(435.892 -7.86393 0.128455)
(433.058 -3.25503 -11.3471)
(427.645 1.94016 1.40324)
(426.058 2.16562 0.233212)
(422.696 -1.33224 -1.3362)
(415.061 3.10273 -0.778795)
(415.01 -0.447646 -0.419589)
(415.622 1.80249 -8.68706)
(396.163 -8.24255 -5.29994)
(408.274 -0.232766 -1.76225e-05)
(441.8 -0.0613538 0.151532)
(409.867 -4.95989 2.91933)
(442.973 -0.041484 -1.63698e-06)
(435.026 -0.770512 0.287196)
(374.31 25.6539 21.3446)
(439.934 5.77473 -4.24037)
(435.699 2.10903 -0.824601)
(347.212 1.70301 7.13976)
(442.546 -0.0335971 2.55404e-06)
(373.028 22.2464 18.3829)
(440.684 -4.84574 0.576344)
(453.75 -19.8223 1.62357)
(449.641 -4.85642 -2.32606)
(438.794 -0.91006 -0.123865)
(435.797 -13.721 -22.7275)
(355.919 10.1541 -2.80204)
(441.591 0.000217841 2.365e-05)
(441.462 0.106629 -1.61823)
(440.977 0.184023 8.58019e-05)
(434.721 4.9147 5.35422)
(391.545 12.3065 4.24603)
(440.391 -1.2291 1.10648)
(446.043 7.81502 2.51058)
(439.984 0.556579 -3.88228e-06)
(440.166 0.452032 -6.88003e-08)
(449.682 -0.30275 -4.44396)
(445.215 -0.065734 0.553234)
(446.781 -2.27091 -3.62487)
(444.598 -0.0479256 -0.322994)
(450.085 -1.5893 -2.08961)
(435.639 -4.11337 -3.94498)
(370.602 8.93643 1.56076)
(446.22 0.0243084 -3.39644e-09)
(445.027 -0.0316628 -0.328654)
(443.364 -1.01444 -1.02354)
(445.93 0.0357567 -1.21405e-06)
(446.105 0.0226022 6.67132e-08)
(446.308 -0.943013 -1.6723)
(368.158 14.6597 -2.176)
(445.42 0.0501416 -1.26413e-06)
(430.821 5.69655 -3.9037)
(417.601 -2.18365 12.0228)
(382.3 -7.08424 -3.60474)
(445.167 0.0441116 -2.93818e-07)
(445.598 0.00549694 -5.12905e-08)
(444.672 0.0337716 -1.80771e-07)
(416.961 0.204953 -0.708896)
(435.475 -3.98249 -0.848125)
(375.045 10.0584 -0.602206)
(443.203 0.363399 -0.413983)
(415.443 -9.00271 3.06837)
(442.264 0.0879408 -0.163585)
(438.449 1.39149 6.12385)
(443.304 -0.0424669 1.01989e-06)
(429.591 -0.661914 -0.368511)
(443.504 -0.0215598 3.4518e-07)
(449.256 -1.32736 10.3252)
(452.263 -4.01641 2.77538)
(446.878 1.49917 1.95206)
(442.262 -2.33126 3.37574)
(451.001 -0.0752807 -1.72686)
(449.224 0.763519 -2.97985)
(449.457 -0.393506 -0.733529)
(449.18 1.56618 -5.71004)
(356.762 16.5809 9.12643)
(415.147 1.02007 0.590533)
(397.485 3.60686 4.1725)
(380.594 5.43023 -9.23439)
(445.163 -10.0233 -14.5939)
(442.169 -7.70421 3.00126)
(451.33 -2.27894 -1.66397)
(409.098 10.4848 -4.4199)
(441.451 -2.11166 1.0602)
(451.367 3.9371 -6.38842)
(448.354 -3.96577 -3.54694)
(449.145 5.56862 2.59328)
(433.368 -8.94731 -2.60216)
(447.378 0.00719683 -1.90199e-07)
(447.486 0.00470921 3.14105e-08)
(448.66 -0.397097 -1.3805)
(451.13 -5.12168 2.87777)
(443.603 -3.33486 -1.8167)
(439.722 -2.85112 2.22554)
(446.975 0.0162661 -7.75652e-09)
(446.711 0.0228257 -3.07762e-08)
(446.91 2.15971 -0.801193)
(422.117 1.72042 19.9906)
(447.558 -14.3284 13.8134)
(446.673 0.0264499 1.54757e-06)
(447.158 0.00761952 -4.62831e-08)
(446.441 0.0355163 -4.46382e-07)
(412.615 0.520646 -1.55257)
(432.754 -0.557498 -1.17178)
(357.303 15.7883 -1.69684)
(443.814 -1.73117 -3.62112)
(431.232 -2.29779 -10.0899)
(437.509 -3.01223 -9.74453)
(342 1.50471 -3.04751)
(351.576 7.12716 -8.81127)
(439.939 -1.20997 4.60256)
(431.829 -15.2601 3.11642)
(442.992 -4.97986 -3.04929)
(377.613 -4.24074 -2.8616)
(442.201 -0.612671 -1.15916)
(439.228 -2.73655 -5.98146)
(439.527 -2.89804 -5.1836)
(416.513 3.20448 -0.757271)
(447.359 -1.16679 -5.10718)
(448.187 0.0595819 -1.43127)
(449.815 1.11911 -3.56403)
(445.157 0.339875 3.43757)
(448.717 -2.17633 3.31421)
(447.54 0.359062 2.81627)
(449.328 0.647851 0.833943)
(442.386 -2.64024 -2.29719)
(447.226 -0.375574 -5.3894)
(446.586 -6.54346 10.6775)
(446.195 3.01864 2.87317)
(448.479 1.23809 -3.57657)
(446.259 1.6746 -2.23169)
(449.095 0.947016 -1.06277)
(450.622 0.963416 2.04211)
(448.904 0.146693 -2.80205)
(446.406 1.23365 -0.31269)
(447.458 -1.29523 -1.47215)
(447.986 -0.803122 -0.755999)
(448.197 -4.55822 0.0722271)
(450.321 -3.57752 1.16434)
(447.939 0.495401 1.0011)
(447.243 0.579888 1.56656)
(441.782 -0.457516 -2.20148)
(451.457 -1.49207 -4.32354)
(447.072 -0.54557 2.81059)
(447.485 0.918727 -1.15002)
(447.44 1.81545 4.14328)
(448.044 2.58624 -3.96846)
(406.738 -3.48191 12.8484)
(446.857 -0.154815 -0.391916)
(384.05 0.441377 -0.465218)
(454.037 2.35887 3.48695)
(448.89 -0.270488 0.956317)
(402.999 4.52878 -20.4613)
(449.862 -12.0412 -5.7386)
(387.436 -1.86829 5.26657)
(449.721 1.2669 3.18103)
(451.378 -13.4538 -14.3415)
(445.516 -9.08508 0.71851)
(441.479 -3.67581 -0.330369)
(446.78 -0.31457 -0.828832)
(450.57 1.13889 -0.342714)
(448.88 -15.6284 0.281278)
(447.428 0.482855 1.48953)
(425.08 0.498742 -0.458223)
(414.473 -1.90308 0.322807)
(432.814 0.0474292 -3.64076)
(448.318 -0.436106 0.998334)
(447.738 -2.04634 -1.0952)
(447.95 0.00200607 1.43438e-09)
(409.475 11.3148 6.05238)
(445.077 -11.0028 -11.4317)
(416.481 -4.60102 4.95687)
(450.436 1.01692 -2.93907)
(435.521 -5.35003 -3.44418)
(447.859 0.00306284 1.05005e-08)
(445.393 -2.36206 0.799082)
(416.294 -4.55257 1.22885)
(447.749 -1.29855 0.332206)
(403.598 4.63141 13.4747)
(447.579 0.00611421 1.75807e-06)
(447.588 0.006529 5.77582e-08)
(450.733 -10.2874 -7.41375)
(405.931 1.45266 -2.21533)
(323.72 -2.65062 -6.38557)
(425.383 4.78655 5.34896)
(457.195 -9.15524 -1.98989)
(427.585 -6.1694 5.7223)
(453.655 -2.40372 3.70101)
(408.479 7.60102 5.42763)
(435.359 0.233767 0.891118)
(403.531 -3.52524 -1.2766)
(447.425 0.00722012 5.28017e-07)
(390.572 8.60157 -8.97292)
(447.713 0.0041621 4.714e-08)
(430.76 -0.416974 2.36721)
(396.066 8.58708 -14.6502)
(447.347 0.00899555 -1.44885e-06)
(423.51 0.597501 -0.902003)
(447.541 -0.944397 1.13305)
(436.113 -1.25888 -11.0526)
(444.398 -16.0795 -7.98675)
(399.648 -4.40726 3.59498)
(428.444 -5.94182 -2.08824)
(447.462 0.00634202 6.37581e-07)
(449.27 4.62404 1.17888)
(450.117 -5.82128 -3.40864)
(447.381 0.00704 -2.04765e-09)
(447.547 -1.25878 -0.793442)
(446.985 1.26925 0.989404)
(449.662 3.26669 -0.260977)
(447.998 0.116588 0.289181)
(450.633 1.22155 6.48295)
(450.253 -0.776917 -0.632359)
(449.536 -1.48901 -2.6943)
(448.729 -0.814347 0.963926)
(447.488 -0.346009 -1.27341)
(449.774 -0.134057 -1.08826)
(451.405 3.94999 -2.15071)
(443.475 -0.185426 -2.31949)
(448.174 0.0682854 3.45202)
(447.007 -0.0627094 0.724553)
(446.497 0.490657 -3.67777)
(446.403 0.152946 2.04431)
(448.202 -0.961159 0.899045)
(448.077 -0.513814 6.17756)
(451.869 -0.696307 4.42254)
(448.34 -2.19197 2.14907)
(444.127 -0.855777 2.40028)
(448.005 0.428183 0.387677)
(442.79 0.55235 -5.14487)
(449.143 0.596713 -4.79016)
(448.088 0.0855671 -0.0882017)
(447.878 0.017127 0.318782)
(445.532 -0.685089 -7.30922)
(448.27 0.353452 0.982849)
(448.305 0.738264 1.37704)
(447.013 0.211703 -1.13723)
(452.368 -0.762874 -9.35819)
(443.45 -0.182801 3.71565)
(449.73 0.0156677 -2.41587)
(445.772 0.771855 -1.74689)
(447.743 -0.181437 -3.75195)
(442.399 0.402772 -1.93113)
(448.176 -0.031495 -0.39158)
(448.22 -0.13215 -0.124626)
(453.082 0.0824047 -0.950183)
(449.299 3.65318 -2.92275)
(446.685 1.35231 6.41828)
(447.927 -1.31675 1.70439)
(448.112 0.946148 -1.20373)
(451.243 0.196746 3.47429)
(447.977 -0.995725 1.11433)
(446.391 -0.81526 -7.50805)
(447.821 1.90088 -3.27254)
(448.797 0.477114 2.51152)
(451.712 0.718345 2.42106)
(451.025 -0.161898 0.857659)
(452.039 -0.600717 1.70006)
(446.928 0.747571 -0.672607)
(448.611 1.7255 2.92906)
(448.614 1.25534 -0.637793)
(444.979 -1.01308 -2.91157)
(448.727 1.74978 -2.33398)
(447.135 0.0571853 2.00666)
(447.795 0.169369 -1.25824)
(446.578 0.00160204 3.74379)
(448.182 0.0560255 -0.0701485)
(447.816 0.152793 -0.493702)
(448.254 0.457393 -1.94674)
(449.002 -1.67251 -1.5737)
(399.652 -4.6301 -3.12627)
(404.357 -0.718294 0.0462532)
(396.797 3.64915 10.6579)
(440.641 1.62465 -0.564427)
(395.191 -12.5802 5.08758)
(372.389 18.5637 20.2995)
(446.378 -2.19769 -2.80647)
(455.95 -13.7978 5.95742)
(447.972 0.316922 0.873454)
(462.816 -10.8271 0.925691)
(416.621 -2.96219 -6.84588)
(425.759 -23.7411 7.41538)
(446.103 -4.10484 0.207504)
(421.163 -0.934929 0.98966)
(446.09 -0.0471728 -0.229716)
(449.555 0.046691 -1.0367)
(447.714 -3.5334 1.98893)
(432.463 -5.3416 -7.93053)
(450.006 -8.09833 -8.63076)
(448.912 -1.53545 2.26392)
(366.99 9.2493 8.34028)
(420.332 -0.583978 0.130342)
(445.123 -1.46007 2.08073)
(413.697 0.863961 -3.63117)
(390.585 11.3479 3.90028)
(413.184 8.72613 12.5622)
(391.428 4.88456 -3.61085)
(440.614 -0.494498 0.393291)
(446.224 -0.568316 5.41555)
(449.686 -1.77184 0.674462)
(441.18 -2.60911 2.06092)
(351.257 -1.68124 1.1024)
(354.679 2.69112 1.1806)
(444.875 -0.485755 0.865007)
(370.739 0.805856 -3.77496)
(449.156 -12.4667 1.43415)
(443.443 -0.226008 -2.40087)
(409.554 15.4986 -11.6437)
(448.453 -0.716108 1.07597)
(400.878 3.58237 4.59262)
(406.779 0.952224 4.43494)
(458.047 -3.26719 0.394218)
(445.476 -3.4382 -2.41125)
(398.232 11.9452 1.88087)
(443.248 -14.4699 -6.02091)
(415.61 -0.42889 -0.0286504)
(434.862 7.48152 1.79997)
(414.303 -3.89387 -3.20042)
(380.744 7.40003 14.3109)
(445.977 -4.05469 0.330536)
(419.096 -1.92157 -0.786786)
(446.598 -9.80405 -4.08627)
(436.533 -2.20938 -17.8613)
(450.119 -5.11944 -4.08332)
(436.468 -2.83077 1.96777)
(441.026 1.62531 -4.37295)
(446.635 -1.10215 0.12126)
(450.181 -13.9082 -7.16579)
(444.421 1.04714 -4.40954)
(440.858 -7.64139 -0.747298)
(435.922 -0.884199 0.910589)
(449.163 -0.429635 -4.2825)
(332.425 7.38599 -2.41776)
(445.721 2.73631 0.824555)
(390.243 2.6615 3.23603)
(432.635 -0.903135 -0.214679)
(402.518 1.18461 0.967794)
(437.879 2.24929 5.32558)
(447.834 0.00309238 1.56793e-07)
(449.828 -12.3018 -4.97898)
(447.809 0.00339704 8.00789e-08)
(452.653 -4.24258 4.14103)
(450.882 0.892779 -1.24145)
(446.424 -0.837196 4.98618)
(448.582 0.392397 -0.851789)
(446.81 -0.456593 3.16067)
(448.251 0.334032 -1.00509)
(446.044 -0.562105 -5.13135)
(447.973 0.117861 -0.625122)
(447.756 -0.665776 -2.08186)
(449.042 0.0296159 1.24321)
(448.98 0.16184 -2.06545)
(449.46 0.157913 -2.94173)
(449.424 0.209711 4.53031)
(447.915 -0.276087 -6.27394)
(448.609 -0.402352 1.09404)
(449.297 -0.150115 0.849383)
(443.379 -1.683 -2.40585)
(449.547 -0.164199 7.09633)
(446.636 -2.49865 -2.434)
(435.556 0.81222 -2.79936)
(441.268 -1.22964 3.26074)
(449.228 -0.332472 -1.06264)
(447.865 -0.0605951 -0.345975)
(445.85 0.351804 1.83468)
(449.285 0.600741 1.69567)
(448.179 0.617946 -1.35923)
(450.359 -0.450575 -0.705269)
(448.242 -0.0492484 -0.723804)
(450.089 1.52673 2.34039)
(449.501 0.0214795 1.46348)
(448.952 0.234577 0.953301)
(449.354 -0.409694 -0.491684)
(449.179 4.38192 -4.72819)
(445.504 2.88407 5.9652)
(447.982 0.0990537 -0.698952)
(448.165 0.659429 -4.58693)
(450.883 0.00909784 -0.486147)
(448.438 0.191402 0.302863)
(450.049 0.241911 -1.66704)
(447.854 -0.000293075 2.52865)
(450.469 -0.159975 -1.55695)
(446.771 -0.139807 -1.11978)
(447.472 1.01816 1.30874)
(446.085 -0.136329 -1.20965)
(449.569 1.49772 -1.81802)
(449.551 -0.116731 -1.73806)
(444.46 0.0789633 -1.28336)
(444.44 -0.133923 -2.93502)
(446.326 0.115388 1.53168)
(447.489 1.73085 3.16837)
(448.841 0.182856 -1.08996)
(443.93 -0.54498 -2.5102)
(446.363 0.0356192 -1.6349)
(444.828 1.98569 1.59088)
(447.383 0.208018 -0.309456)
(449.204 2.21526 6.38767)
(447.928 -0.222819 0.399133)
(453.133 0.51417 3.5834)
(450.561 0.956104 1.04488)
(447.438 -0.537871 2.99457)
(452.426 2.39871 -10.7684)
(448.256 -0.0931139 -1.01913)
(447.841 -1.05064 -0.386567)
(448.724 0.134103 0.745179)
(448.793 -0.316691 -1.51047)
(445.691 -0.815935 -5.71299)
(447.43 -1.08115 -0.760937)
(448.454 6.41987 -7.59262)
(447.736 -0.199665 -2.86695)
(446.103 1.55535 -3.65731)
(449.086 -0.4649 0.382278)
(447.78 0.110977 -0.111615)
(449.467 -0.656197 0.79271)
(446.513 0.00725272 1.35248)
(448.203 -0.752839 2.49178)
(451.434 0.512031 2.06293)
(449.561 0.797824 2.03878)
(447.417 0.735795 -1.9764)
(448.478 0.0818246 -0.356387)
(450.184 -0.489092 -1.85682)
(449.193 0.256051 -4.38989)
(446.445 -0.0773861 2.04028)
(448.345 3.13158 -4.75274)
(447.901 0.679258 -1.9384)
(447.671 -0.229008 1.02767)
(444.192 1.8688 10.2477)
(447.986 0.238075 -0.264307)
(447.513 0.223612 1.86228)
(448.094 0.620025 1.31955)
(448.648 1.03506 2.211)
(447.583 -0.803489 1.82119)
(446.819 -0.337019 -0.363989)
(453.076 -0.398447 -4.0703)
(446.668 -0.811106 -0.494497)
(448.14 0.0438684 0.386245)
(450.03 2.26041 -4.94458)
(447.829 -0.0324018 -0.7151)
(447.772 0.199259 1.29781)
(447.529 -0.6034 -2.25755)
(448.531 -2.40762 -1.98484)
(447.628 0.0198958 1.28548)
(449.552 -0.0947234 -1.17283)
(448.051 -0.0510166 -0.0574988)
(446.734 0.55498 1.08605)
(446.626 0.0565701 0.890657)
(451.132 0.254766 -0.626322)
(447.202 -0.721954 -0.68858)
(447.98 -0.202894 1.63579)
(447.892 -0.0657711 0.183465)
(448.232 0.144752 0.569266)
(447.55 0.682987 -0.255902)
(450.854 -0.535526 0.72459)
(448.229 -0.0966909 -0.39058)
(444.456 0.575597 0.591874)
(449.941 1.08213 -2.45745)
(447.631 1.66306 -1.05411)
(293.751 12.2676 8.16344)
(320.244 -0.844593 1.80578)
(447.319 -1.29565 -1.10586)
(343.156 -7.17113 -15.3909)
(341.3 9.56747 -2.51322)
(371.598 0.43885 0.798271)
(333.53 21.6815 -10.7317)
(401.599 -0.405776 -2.10614)
(339.726 5.75869 4.24017)
(388.02 -10.254 -0.0813727)
(437.243 12.1436 4.01105)
(428.9 -2.34011 -3.895)
(411.124 -4.7826 -7.24686)
(442.476 -2.10238 -0.430284)
(376.158 -1.36786 -2.66176)
(376.645 -3.05465 1.45384)
(356.608 9.81872 6.37684)
(425.191 10.5512 -1.75529)
(416.733 1.29837 0.63026)
(442.728 -1.88172 -1.55566)
(430.166 -8.08502 7.29644)
(357.32 11.1473 -0.80073)
(423.108 5.36127 3.43113)
(441.575 -1.84719 -5.33704)
(448.585 -6.45588 -4.64894)
(435.163 3.07747 1.5814)
(398.594 5.57018 -3.18013)
(367.44 -0.504617 5.04101)
(436.24 -2.26335 1.43837)
(418.588 3.68693 5.9343)
(455.271 -12.6042 0.491111)
(446.886 -1.20961 -1.00271)
(422.31 2.78261 2.42813)
(368.679 7.05591 -4.79614)
(414.044 6.0147 -4.46438)
(372.246 4.92586 -0.324016)
(410.362 -1.08116 -0.302034)
(437.164 -1.17274 -2.37195)
(448.518 -0.659031 -0.877219)
(421.761 -4.37035 4.68379)
(421.285 -0.59532 -0.153786)
(401.882 9.60869 1.5888)
(432.233 -4.16266 -0.274865)
(306.663 20.459 -0.236136)
(445.309 2.24637 -5.45296)
(446.056 -2.84084 -1.71512)
(451.13 4.00939 2.77883)
(398.608 -0.206206 1.2198)
(425.376 2.29947 4.81682)
(403.802 -7.91792 -3.47403)
(412.003 -3.06069 -24.3185)
(421.202 -3.461 0.17291)
(331.726 15.1363 -0.111494)
(449.754 -16.5996 -5.42642)
(447.522 -0.485904 -0.967227)
(434.287 -5.95932 0.722625)
(400.565 -3.35533 -0.849925)
(448.404 -7.63271 4.61492)
(406.13 -1.39489 -1.25256)
(447.391 -5.06177 -2.10916)
(436.457 -5.28899 6.12764)
(318.421 7.07701 -8.77088)
(447.441 -1.48205 -2.05559)
(402.864 4.46512 -2.60448)
(450.469 -9.21005 -1.05272)
(435.983 -1.87055 0.877905)
(435.507 -8.92449 -1.79918)
(342.821 0.677008 -0.416124)
(440.345 2.15881 0.306434)
(454.082 -9.13217 27.5289)
(435.925 5.06192 -4.2338)
(428.331 -14.4989 -0.432807)
(451.381 2.29765 -1.63482)
(387.219 1.14262 6.183)
(388.562 9.30207 -6.22163)
(421.896 -3.66399 2.74812)
(448.397 -8.30088 -4.45354)
(442.413 -2.402 2.78922)
(347.954 -0.555296 2.79001)
(447.011 -3.73413 -2.71881)
(415.007 5.17224 -0.893545)
(427.156 -10.6531 -12.4295)
(445.635 6.33729 -1.85534)
(446.991 -2.45395 0.393227)
(450.482 -7.2705 0.70162)
(431.098 0.605878 -4.95178)
(447.293 -1.06116 -0.777339)
(424.906 0.0467693 -5.85066)
(418.301 -0.357992 -2.46044)
(445.031 0.0628837 4.5413)
(448.187 -0.232586 -0.852194)
(446.202 -0.0506767 2.4059)
(419.092 -0.660156 3.76811)
(430.439 3.42744 3.00107)
(447.357 -1.15888 5.57287)
(446.081 -0.135921 5.08463)
(438.184 -0.998871 5.19181)
(404.55 3.45436 12.3335)
(446.724 0.5688 1.27378)
(441.54 0.604305 1.04644)
(412.811 0.0347366 -2.93879)
(442.825 1.32743 -1.69723)
(442.477 0.877866 4.79388)
(447.335 0.544852 -2.65459)
(446.267 -0.36125 -1.67335)
(413.114 -0.169461 -3.45844)
(447.009 1.44571 12.361)
(393.012 4.17257 -8.8958)
(423.595 2.36731 5.5059)
(409.418 7.50419 30.4859)
(440.326 0.947284 -4.58741)
(451.515 -1.07157 -5.77267)
(446.71 -1.20264 3.80229)
(406.149 2.97382 -4.68573)
(433.009 0.596869 0.279932)
(407.162 10.7656 10.2603)
(448.543 1.51036 -2.68378)
(420.764 -0.17104 2.13744)
(448.843 2.09437 3.04195)
(440.859 2.04511 -4.29145)
(448.751 -0.0426621 0.479701)
(449.606 1.40282 6.12119)
(426.755 -1.58838 3.85876)
(447.576 -0.487286 0.576555)
(422.482 0.219176 0.72003)
(445.409 -0.632458 -1.02811)
(421.412 -4.19205 16.7255)
(413.435 2.18134 1.33752)
(448.806 0.827374 -2.5133)
(450.991 25.949 9.31455)
(429.903 0.712596 -8.78023)
(447.418 -0.0574377 -0.375296)
(449.989 -4.31265 -6.95631)
(425.771 0.857043 -2.43009)
(405.123 -6.18102 1.56875)
(438.983 -5.41866 7.14538)
(447.11 -1.95881 4.67774)
(446.29 1.27003 -3.20789)
(448.156 -4.54315 -4.58414)
(417.825 2.85428 -2.68849)
(448.83 -4.83182 -5.14956)
(418.147 -0.81879 3.25581)
(413.864 -1.09024 4.88527)
(433.037 -3.35852 -5.90542)
(437.409 5.61399 -1.75956)
(430.146 3.67098 16.1459)
(449.885 1.10962 1.75013)
(447.895 1.78654 -2.48513)
(452.98 1.29727 -4.43913)
(424.891 -0.44683 -8.49552)
(441.207 -0.122995 -3.7743)
(427.108 -3.05145 -3.40022)
(442.943 -0.00580485 5.81447)
(444.802 -1.64641 -1.8861)
(419.981 -4.32199 5.19517)
(392.301 4.76369 -22.1682)
(447.401 0.539227 1.0228)
(447.007 1.13324 0.647935)
(431.511 -0.469186 -0.354825)
(447.722 0.348224 -1.11642)
(450.054 -0.554517 -1.92155)
(419.222 -1.20311 -18.7203)
(432.235 -0.690939 -4.76577)
(428.752 0.0731273 -0.402098)
(443.961 0.130218 -1.33531)
(402.591 -1.74087 3.26756)
(449.507 -4.17823 -3.66721)
(411.619 2.259 7.40252)
(401.895 5.08509 9.85245)
(430.875 -0.196656 -4.21655)
(431.692 0.0119222 -0.140736)
(438.228 -1.22582 -5.00117)
(453.056 4.31954 -2.0831)
(415.184 -0.525744 -6.20297)
(446.623 2.09961 -14.8739)
(401.097 -3.38059 2.72168)
(410.323 1.20678 -3.02068)
(418.55 -3.32597 -14.7359)
(448.289 0.355951 -2.49795)
(440.861 -3.82629 10.1366)
(426.33 7.88591 -15.1539)
(432.989 -0.74688 -1.96636)
(420.21 -4.71903 -4.65868)
(444.304 -1.1125 5.68817)
(450.653 0.139848 4.56048)
(447.468 0.965022 3.34511)
(437.326 0.451573 5.14481)
(424.87 -4.25095 -1.25982)
(443.813 -3.123 -3.94495)
(409.127 -3.67973 4.73342)
(440.044 0.0561463 0.81077)
(450.325 0.132456 -1.71201)
(448.589 -0.156 -0.234509)
(447.86 0.0326418 1.04379)
(428.462 1.57907 -12.4447)
(439.241 1.18238 -3.14235)
(446.557 0.059674 -2.08064)
(411.306 2.18227 1.94318)
(436.49 -0.380034 5.90786)
(448.732 0.816636 1.96952)
(413.944 1.45663 5.13247)
(425.486 0.549321 -2.31396)
(448.637 0.74404 -6.69624)
(414.242 1.34624 -8.37763)
(420.724 -9.71887 9.25264)
(439.822 -1.19764 -2.22273)
(446.005 -0.207686 1.86051)
(408.675 1.40894 -8.45881)
(412.909 0.141039 -2.53534)
(436.278 3.69566 -5.02216)
(442.523 1.39817 3.40028)
(437.815 -0.132633 -0.344277)
(432.836 0.376182 4.87907)
(427.947 3.17574 -19.5425)
(406.424 0.762025 -1.96429)
(444.237 1.82403 -2.45479)
(413.303 1.6569 -3.49432)
(412.569 0.486132 -0.451327)
(446.943 0.842253 1.87467)
(447.909 1.91514 3.66727)
(443.213 0.295444 3.06393)
(444.843 0.420655 2.21432)
(422.831 -4.38409 -4.31766)
(447.348 0.0306243 -0.111617)
(421.419 10.0391 9.52606)
(435.377 0.247868 0.269244)
(441.241 -3.42224 25.1432)
(447.802 0.201775 -0.19163)
(407.235 0.148191 2.76539)
(447.443 1.15839 5.14919)
(421.498 1.52611 5.61068)
(448.061 -0.27766 1.21655)
(440.386 0.0282197 -0.0568021)
(427.692 -0.0840197 -0.130982)
(450.905 6.83275 10.6662)
(431.433 6.09081 34.1454)
(420.718 2.05969 -3.75673)
(419.935 -0.812923 3.79081)
(442.87 0.157741 2.55301)
(447.806 -0.667186 4.02367)
(416.313 -0.0638844 -2.13279)
(428.705 -2.42702 0.769783)
(432.346 -12.1554 -6.69365)
(414.243 -0.0516245 0.308762)
(437.766 1.21085 -1.91865)
(417.486 -0.214976 0.138784)
(434.45 0.230558 -2.37777)
(426.33 0.298783 -0.235241)
(447.161 -1.11166 -2.84325)
(440.013 -0.0562881 0.0511961)
(439.081 0.852345 11.5164)
(407.013 -8.39673 -13.8667)
(430.69 -0.128286 2.43991)
(425.969 -2.0847 -6.95557)
(437.346 -4.43246 7.34605)
(446.087 0.542324 0.706185)
(445.864 -0.0251287 0.085572)
(431.855 0.440757 4.46997)
(428.366 -1.04978 1.58174)
(420.144 -0.507921 1.11282)
(449.749 0.300293 -3.05774)
(447.275 -0.00440879 0.524996)
(435.071 -0.246477 -0.84218)
(435.925 -0.217563 1.97851)
(438.78 6.5124 -4.78709)
(442.886 -2.4237 -9.94401)
(444.233 0.055769 -0.182428)
(422.585 -0.303443 1.61781)
(444.278 0.45925 -0.780899)
(449.309 -0.0933901 1.68262)
(412.909 2.26639 15.2024)
(420.027 0.155792 5.97224)
(439.545 -3.28027 -1.88737)
(423.64 8.08675 7.97103)
(447.977 0.24787 0.27307)
(445.396 1.88029 -7.01872)
(434.385 5.91728 -7.23032)
(448.141 0.0420483 2.33695)
(415.445 -0.544908 -7.15689)
(449.135 1.29268 4.45682)
(444.804 0.171067 5.50689)
(416.653 -0.208012 10.1659)
(448.683 -0.542369 4.14041)
(437.869 -1.04372 2.42679)
(436.15 -0.0851126 -5.54065)
(405.315 2.93421 3.07608)
(444.967 8.7242 -11.9934)
(427.203 2.72386 -1.87568)
(445.867 -0.660538 2.66479)
(438.104 2.62298 -3.78227)
(447.274 -0.123033 -0.34323)
(442.958 3.12809 8.25577)
(447.017 -0.0604381 -6.75014)
(415.754 -2.0604 4.13794)
(421.346 0.31599 -0.541543)
(447.463 0.00599558 -0.40965)
(442.364 2.10298 4.09322)
(429.084 4.56548 7.74921)
(442.727 -0.71748 5.77218)
(302.675 1.13988 -1.00405)
(445.911 -1.72515 2.36081)
(445.608 0.275383 -0.848127)
(446.862 -1.41581 -1.55805)
(437.202 8.98509 6.97266)
(324.047 6.722 -3.99658)
(346.425 -1.96497 -7.72465)
(437.791 1.9398 -1.98942)
(347.085 -11.5138 -16.1911)
(444.048 -0.149648 -0.140386)
(429.423 1.40505 -1.40755)
(380.452 -9.24233 7.89033)
(372.466 10.8536 1.04598)
(447.778 -0.0274018 -0.069969)
(372.249 2.10026 4.07487)
(392.824 -0.771035 1.74471)
(352.771 8.40314 3.0486)
(381.662 -23.4701 -26.3914)
(391.609 2.34796 -1.49559)
(340.442 0.517178 0.9573)
(411.81 -29.6706 2.59962)
(409.433 0.132756 0.621962)
(413.984 -1.77393 0.32011)
(353.777 10.4158 -3.23844)
(288.232 0.425022 -0.711853)
(409.247 -0.407805 -0.890532)
(446.293 -0.296519 0.91219)
(362.63 16.8837 -9.13124)
(412.631 -25.853 -12.2232)
(394.742 -3.76873 4.50069)
(408.209 -0.000628954 5.11345)
(404.698 -1.50955 3.29092)
(256.033 24.9409 5.79582)
(414.698 0.366868 0.322348)
(327.582 -0.515586 4.28425)
(395.67 5.79344 -3.56596)
(377.623 -0.374249 -0.170357)
(409.543 2.58307 -2.10524)
(349.128 3.89229 8.30624)
(342.728 9.89213 -1.72241)
(396.249 -1.50382 -6.96655)
(327.552 1.09257 -10.6676)
(425.519 -8.01034 13.3664)
(406.652 -0.916129 -2.77141)
(351.684 0.921325 0.961995)
(315.202 2.24492 3.36985)
(365.337 16.1002 13.447)
(449.784 0.165923 2.74256)
(400.284 2.45717 4.64806)
(343.572 12.7021 7.75222)
(355.024 -3.51943 1.39538)
(366.694 1.76516 -4.39062)
(378.075 0.782079 2.65162)
(415.902 -1.79885 -1.10192)
(382.194 -1.54179 -9.22866)
(339.842 7.56346 -2.91343)
(402.293 -19.0232 21.997)
(364.724 15.7946 -10.744)
(373.963 3.60083 1.90539)
(426.789 2.22534 -2.44179)
(392.627 17.4643 3.58729)
(427.13 1.06751 -13.6013)
(412.203 -1.56352 2.53984)
(377.377 -12.6052 -9.26373)
(421.397 -11.4838 -9.0247)
(316.302 -1.23807 -0.970275)
(434.17 -17.1838 8.81949)
(332.819 13.1504 -16.8125)
(431.142 -0.324739 -0.0255865)
(372.276 2.29135 -3.61865)
(433.736 0.743078 -0.147459)
(414.899 -1.19465 4.70859)
(420.235 -2.48028 -2.88374)
(447.9 0.10827 0.166606)
(397.542 2.44074 -0.142274)
(397.089 1.57966 -8.11696)
(431.435 -7.56708 -6.25141)
(370.325 23.2102 -9.94196)
(403.997 6.42177 -2.86991)
(422.983 4.35071 -4.89916)
(380.044 2.58924 3.80781)
(378.904 9.94895 0.0210895)
(424.104 -11.4619 -8.09494)
(383.436 0.48604 1.3608)
(438.623 1.03228 0.329274)
(378.222 2.46611 -17.9777)
(416.462 -0.746382 6.33842)
(324.042 -1.31909 -0.416705)
(341.958 -9.53046 -37.2933)
(399.435 -1.04765 0.219429)
(442.618 -7.12458 2.67302)
(406.326 1.70019 0.302347)
(381.399 4.48588 -4.593)
(391.779 -7.0758 -21.7779)
(422.571 0.509018 2.5435)
(400.363 -3.35094 -6.73991)
(393.854 9.86228 -4.92535)
(349.222 0.998866 4.37037)
(313.688 9.3697 1.49988)
(433.354 4.43598 -3.65531)
(443.182 -2.09544 -2.15667)
(423.364 -18.5138 9.21894)
(404.465 -0.223727 1.90298)
(337.402 9.64735 -4.66709)
(449.195 -1.84887 1.43946)
(441.292 2.19018 2.03812)
(423.775 -5.39456 9.75428)
(348.872 -0.692784 0.792118)
(449.43 -4.809 4.10367)
(402.636 -0.484514 9.91866)
(356.724 11.276 24.7161)
(408.3 3.59375 4.0628)
(355.217 14.4278 -7.72201)
(376.247 -0.953374 8.57706)
(429.326 -1.85488 -3.01621)
(428.069 -5.63742 -3.62567)
(436.167 -2.06659 0.963255)
(363.046 18.072 26.4473)
(413.786 -5.05438 4.98277)
(390.264 -0.15198 0.770951)
(419.074 1.92724 -0.791115)
(443.99 -0.244966 0.304099)
(457.468 -13.5678 -12.4099)
(415.859 0.466518 25.429)
(449.587 0.301296 -1.45963)
(416.597 -0.594371 0.0234118)
(429.514 4.45817 -0.0234999)
(369.806 -1.40506 0.454177)
(405.873 3.76541 2.17048)
(444.84 0.561404 -0.618492)
(397.826 5.49283 -8.96615)
(443.84 0.0165086 -0.374099)
(350.356 10.9265 -7.73586)
(447.943 0.148337 -0.111783)
(400.027 3.05448 -12.9009)
(369.213 -2.26912 -14.882)
(398.148 -3.19164 -6.0597)
(385.307 12.7264 -19.4992)
(424.536 -9.29049 29.1215)
(386.25 -1.75468 2.12323)
(401.186 1.18812 -14.1419)
(398.191 -9.06905 -13.9522)
(372.245 0.586683 -4.96854)
(356.699 -7.77476 10.2183)
(392.699 -2.89969 16.0834)
(414.01 5.38252 -6.03663)
(377.708 0.431794 -13.7911)
(371.286 -26.5777 28.1353)