/*--------------------------------*- C++ -*----------------------------------*\
  =========                 |
  \\      /  F ield         | OpenFOAM: The Open Source CFD Toolbox
   \\    /   O peration     | Website:  https://openfoam.org
    \\  /    A nd           | Version:  7
     \\/     M anipulation  |
\*---------------------------------------------------------------------------*/
FoamFile
{
    version     2.0;
    format      ascii;
    class       vectorField;
    location    "0.7/lagrangian/reactingCloud1";
    object      UTurb;
}
// * * * * * * * * * * * * * * * * * * * * * * * * * * * * * * * * * * * * * //


2581
(
(0 0 0)
(0 0 0)
(0 0 0)
(0 0 0)
(0 0 0)
(0 0 0)
(-0.824378 -4.23068 12.6949)
(0 0 0)
(0 0 0)
(0 0 0)
(0 0 0)
(0 0 0)
(0 0 0)
(0 0 0)
(0 0 0)
(0 0 0)
(0 0 0)
(0 0 0)
(0 0 0)
(0 0 0)
(0 0 0)
(0 0 0)
(0 0 0)
(0 0 0)
(0 0 0)
(0 0 0)
(0 0 0)
(0 0 0)
(0 0 0)
(2.55593 10.9296 11.7288)
(0 0 0)
(0 0 0)
(0 0 0)
(0 0 0)
(0 0 0)
(0 0 0)
(0 0 0)
(0 0 0)
(0 0 0)
(0 0 0)
(0 0 0)
(0 0 0)
(-3.31153 -2.90513 -2.18801)
(-0.202503 0.327236 -0.204323)
(-14.3887 -2.43103 -5.88318)
(-0.0686972 8.18146 1.48021)
(0 0 0)
(-7.21586 -1.33207 1.92994)
(-1.13873 -0.83276 3.25264)
(0 0 0)
(0 0 0)
(0 0 0)
(0 0 0)
(0 0 0)
(0 0 0)
(-2.97013 -0.93436 -2.278)
(0 0 0)
(0 0 0)
(11.0262 6.81657 6.23764)
(0 0 0)
(3.79904 3.61502 1.6168)
(0 0 0)
(0 0 0)
(0 0 0)
(0 0 0)
(0 0 0)
(-9.1967 -5.62121 7.48516)
(20.5732 3.0028 4.4202)
(11.2457 11.2414 0.104597)
(-0.556373 1.10823 -0.246668)
(0 0 0)
(0 0 0)
(0 0 0)
(0 0 0)
(0 0 0)
(3.6274 -6.46878 -3.32761)
(0 0 0)
(0 0 0)
(0 0 0)
(0 0 0)
(0 0 0)
(-0.237205 -0.460542 -0.556658)
(3.51316 6.1945 0.476838)
(1.46149 6.45406 3.23359)
(0 0 0)
(0 0 0)
(0 0 0)
(0 0 0)
(0 0 0)
(0 0 0)
(0 0 0)
(0 0 0)
(0 0 0)
(0 0 0)
(0 0 0)
(0 0 0)
(0 0 0)
(0 0 0)
(0 0 0)
(0 0 0)
(0 0 0)
(0 0 0)
(0 0 0)
(0 0 0)
(0 0 0)
(-2.89052 -1.67901 -7.84399)
(0 0 0)
(0 0 0)
(0 0 0)
(0 0 0)
(-5.0679 -2.90037 5.46241)
(0 0 0)
(0 0 0)
(0.608011 2.04823 -2.4561)
(0 0 0)
(1.72667 3.06475 2.66207)
(-0.332126 0.0351249 -4.72052)
(0 0 0)
(0 0 0)
(3.39173 0.863012 3.16647)
(1.32959 -2.00433 2.56707)
(0 0 0)
(0 0 0)
(0 0 0)
(0 0 0)
(0 0 0)
(-8.65507 10.9584 -1.10918)
(0 0 0)
(0 0 0)
(-5.79136 -5.46081 0.238866)
(-5.21819 23.3353 -10.56)
(0.337946 0.497645 0.934392)
(0 0 0)
(0 0 0)
(0.67157 -0.445721 0.014961)
(0 0 0)
(-0.0175888 0.0489248 0.0269306)
(0 0 0)
(-0.962265 -8.31948 -0.729359)
(0 0 0)
(0 0 0)
(-5.77482 -5.93798 -6.18406)
(0 0 0)
(2.61424 0.6653 -16.5423)
(0 0 0)
(3.25436 -1.13356 -0.658574)
(-0.0337341 0.0938343 0.051651)
(1.63502 -9.9744 0.128306)
(0.0615912 -5.50541 -11.3471)
(-1.0194 -0.0307428 1.40326)
(-0.105451 -0.198109 0.2333)
(-0.478105 -2.81311 -1.33618)
(-2.54164 1.14134 -0.778782)
(-3.61355 -1.46433 -0.41957)
(1.37278 0.349361 -8.68667)
(-15.9377 -8.46734 -5.2994)
(0 0 0)
(-0.63817 0.0312385 0.151532)
(0.451207 -4.48037 2.91933)
(0 0 0)
(-0.393931 -0.561829 0.287197)
(17.9952 25.7288 21.3446)
(-1.04782 5.91156 -4.24038)
(-0.423372 2.3112 -0.824611)
(-16.9866 2.32773 7.13974)
(0 0 0)
(15.4982 22.1588 18.3829)
(-1.0697 -4.77294 0.576316)
(11.4447 -19.7759 1.62357)
(7.88433 -4.78238 -2.32607)
(0.478766 -0.782059 -0.123917)
(-6.30957 -13.6759 -22.7275)
(4.99068 10.1613 -2.80205)
(0 0 0)
(2.82271 -0.0084305 -1.61826)
(0 0 0)
(-5.41536 4.60753 5.35422)
(10.3319 12.2494 4.24594)
(0.171015 -1.69814 1.10648)
(6.10914 7.24292 2.51057)
(0 0 0)
(0 0 0)
(3.6453 -3.08844 -3.20967)
(0.427389 -0.285071 0.478668)
(0.299131 -2.7533 -3.27355)
(-1.89498 -0.314563 -0.0875914)
(3.72112 -1.66126 -2.03287)
(2.13261 -4.05277 -3.94499)
(-11.1954 9.4066 1.56076)
(0 0 0)
(-0.101946 -0.107816 -0.328653)
(-1.90495 -1.08671 -1.02354)
(0 0 0)
(0 0 0)
(1.26393 -1.02025 -1.6723)
(9.64188 14.612 -2.17597)
(0 0 0)
(1.04545 5.79855 -3.90371)
(1.69379 -1.92823 12.0228)
(-20.7425 -6.70601 -3.60475)
(0 0 0)
(0 0 0)
(0 0 0)
(-0.50706 0.482204 -0.709054)
(-3.58685 -3.93281 -0.848116)
(17.652 10.3851 -0.602188)
(-0.405949 0.370308 -0.413983)
(-11.8618 -8.76231 3.0684)
(0.294007 0.151568 -0.163574)
(-4.4287 1.44584 6.12387)
(0 0 0)
(-2.92683 -0.447596 -0.368516)
(0 0 0)
(2.30355 -3.95448 -9.62982)
(4.98847 -4.72342 1.23431)
(-0.641945 -2.39306 0.57559)
(-5.44665 -2.44765 3.29232)
(3.50103 -1.25373 -1.18991)
(2.09136 -1.18354 2.83931)
(1.83547 -0.443716 -0.704292)
(1.53323 -5.71004 -1.56618)
(-5.10283 16.6297 9.12642)
(0.997855 1.42874 0.590528)
(4.59763 4.15083 4.1725)
(0.779226 5.96239 -9.2344)
(-1.75485 -10.035 -14.5939)
(-2.78848 -7.69268 3.00123)
(4.58241 -2.29261 -1.66398)
(0.0296478 10.928 -4.41991)
(5.78418 -1.96771 1.06012)
(4.45278 3.92369 -6.38842)
(2.28204 -3.9738 -3.54694)
(2.65692 5.55563 2.59328)
(-12.2536 -8.94934 -2.60216)
(0 0 0)
(0 0 0)
(1.81474 -0.412004 -1.3805)
(4.31788 -5.13978 2.87777)
(-2.47975 -3.35649 -1.8167)
(2.50449 -2.75109 2.22551)
(0 0 0)
(0 0 0)
(0.339963 2.13255 -0.801193)
(8.39087 2.079 19.9907)
(0.975343 -14.3574 13.8134)
(0 0 0)
(0 0 0)
(0 0 0)
(3.34654 0.899888 -1.55263)
(0.203464 -0.433439 -1.17187)
(-6.64338 16.0683 -1.6968)
(-2.27498 -1.77963 -3.62112)
(-14.5899 -2.35335 -10.0899)
(-2.15724 -2.99819 -9.74455)
(-6.83327 0.842871 -3.04752)
(-17.3676 7.52598 -8.81128)
(4.13212 -1.15907 4.60251)
(-1.99318 -15.1924 3.11641)
(-2.11322 -5.05301 -3.04929)
(-4.938 -3.76346 -2.86161)
(-2.35919 -0.681034 -1.15916)
(-1.21967 -2.76083 -5.98147)
(-5.9965 -2.96954 -5.1836)
(2.87975 3.49272 -0.757299)
(-0.625432 -2.84318 -4.40012)
(0.333228 -1.02377 -1.00198)
(1.79348 -3.73443 -0.0933752)
(-2.89389 -1.08769 3.27862)
(0.780512 -3.6019 1.65734)
(-0.337941 -1.57665 -2.36103)
(1.43646 -1.01591 0.288276)
(-5.60348 -2.71881 -2.20365)
(-0.57824 -1.12198 -5.28468)
(-1.35567 -9.80076 7.79558)
(-1.8519 -3.26533 2.58939)
(0.431261 -3.17081 -2.06656)
(-1.74882 -2.60682 -0.994588)
(1.20042 -1.22395 0.72683)
(2.78403 -1.0511 -1.99839)
(0.88824 0.0977685 2.80418)
(-1.63996 -1.2662 -0.128101)
(-0.381202 -1.65084 -1.0581)
(0.0102811 -0.99743 -0.470819)
(0.287131 -4.55879 0.00733579)
(2.52771 -3.66538 -0.848111)
(-0.0699455 -1.07191 0.314036)
(-0.800286 -0.827308 1.45118)
(-6.12599 -1.98052 -1.06461)
(3.70261 -4.3256 -1.48607)
(-0.953426 -0.931419 2.70731)
(-0.556554 -1.39489 -0.469992)
(-0.474315 -2.55166 3.73519)
(0.298342 -4.73679 0.00762223)
(1.00107 -2.97529 12.8484)
(-0.263407 -0.15087 -0.39193)
(-0.596086 0.977026 -0.465195)
(7.28766 2.36964 3.48695)
(0.835859 -0.270603 0.956317)
(-5.40036 5.01673 -20.4613)
(2.34967 -12.0446 -5.7386)
(4.2568 -1.33848 5.26661)
(1.67716 1.26634 3.18103)
(3.46775 -13.4566 -14.3415)
(-2.42685 -9.08775 0.71851)
(-6.05096 -3.6806 -0.330369)
(-0.275115 -0.311445 -0.828834)
(2.90868 1.1338 -0.342714)
(1.76457 -15.627 0.281273)
(0.199452 0.481962 1.48953)
(0.381103 0.826066 -0.458225)
(-0.0877959 -1.46939 0.322797)
(-3.5281 0.219446 -3.64076)
(0.308316 -0.436142 0.998334)
(0.156021 -2.05104 -1.0952)
(0 0 0)
(1.74449 11.8027 6.05239)
(-2.86871 -11.0049 -11.4317)
(14.0501 -4.08045 4.95687)
(3.04596 1.01068 -2.93907)
(-12.0037 -5.35641 -3.44418)
(0 0 0)
(-1.5908 -2.3641 0.79908)
(-0.0683672 -4.14393 1.22885)
(1.00448 -1.297 0.332203)
(-15.5189 5.01081 13.4747)
(0 0 0)
(0 0 0)
(3.33136 -10.2951 -7.41375)
(-0.271304 1.94363 -2.21536)
(-10.6786 -3.30553 -6.38557)
(16.6047 5.25741 5.34895)
(10.2184 -9.16154 -1.98989)
(-1.89334 -5.9182 5.72228)
(6.68161 -2.40982 3.70101)
(9.04408 8.13085 5.42763)
(-0.339124 0.400496 0.891097)
(-2.59662 -3.03625 -1.27663)
(0 0 0)
(-4.6344 9.14637 -8.97293)
(0 0 0)
(4.21877 -0.134318 2.36715)
(-10.8394 9.06599 -14.6502)
(0 0 0)
(-4.56545 0.857553 -0.902069)
(0.508989 -0.956005 1.13305)
(4.80917 -1.04276 -11.0526)
(-3.35867 -16.0801 -7.98675)
(-1.13262 -3.89193 3.59499)
(10.7206 -5.56686 -2.0883)
(0 0 0)
(2.21846 4.61425 1.17888)
(3.0884 -5.83142 -3.40865)
(0 0 0)
(-0.543008 -1.42872 -0.415739)
(-1.10383 -1.49147 0.604499)
(1.57335 -3.27608 -0.0819145)
(-0.09254 -0.136891 0.280142)
(2.56803 -2.18358 6.22518)
(2.15988 -1.00154 -0.0199877)
(1.44516 -2.97247 -0.800515)
(0.639349 -1.26124 0.0398144)
(-0.603272 -1.21649 -0.511331)
(1.68787 -0.302648 1.05389)
(3.32142 -4.45977 -0.581786)
(-4.61104 -2.16603 -0.850137)
(0.0859872 -0.650923 3.39079)
(-1.0784 -0.476614 0.549316)
(-1.59637 -3.63459 -0.74601)
(-1.68902 -0.589828 -1.96334)
(0.111048 -1.10267 0.718483)
(0.000929888 -1.15673 6.09001)
(3.77571 -0.926811 -4.38004)
(0.247367 -2.4046 1.90817)
(-3.95911 -0.939024 2.36895)
(-0.0826138 -0.572209 0.0788134)
(-5.29691 -1.58801 -4.92474)
(1.04974 -4.50351 -1.73783)
(-0.00308901 -0.113833 -0.0462954)
(-0.199308 -0.284255 0.145306)
(-2.55518 -7.23747 1.23002)
(0.184585 -0.602371 -0.85327)
(0.21364 -1.19346 1.00843)
(-1.07378 -0.852242 -0.782176)
(4.29236 -0.762874 -9.35819)
(-4.64151 -2.38213 -2.85744)
(1.64252 -0.929532 2.22994)
(-2.31448 -1.62247 -1.00746)
(-0.349726 -0.507751 3.72186)
(-5.69485 -1.71215 -0.979811)
(0.0912537 -0.342246 -0.192858)
(0.147943 -0.173408 -0.0540821)
(4.98977 -0.166329 0.939134)
(1.2115 -4.51184 -1.23753)
(-1.38786 -1.92889 -6.26916)
(-0.161887 -2.09591 -0.495902)
(0.0253815 -0.980715 -1.17574)
(3.15082 -1.88297 2.9264)
(-0.115094 -1.4856 0.161841)
(-1.70076 -3.91191 6.46006)
(-0.266947 -3.05592 -2.23254)
(0.705051 -0.757819 2.44153)
(3.62266 -1.16507 2.24057)
(2.93143 -0.545593 0.681261)
(3.94578 -1.14594 1.39207)
(-1.14758 -0.792202 -0.619417)
(0.517722 -3.2238 1.0788)
(0.521852 -1.33082 -0.459964)
(-3.10928 -2.14865 2.21063)
(0.642268 -1.91918 -2.1968)
(-0.954828 -0.731427 -1.86949)
(-0.297432 -0.854997 -0.938524)
(-1.51574 -2.40524 2.86894)
(0.0911539 -0.0756205 -0.0483861)
(-0.274964 -0.459669 -0.236203)
(0.165425 -1.45723 -1.36948)
(0.91593 -1.67251 -1.5737)
(5.20948 -4.05009 -3.12627)
(-0.319062 -0.186656 0.0462532)
(13.4019 4.22232 10.6579)
(-5.26122 1.66454 -0.564435)
(-17.2927 -12.1079 5.08758)
(18.1439 18.5581 20.2995)
(-0.609428 -2.17955 -2.80647)
(7.92508 -13.7985 5.95742)
(-0.040732 0.316275 0.873454)
(17.8259 -10.7713 0.925679)
(-5.65947 -2.58471 -6.8459)
(7.10582 -23.326 7.41537)
(-1.79896 -4.10467 0.207504)
(-1.12752 -0.557837 0.98966)
(-0.313846 -0.018188 -0.229717)
(1.46429 0.0466476 -1.0367)
(4.05873 -3.45465 1.98892)
(-6.68777 -5.18886 -7.93054)
(2.0869 -8.09822 -8.63076)
(0.914712 -1.53547 2.26392)
(-7.30146 9.70437 8.34029)
(0.0274914 -0.189277 0.130323)
(-2.52181 -1.45736 2.08073)
(-1.08148 1.31034 -3.63118)
(-6.36683 11.8934 3.90028)
(-1.28426 9.17474 12.5622)
(2.21498 5.43156 -3.61086)
(0.204197 -0.365524 0.39329)
(-1.64262 -0.569475 5.41555)
(1.71343 -1.77337 0.674462)
(3.71443 -2.43479 2.06092)
(1.45333 -1.96022 1.1024)
(-0.917438 2.58865 1.1806)
(-1.84796 -0.466622 0.865003)
(-3.99255 1.24709 -3.77493)
(1.22595 -12.4686 1.43415)
(-4.45482 -0.227817 -2.40088)
(2.86192 16.0013 -11.6438)
(0.871338 -0.714101 1.07597)
(6.36474 4.12855 4.59262)
(-5.16502 1.4177 4.43495)
(10.8708 -3.2583 0.394216)
(-1.64133 -3.42833 -2.41125)
(10.9185 12.4829 1.88089)
(1.76052 -14.3626 -6.02091)
(0.0440133 0.00534254 -0.0286519)
(2.10841 7.71901 1.79997)
(-2.46756 -3.47122 -3.20042)
(10.7686 7.74152 14.3109)
(-1.85088 -4.05637 0.330535)
(-0.915911 -1.53117 -0.786795)
(-1.1738 -9.80564 -4.08627)
(9.33878 -1.9004 -17.8613)
(2.34807 -5.12104 -4.08332)
(1.70022 -2.62244 1.96777)
(1.8292 1.76788 -4.37299)
(-1.10581 -1.10378 0.12126)
(2.12095 -13.9089 -7.16579)
(0.577835 1.11428 -4.40955)
(-7.01498 -7.64386 -0.747298)
(2.41455 -0.65898 0.910586)
(2.28964 -0.416954 -4.2825)
(-1.43798 6.80141 -2.41776)
(1.80375 2.79934 0.824513)
(-15.765 3.16799 3.23603)
(1.02139 -0.654318 -0.214735)
(0.28176 1.71117 0.967796)
(-0.726662 2.3967 5.32557)
(0 0 0)
(1.8024 -12.3031 -4.97898)
(0 0 0)
(4.58856 -4.65219 3.67487)
(2.84864 -1.47193 -0.414339)
(-1.60791 -2.17914 4.56226)
(0.506465 -0.567866 -0.746357)
(-1.23245 -0.566621 3.14281)
(0.246375 -0.756936 -0.740826)
(-1.9747 -2.12027 -4.7065)
(-0.104525 -0.124897 -0.623755)
(-0.260172 -1.21382 -1.8177)
(0.973027 -0.0788496 -1.24106)
(0.917285 -1.37334 -1.5512)
(1.38299 -2.84461 -0.766082)
(1.37831 -0.501567 -4.50734)
(-0.169346 -1.78569 -6.02079)
(0.590611 -1.1651 0.0367793)
(1.32776 -0.238077 0.829038)
(-4.70104 -2.28095 -1.84876)
(1.57069 -2.69639 -6.56615)
(-1.43206 -3.18044 -1.43262)
(-12.4864 -1.53685 -2.47674)
(-6.7501 -2.27073 2.64353)
(1.16284 -0.511947 -0.988767)
(-0.155096 -0.0905182 0.339378)
(-2.20886 -1.32429 1.3176)
(1.26871 -0.802456 1.61005)
(0.112504 -1.31281 -0.711256)
(2.34158 -0.627519 -0.553752)
(0.244808 -0.554872 -0.46737)
(2.00913 -2.28568 1.60748)
(1.44835 -0.283265 1.43597)
(0.933362 -0.417631 -0.888479)
(1.28116 -0.474136 -0.429881)
(1.13671 -4.41101 -4.70107)
(-2.49231 -5.37376 3.8761)
(-0.0971002 -0.263693 -0.654837)
(0.165266 -1.10688 -4.49995)
(2.80533 -0.264308 -0.408122)
(0.373943 -0.343888 0.100507)
(2.07697 -0.784153 -1.49086)
(-0.205885 -0.35221 2.504)
(2.41863 -0.375104 -1.51954)
(-1.21738 -0.599948 0.955782)
(-0.605344 -1.61641 -0.369664)
(-1.98521 -0.652808 -1.02746)
(1.54679 -1.53032 -1.79066)
(1.47586 -0.387187 1.69841)
(-3.61381 -0.233855 -1.26434)
(-3.63577 -0.236272 -2.92856)
(-1.75123 -0.980992 1.18195)
(-0.562726 -2.65553 2.44594)
(0.770794 -0.625611 -0.911071)
(-4.06895 -2.3858 -0.951877)
(-1.70798 -1.30172 -0.989786)
(-3.25083 -2.4014 0.840926)
(-0.588226 -0.316527 -0.197092)
(1.11998 -4.77009 4.79123)
(-0.12645 -0.441896 0.116978)
(5.06279 -1.52044 -3.28533)
(2.58055 -1.10903 0.880888)
(-0.591248 -1.62049 2.57503)
(4.44944 -9.6901 -5.27397)
(0.180857 -0.590204 -0.836036)
(-0.235184 -1.06349 -0.349665)
(0.665263 -0.660921 -0.369403)
(0.758589 -0.859464 -1.28185)
(-2.39245 -1.79559 -5.48451)
(-0.651819 -1.32182 -0.0262751)
(0.370816 -9.33045 -3.43588)
(-0.335715 -0.743036 2.77618)
(-1.96974 -3.92495 -0.624364)
(1.02628 -0.60081 0.0360079)
(-0.207208 -0.125973 -0.0943635)
(1.3941 -0.887746 0.520471)
(-1.56395 -0.134159 1.34583)
(0.137441 -1.33329 2.23564)
(3.3822 -0.588033 2.04257)
(1.48847 -0.842351 2.02079)
(-0.644974 -0.843639 -1.93283)
(0.408391 -0.143281 -0.336418)
(2.1346 -1.62405 1.02444)
(1.1387 -4.24072 -1.16317)
(-1.6282 -1.83779 0.889527)
(0.378756 -4.95961 -2.79242)
(-0.154384 -1.99878 -0.47292)
(-0.404116 -1.05098 0.0631276)
(-3.88673 -9.49123 4.29244)
(-0.0495998 -0.247056 -0.255932)
(-0.524451 -1.57578 1.01735)
(0.0241695 -0.933885 -1.1196)
(0.592194 -1.78293 1.66763)
(-0.483025 -1.56444 1.2308)
(-1.20367 -0.492139 -0.0621997)
(5.0144 -0.681406 -4.03259)
(-1.40734 -0.858351 -0.407004)
(0.122936 -0.0709755 -0.382194)
(1.94908 -4.25086 -3.38947)
(-0.222422 -0.251794 -0.670088)
(-0.280688 -0.964506 0.890917)
(-0.537443 -1.67994 1.62432)
(0.475198 -2.95901 0.990195)
(-0.437417 -0.335201 1.24116)
(1.48216 -0.336499 -1.12751)
(-0.0296328 -0.0750702 -0.0165307)
(-1.23478 -0.891003 0.832836)
(-1.45523 -0.26637 -0.851773)
(3.08866 -0.366925 0.567936)
(-0.768264 -0.977144 -0.201372)
(-0.0747449 -0.202894 1.63579)
(-0.134434 -0.068963 -0.182289)
(0.185456 -0.308943 0.499571)
(-0.476855 -0.67879 -0.266835)
(2.77826 -0.694913 0.573511)
(0.153026 -0.273925 0.294733)
(-3.55638 -0.65761 -0.499175)
(1.87366 -1.66177 -2.10916)
(-0.446647 -1.8765 -0.596408)
(1.93072 11.7361 8.16343)
(0.209648 -1.25112 1.8058)
(-0.693451 -1.29565 -1.10586)
(4.83493 -7.24912 -15.3909)
(-15.8872 9.91933 -2.5132)
(0.228664 1.06233 0.798248)
(-11.1672 21.7347 -10.7317)
(-0.403196 0.286986 -2.10613)
(-6.12879 5.81938 4.24017)
(1.84239 -9.54215 -0.0813862)
(20.0694 12.675 4.01105)
(1.42073 -1.96037 -3.89501)
(-2.90975 -4.22623 -7.24688)
(0.0995356 -1.98081 -0.430286)
(-0.320247 -0.72676 -2.66175)
(-8.98451 -2.3546 1.45384)
(-0.198951 10.1244 6.37684)
(-12.1456 10.7666 -1.75532)
(1.48637 1.83067 0.630237)
(-3.71836 -1.84029 -1.55567)
(-2.88546 -7.80298 7.29643)
(8.19423 11.2683 -0.800697)
(-0.617721 5.78138 3.43112)
(8.14633 -1.57223 -5.33705)
(0.571803 -6.45514 -4.64894)
(-2.83722 3.2736 1.58139)
(-0.104308 6.2367 -3.18014)
(-2.51449 0.0420681 5.04104)
(2.4484 -1.99987 1.43836)
(2.22656 4.18873 5.9343)
(7.50809 -12.5958 0.491109)
(0.520126 -1.16995 -1.00272)
(-0.755317 3.19528 2.42812)
(-1.86882 7.60619 -4.79601)
(-2.14396 6.50856 -4.46439)
(-2.33493 5.5265 -0.324016)
(0.0536009 -0.5269 -0.302039)
(1.79404 -0.940642 -2.37197)
(0.584966 -0.655904 -0.87722)
(8.84766 -3.84533 4.68379)
(-0.177889 -0.172532 -0.153787)
(3.43519 10.2473 1.58879)
(-5.68923 -3.97524 -0.274877)
(-14.2732 19.96 -0.23614)
(14.7479 2.54547 -5.453)
(-2.01598 -2.84084 -1.71512)
(3.15429 4.01114 2.77883)
(2.07424 0.433514 1.21981)
(-4.92734 2.59717 4.81679)
(-24.2442 -7.59194 -3.47408)
(2.37351 -2.52962 -24.3185)
(1.22026 -3.03637 0.172905)
(1.1619 14.7349 -0.11148)
(1.99119 -16.594 -5.42642)
(0.35465 -0.467659 -0.967229)
(6.45046 -5.6317 0.722616)
(-1.08643 -2.77113 -0.849923)
(0.4223 -7.63176 4.61492)
(-0.65553 -0.854855 -1.25256)
(-0.605867 -5.06125 -2.10916)
(-3.23739 -5.13723 6.12763)
(5.14875 6.50256 -8.77088)
(8.72869 -1.3145 -2.0556)
(-11.8216 4.93373 -2.60449)
(2.39071 -9.21006 -1.05272)
(2.1697 -1.62949 0.877901)
(0.427726 -8.70229 -1.79921)
(-0.278864 0.478432 -0.416131)
(-0.100172 2.29684 0.306434)
(26.9499 -8.80297 27.5289)
(-0.767567 5.25869 -4.23381)
(-19.74 -14.4991 -0.432807)
(3.30563 2.29749 -1.63482)
(8.97777 1.71524 6.183)
(-6.86671 9.89152 -6.22163)
(-2.90453 -3.30824 2.74812)
(0.612078 -8.2974 -4.45354)
(9.09898 -2.15674 2.7892)
(-0.497537 -0.644623 2.79)
(-0.325091 -3.72154 -2.71881)
(-2.96711 5.60164 -0.893548)
(0.660118 -10.3184 -12.4295)
(-2.12285 6.34118 -1.85534)
(-0.793516 -2.45073 0.393225)
(2.48781 -7.27059 0.70162)
(2.86613 -3.14114 -3.87563)
(-0.480033 -1.26303 -0.367524)
(14.2545 -2.70542 -5.18778)
(4.63186 -2.39333 -0.67371)
(-0.0429285 -0.333156 -4.5295)
(0.477052 -0.534887 -0.703012)
(-0.0227456 -0.176522 -2.39995)
(-2.6239 -3.54536 1.43695)
(2.5412 -3.82955 2.46746)
(3.38641 -4.2132 3.82738)
(-1.61761 -2.19228 4.58976)
(-0.370736 -1.17945 5.15379)
(-10.7301 -4.03299 12.1566)
(-0.956834 -1.29286 0.523999)
(-1.89262 -0.640245 1.02484)
(-0.482911 -0.57703 -2.88179)
(-4.21118 -2.03693 0.702548)
(0.102494 -2.97514 3.86011)
(-0.614412 -2.20348 -1.57747)
(-1.05961 -0.701264 -1.56167)
(-7.05038 -0.169461 -3.45844)
(4.84458 -4.11932 11.7438)
(-23.7708 -5.89563 -7.86048)
(-0.713391 -3.3283 -4.98412)
(-4.29104 -21.8769 22.519)
(2.843 -4.6746 -0.299621)
(6.5597 -2.80298 -5.159)
(-1.00367 -3.92182 0.723201)
(-10.5438 -4.68573 -2.97382)
(-0.407314 -0.619992 -0.224109)
(-14.6819 -14.1134 4.68856)
(0.709939 -1.75006 -2.53399)
(-2.94857 -0.753572 2.00749)
(1.24489 -2.96701 2.19925)
(0.347713 -4.62287 -1.10817)
(1.42598 -0.219255 0.42879)
(4.60292 -2.36185 -5.81881)
(4.35804 -1.91864 -3.70564)
(-0.332632 -0.562785 0.503127)
(-0.273995 -0.658726 0.36409)
(-2.29326 -1.01914 -0.646804)
(-6.99561 -7.57787 15.4884)
(-1.90186 -2.55634 0.110935)
(1.38541 -1.06687 -2.42137)
(35.4921 -26.4681 7.71681)
(5.46057 -7.87394 -3.94984)
(-0.489331 -0.293806 -0.240466)
(11.536 -6.06301 -5.49811)
(7.20957 -1.93209 -1.70496)
(-4.5486 -6.35952 0.471593)
(1.63854 -8.90407 1.06573)
(1.96242 -2.74133 4.26653)
(-1.48442 -3.37969 -0.693693)
(0.874883 -5.73737 -2.95586)
(0.776975 -3.56195 -1.63931)
(1.24516 -4.83182 -5.14956)
(0.316417 -1.15463 3.15239)
(0.0956269 -3.25612 3.8016)
(-2.52297 -5.97758 -3.22834)
(1.28495 -5.87723 -0.26665)
(-8.87312 -13.5951 9.45204)
(2.2381 -1.57867 1.34239)
(0.687974 -2.65826 -1.51699)
(5.04172 -3.72773 -2.73731)
(-0.535288 -1.91527 -8.28886)
(5.83553 -0.905029 -3.66625)
(2.10737 -3.16826 -3.29165)
(0.375515 -5.64316 1.40102)
(-0.913997 -2.44059 -0.558149)
(-3.60876 -4.67386 4.88102)
(-23.211 -6.95863 -21.5801)
(-0.112262 -0.682905 0.93302)
(-0.931117 -1.30182 0.0965369)
(0.0427079 -0.572943 -0.133314)
(-0.0109956 -0.393775 1.10118)
(2.56347 -1.73371 -0.997047)
(-2.73011 -1.52964 18.6964)
(0.125875 -4.26171 -2.24227)
(-0.634161 -0.124206 -0.389363)
(-2.18797 -0.719484 -1.13241)
(-7.61222 -2.07288 3.06769)
(2.44258 -4.53867 -3.21038)
(-12.741 -2.26664 7.40019)
(-14.1657 -10.4643 3.6644)
(-0.345099 -0.196656 -4.21655)
(0.0126566 -0.118665 -0.0765983)
(1.9416 -3.68977 -3.59165)
(5.22696 -4.68633 -1.01787)
(-2.52148 -1.59489 -6.01744)
(10.0953 -10.7991 -10.4413)
(-10.1986 -4.15399 1.25711)
(-4.19158 -3.23629 -0.327416)
(-3.99791 -12.7717 8.06802)
(0.778093 -1.74927 -1.81838)
(-3.38187 -6.1649 8.90983)
(7.78501 -16.6786 3.69509)
(1.84816 -1.8361 -1.02624)
(-2.01769 -5.18014 -4.13988)
(0.40532 -3.7307 -4.43563)
(3.79239 -0.811385 4.4899)
(0.21928 -3.48152 0.0056023)
(-0.603304 -1.33529 4.98899)
(-5.78101 -4.43353 -0.0392951)
(0.350821 -4.92813 -1.01458)
(-2.95591 -5.99429 -0.119154)
(-3.49055 -0.0995875 -0.806587)
(2.47179 -1.18364 -1.24399)
(1.19788 -0.179659 -0.216918)
(1.20276 -0.556621 0.883597)
(-1.16792 -1.69566 12.4293)
(-0.478806 -2.62318 -2.09555)
(-1.3694 -1.11401 -1.7583)
(-0.313814 -2.85477 0.623326)
(10.7925 -5.00294 3.1651)
(0.936284 -1.29734 1.69199)
(1.83175 -3.44048 4.07764)
(-13.7154 -1.48523 -1.85748)
(3.66783 -3.63585 5.6722)
(-13.8938 -8.45113 -0.758571)
(-1.7246 -13.1452 2.69646)
(-7.9431 -1.34977 -2.13377)
(-1.83018 -1.00226 1.58118)
(-10.0513 -7.31507 -4.47507)
(0.61575 -1.06574 -2.30478)
(-7.72177 -6.11347 1.22695)
(-4.29175 -2.71702 2.47682)
(0.412058 -0.144568 -0.339438)
(-1.26448 -3.78093 -3.10667)
(-4.46001 -4.37626 -19.3092)
(-5.11244 -2.09029 -0.264185)
(-3.61493 -3.00595 -0.563323)
(-5.72922 -3.49432 -1.6569)
(0.400093 -0.56784 -0.342898)
(-0.498705 -1.61522 1.27076)
(3.38512 -4.11765 0.401902)
(-4.01352 -3.07802 -0.027281)
(0.621618 -0.668142 2.15261)
(11.0949 -5.76122 -2.16121)
(-0.524649 -0.0966905 -0.063617)
(2.10764 -13.1241 4.3918)
(0.352742 -0.355655 -0.0862584)
(8.57509 -4.29764 25.0084)
(-0.0413073 -0.275232 -0.0410216)
(-2.80374 -2.02316 1.89108)
(0.150324 -1.3946 5.09029)
(3.86507 -5.70347 1.13101)
(1.1405 -0.444268 1.16606)
(-0.0244506 -0.0619417 -0.0136398)
(0.126741 -0.148557 -0.0463314)
(9.63528 -9.6115 8.25071)
(21.6922 -7.1438 33.9408)
(-2.85941 -3.342 -2.68075)
(3.16092 -3.54465 1.57051)
(-3.07845 -1.97271 1.62823)
(0.035049 -2.69802 3.05871)
(0.203625 -1.21518 1.75392)
(2.6673 -2.54518 0.0709862)
(1.91394 -13.8271 -1.1709)
(-0.0639478 -0.0783385 -0.303088)
(0.111408 -2.21708 -0.481611)
(-0.262345 -0.219689 0.131197)
(-1.77189 -1.0645 -2.13864)
(0.622237 -0.323244 -0.200307)
(-0.0140838 -1.5885 -2.60702)
(0.340171 -0.0748648 0.0135886)
(6.87823 -11.5391 0.449909)
(-11.4394 -8.87555 -13.5652)
(-0.424522 -0.550022 2.38056)
(-5.6159 -2.56481 -6.7932)
(-3.75543 -8.56875 0.433178)
(-1.15605 -0.857921 0.238292)
(-0.024777 -0.0686839 0.0568906)
(-6.67059 -2.06487 -3.98888)
(1.28092 -1.04978 1.58174)
(-2.65046 -0.58431 1.07468)
(3.3928 -1.82286 -2.47328)
(-0.689606 -0.0955064 0.516254)
(-0.379322 -0.494662 -0.724796)
(1.97831 -1.61589 1.1622)
(0.389038 -7.91515 -1.63647)
(0.418239 -6.53758 -7.87514)
(-0.287209 -0.0806235 -0.172887)
(-9.67531 -0.659595 -1.50809)
(-0.149056 -0.6466 -0.634524)
(1.52189 -1.57513 0.599066)
(-10.7911 -12.3589 9.13819)
(-9.64528 -0.26119 5.96856)
(-4.8248 -3.34414 -1.77174)
(1.8307 -8.51572 7.51102)
(0.636938 -0.336301 0.151355)
(0.298347 -3.52305 -6.35501)
(2.58156 -9.26734 -1.18666)
(0.451721 0.00125651 -2.33732)
(-2.38616 -5.01778 -5.13223)
(1.20291 -4.53614 0.978637)
(-0.0474323 -3.09847 4.55572)
(-5.73317 -4.48484 -9.12556)
(0.753482 -2.65404 3.22385)
(-1.67935 -1.81079 1.92347)
(-2.16995 -4.53251 -3.18785)
(-9.83585 -4.16356 0.858282)
(2.01403 -13.7477 -5.56359)
(2.94881 -3.18771 -0.88093)
(-0.584689 -0.660538 2.66479)
(-8.67601 -3.8715 -2.48938)
(0.486134 -0.123033 -0.34323)
(3.78239 -6.58642 -5.87893)
(-0.668842 -3.82473 -5.56232)
(-6.30665 -2.1323 -4.10135)
(1.24449 -0.530185 -0.334697)
(-0.200099 0.00599558 -0.40965)
(-4.61924 -2.2875 -3.99304)
(-9.52941 -8.98551 0.393043)
(-5.06977 -0.71748 5.77218)
(-1.04716 0.856076 -1.00405)
(7.09406 -2.42855 1.6284)
(-2.11537 -0.857221 -0.245616)
(-1.0517 -2.00515 -0.641404)
(1.6418 8.98807 6.97263)
(0.568703 6.67974 -3.99658)
(-1.96341 -1.59566 -7.72466)
(-9.46696 1.94553 -1.98942)
(7.59221 -11.2999 -16.1911)
(-2.16189 -0.149648 -0.140386)
(0.0751096 1.38027 1.43186)
(-17.8662 -8.70157 7.89037)
(12.4046 11.3863 1.04599)
(0.0762969 -0.0632953 -0.0404997)
(-12.8239 2.76758 4.0749)
(0.399064 -0.154354 1.74476)
(12.567 8.62731 3.0486)
(-25.1176 -22.9449 -26.3915)
(-2.36724 2.98017 -1.49558)
(0.766845 0.714097 0.957298)
(-0.986737 -29.3666 2.59964)
(-0.105484 0.223184 0.621966)
(13.1315 -1.19749 0.320136)
(-6.10998 10.935 -3.23844)
(0.0383316 -0.0182591 -0.711862)
(0.879511 -0.0194949 -0.890525)
(-1.37222 -0.312394 -0.906877)
(10.2459 17.2951 -9.13125)
(0.636043 -25.4795 -12.2232)
(-5.80814 -3.12777 4.50071)
(-2.04982 0.347224 5.11348)
(2.06987 -0.912121 3.29096)
(6.78896 24.8547 5.79579)
(0.145783 0.410837 0.32235)
(-2.65818 -0.520177 4.28425)
(13.3735 6.50555 -3.56593)
(-0.0846427 0.323581 -0.170321)
(-7.65175 2.59451 -2.10525)
(-2.11889 4.26255 8.30625)
(2.06288 10.0762 -1.72241)
(-8.47054 -0.868682 -6.96654)
(-0.208652 1.02846 -10.6676)
(5.5371 -7.95133 13.3665)
(0.393464 -0.287693 -2.77142)
(-2.01322 1.32583 0.962009)
(-0.633089 1.98397 3.36987)
(7.85688 16.5596 13.447)
(1.85878 -2.43797 1.26708)
(0.712883 3.16896 4.64808)
(15.7138 12.6354 7.75222)
(2.80848 -3.14944 1.39541)
(6.59525 2.26664 -4.39058)
(2.32339 1.46691 2.65168)
(-4.71441 -1.38544 -1.10193)
(-5.86102 -0.793521 -9.22867)
(-6.42202 7.8171 -2.91344)
(-11.0141 -18.4145 21.9971)
(2.76135 16.319 -10.744)
(6.15569 4.2023 1.90545)
(-2.4062 2.32517 -2.4418)
(-0.218153 18.2169 3.5873)
(-1.8608 1.19023 -13.6014)
(-6.15484 -1.0263 2.53985)
(-4.16109 -11.8809 -9.26372)
(6.69438 -10.8837 -9.02471)
(3.0141 -1.56579 -0.970283)
(12.8279 -16.6864 8.81951)
(8.01534 12.9898 -16.8124)
(0.348727 -0.0653502 -0.0255751)
(-1.92757 2.95814 -3.61859)
(-0.53537 0.840313 -0.147459)
(-0.215152 -0.584028 4.7086)
(9.6302 -1.81623 -2.88373)
(-0.0558564 0.10827 0.166606)
(7.07851 3.19564 -0.142273)
(12.6552 2.3178 -8.11696)
(-1.38512 -7.25728 -6.25143)
(9.0339 23.7066 -9.94194)
(5.81472 7.16875 -2.86993)
(-2.32927 4.81832 -4.89917)
(0.143133 3.29986 3.80786)
(-1.2275 10.661 0.021174)
(0.700893 -10.9576 -8.09494)
(0.104259 1.2172 1.36081)
(-1.56184 1.13494 0.329256)
(4.45676 3.12238 -17.9777)
(-1.12338 -0.158474 6.33843)
(1.12327 -1.55291 -0.416714)
(-6.95852 -9.27141 -37.2934)
(-0.353427 -0.30847 0.219454)
(4.93937 -6.88844 2.67301)
(9.71598 2.44743 0.302391)
(2.71885 5.18229 -4.593)
(0.765863 -6.32612 -21.7779)
(0.733839 1.03177 2.54348)
(-3.44238 -2.63696 -6.73994)
(-6.20819 10.5951 -4.92536)
(-3.78194 1.32045 4.37047)
(0.921763 8.97663 1.49986)
(3.53805 4.82768 -3.65532)
(-2.45953 -2.06426 -2.15667)
(2.54336 -17.9838 9.21896)
(3.97713 0.504186 1.90299)
(-1.734 9.68013 -4.66705)
(1.24868 -2.15843 -0.911893)
(-0.715772 2.33597 2.03811)
(-7.49645 -5.03707 9.7543)
(1.11999 -0.486401 0.792127)
(3.12565 -4.77269 4.10366)
(7.00269 0.259618 9.91868)
(1.08708 11.6418 24.7161)
(4.99948 4.30614 4.06281)
(7.10865 14.6406 -7.72198)
(5.27795 -0.33426 8.57713)
(-2.49897 -1.50132 -3.01622)
(-0.392165 -5.22639 -3.62569)
(1.24256 -1.76812 0.963229)
(6.35317 18.4614 26.4474)
(-9.2971 -4.5544 4.98278)
(1.15984 0.605855 0.770961)
(1.66528 2.51185 -0.791117)
(-0.420581 -0.135722 0.304085)
(9.76229 -13.5615 -12.4099)
(5.87658 1.13592 25.4291)
(1.79827 0.304281 -1.45963)
(-0.0657992 -0.00943002 0.0234088)
(3.97631 4.90901 -0.0235155)
(-0.908298 -0.760613 0.454232)
(8.19196 4.52467 2.17047)
(-2.97662 0.563933 -0.618492)
(0.178757 6.24847 -8.96615)
(0.717742 0.124064 -0.374149)
(0.450071 11.1588 -7.73587)
(0.00978276 0.148622 -0.111783)
(-0.0399246 3.77941 -12.901)
(-23.3996 -1.51364 -14.882)
(-2.49935 -6.57608 -1.91355)
(-2.77986 -12.6371 -19.5572)
(23.6586 -23.9867 18.9476)
(3.6987 -2.37505 1.39505)
(-1.3714 -12.436 -6.83744)
(9.56044 -10.4778 -12.9278)
(2.70186 -3.02942 -3.98161)
(-21.1458 -11.0365 6.56179)
(-6.30706 -2.89969 16.0834)
(15.0669 -7.78523 -2.1915)
(-0.130417 -1.01213 -13.7606)
(-6.48958 -38.0393 7.13998)
(14.1626 0.164261 6.80813)
(-0.209806 -10.3133 -17.5386)
(-11.3832 -6.20933 -1.65067)
(-2.09853 -7.25644 -5.14207)
(1.35881 -4.17466 -4.08581)
(0.000167214 -0.000223735 -0.000397182)
(-28.3255 -13.073 -3.51231)
(24.8648 -11.5075 2.63917)
(6.84095 -6.4078 1.63532)
(-5.49117 -7.41958 3.00718)
(39.162 -15.5458 25.944)
(0.258406 -7.50089 9.73207)
(0.545842 -0.0586976 -0.0400038)
(-32.6843 -20.0109 -23.8635)
(-5.03814 -1.70433 2.72813)
(36.9851 -20.6674 -12.17)
(28.2126 -45.9668 7.85127)
(8.3121 -17.3077 -0.432759)
(-13.727 -13.7588 13.8107)
(-1.17744 -2.18875 -5.58557)
(0.452985 -1.82213 1.56841)
(-6.97318 -15.4866 -6.97592)
(0.181259 -0.0194918 -0.0132841)
(-0.573497 -0.685272 -3.42237)
(6.79328 -3.44213 0.5454)
(-2.67581 -4.92907 7.02897)
(7.60871 -27.342 -8.52971)
(-5.46273 -21.3456 3.93621)
(-1.02809 -2.07313 -0.871408)
(5.01605 -0.406477 -6.39778)
(29.1055 -6.13753 23.2517)
(6.27024 -4.43449 1.25834)
(-6.20608 -34.1865 33.2412)
(-3.31954 -19.4467 17.8387)
(7.97111 0.313268 -12.2944)
(10.6394 -4.93348 -0.0984574)
(0.0121162 -0.0184766 -0.0697217)
(7.81197 -1.20115 2.34905)
(-0.909539 -9.59077 -32.3371)
(-5.10542 -26.0288 26.7928)
(2.04741 -6.41566 1.55616)
(4.92591 -1.42407 6.0873)
(-0.114768 -1.56904 0.962847)
(-1.17251 -0.642064 0.28829)
(7.20204 -1.29138 4.49686)
(2.81157 -3.63035 0.92985)
(0.549826 -0.625105 2.40063)
(-5.28339 -15.1522 -1.74563)
(3.07336 -14.2758 -2.03081)
(-1.57067 -2.97228 0.106002)
(0.0119701 -1.37785 0.825586)
(-12.4526 -13.7715 4.42481)
(-8.50962 -3.42405 4.00646)
(-0.649364 -0.988429 -0.357288)
(-8.52878 -8.11516 2.03886)
(-2.50828 -18.4361 -6.02879)
(7.02925 -4.44599 8.92044)
(-0.759434 -0.443226 1.66178)
(6.90492 -5.31728 -12.0681)
(-10.9827 -1.26204 -2.27277)
(-4.01484 -3.67848 -2.5922)
(-0.861148 -3.02932 -5.31592)
(0.632947 -7.38586 -4.00151)
(3.38741 -0.190954 0.482914)
(-5.05699 -0.327246 -1.76926)
(0.572603 -0.603587 -0.716484)
(-15.1964 -0.0368212 5.41855)
(44.1067 -32.8925 9.58984)
(-6.0609 -1.93907 6.52627)
(-3.51804 -2.11468 11.4403)
(7.69841 -11.1008 -5.56856)
(-23.7405 -11.1521 -4.37704)
(25.4021 -6.82364 -5.01945)
(8.19029 -1.51659 -2.6775)
(-1.32268 -0.138149 -0.611255)
(7.9785 -1.56042 7.91031)
(20.2251 -19.1505 5.00436)
(-22.3791 -15.9962 -8.6909)
(-1.90565 -1.49885 -4.16284)
(23.4624 -9.49607 8.93711)
(9.35543 -10.6432 7.48516)