/*--------------------------------*- C++ -*----------------------------------*\
  =========                 |
  \\      /  F ield         | OpenFOAM: The Open Source CFD Toolbox
   \\    /   O peration     | Website:  https://openfoam.org
    \\  /    A nd           | Version:  7
     \\/     M anipulation  |
\*---------------------------------------------------------------------------*/
FoamFile
{
    version     2.0;
    format      ascii;
    class       scalarField;
    location    "0.7/lagrangian/reactingCloud1";
    object      yH2O;
}
// * * * * * * * * * * * * * * * * * * * * * * * * * * * * * * * * * * * * * //


2581
(
0.022
0.022
0.022
0.022
0.022
0.022
0.022
0.022
0.022
0.022
0.022
0.022
0.022
0.022
0.022
0.022
0.022
0.022
0.022
0.022
0.022
0.022
0.022
0.022
0.022
0.022
0.022
0.022
0.022
0.022
0.022
0.022
0.022
0.022
0.022
0.022
0.022
0.022
0.022
0.022
0.022
0.022
0.022
0.022
0.022
0.022
0.022
0.022
0.022
0.022
0.022
0.022
0.022
0.022
0.022
0.022
0.022
0.022
0.022
0.022
0.022
0.022
0.022
0.022
0.022
0.022
0.022
0.022
0.022
0.022
0.022
0.022
0.022
0.022
0.022
0.022
0.022
0.022
0.022
0.022
0.022
0.022
0.022
0.022
0.022
0.022
0.022
0.022
0.022
0.022
0.022
0.022
0.022
0.022
0.022
0.022
0.022
0.022
0.022
0.022
0.022
0.022
0.022
0.022
0.022
0.022
0.022
0.022
0.022
0.022
0.022
0.022
0.022
0.022
0.022
0.022
0.022
0.022
0.022
0.022
0.022
0.022
0.022
0.022
0.022
0.022
0.022
0.022
0.022
0.0219995
0.00189741
0.022
0.022
0.022
0.0218574
0.022
0.022
0.022
0.022
0.022
0.022
0.0219977
0.022
0.0154029
0.022
0.0219999
0.0156211
0.0219798
0.021981
0.0219998
0.0218536
0.022
0.0212127
0.022
0.0212529
0.0219951
0.022
0.0219982
0.0160025
0.022
0.0201672
0.000417167
0.0218221
0.0209859
0.00647234
0.022
0.000207648
0.021999
0.022
0.021999
0.0213229
0.022
0.00178226
0.022
0.021573
0.022
0.0219718
0.0120742
0.0219999
0.0219992
0.022
0.022
0.022
0.022
0.022
0.022
0.022
0.0195311
0.00962425
0.022
0.021948
0.0219913
0.022
0.022
0.0219705
0.000874993
0.0219999
0.0184519
0.0160619
0.0134532
0.0219999
0.022
0.0219997
0.0166309
0.021042
0.00272662
0.0219959
0.0192136
0.0217935
0.0219932
0.022
0.0197434
0.022
0.022
0.022
0.022
0.022
0.022
0.022
0.022
0.022
0.00116225
0.0151097
0.0109271
0.0077817
0.0219883
0.0214498
0.021978
0.0143071
0.0193528
0.0219959
0.0218359
0.0219368
0.0216521
0.022
0.022
0.0219969
0.0219983
0.0218605
0.0201143
0.0219999
0.0219993
0.0219978
0.0150663
0.0219992
0.0219998
0.022
0.021999
0.0146479
0.0189941
0.00330189
0.0219908
0.0219536
0.0206639
5.58921e-05
0.00536712
0.0196348
0.0190821
0.0218845
0.00952058
0.0217115
0.0206449
0.0219887
0.0153325
0.022
0.022
0.022
0.022
0.022
0.022
0.022
0.022
0.022
0.022
0.022
0.022
0.022
0.022
0.022
0.022
0.022
0.022
0.022
0.022
0.022
0.022
0.022
0.022
0.022
0.022
0.022
0.022
0.022
0.0125474
0.0218287
0.00803231
0.021748
0.022
0.0131223
0.0219551
0.00759969
0.022
0.0219996
0.0219998
0.0219776
0.0218569
0.0219932
0.0218719
0.0218852
0.0167819
0.0148923
0.0193337
0.022
0.0219931
0.022
0.0131032
0.022
0.0121522
0.0219684
0.0219942
0.022
0.0218932
0.0149677
0.0217834
0.0155726
0.0219986
0.0219992
0.0219935
0.0130865
6.20175e-05
0.0137486
0.0219218
0.0181866
0.0219218
0.0115876
0.0192736
0.0132527
0.021998
0.0111058
0.022
0.0174354
0.0135356
0.0219993
0.0177081
0.0219756
0.0184833
0.022
0.0119654
0.0156484
0.022
0.0219923
0.0219923
0.0219998
0.0219998
0.0219998
0.0219985
0.0219988
0.022
0.0219992
0.021999
0.0219988
0.021999
0.0219999
0.0219999
0.0219979
0.0219998
0.0219999
0.0219995
0.0219996
0.0219988
0.0219999
0.0219996
0.0219997
0.0219977
0.0219982
0.0219982
0.0219995
0.0219997
0.0219999
0.0219999
0.0219977
0.0219997
0.0219982
0.0219999
0.021999
0.0219999
0.0219979
0.0219996
0.0219994
0.0219999
0.022
0.0219997
0.0219982
0.022
0.0219984
0.0219982
0.0219991
0.0219996
0.021999
0.0219984
0.0219997
0.0219987
0.0219992
0.0219992
0.0219999
0.0219993
0.0219997
0.0219985
0.0219999
0.0219987
0.0219997
0.0219994
0.0219998
0.021999
0.0219998
0.0219999
0.00974756
0.0118977
0.00699934
0.0214238
0.0138479
0.00152588
0.0216613
0.0219922
0.0219907
0.021197
0.0158186
0.0150775
0.0219719
0.0158186
0.0215145
0.0219988
0.020608
0.0196711
0.0219818
0.0219928
0.00506014
0.0154482
0.0218977
0.0144417
0.0103247
0.0140583
0.00847049
0.020004
0.0219754
0.021995
0.0193442
0.000571902
0.000959739
0.0216973
0.00508401
0.0219926
0.0219858
0.0128114
0.0219059
0.0101211
0.013725
0.021783
0.021806
0.0082152
0.0203422
0.0146746
0.0184389
0.0148208
0.00390082
0.0219902
0.0157448
0.0219806
0.0171243
0.0219828
0.0188557
0.0196976
0.0219757
0.0219998
0.0210094
0.0219965
0.0186361
0.0216936
0.000116477
0.0209643
0.012716
0.0180658
0.0118928
0.0195107
0.021997
0.0219999
0.0219962
0.0219869
0.0219629
0.0219629
0.0219931
0.0219698
0.0219378
0.0219494
0.0219944
0.0219494
0.0219894
0.0219854
0.0219938
0.0219728
0.0219974
0.0219494
0.0219048
0.0219955
0.0219048
0.0219882
0.0219698
0.0219494
0.0219869
0.0219494
0.021982
0.0219494
0.0219882
0.0219494
0.021931
0.0219955
0.0219779
0.0219494
0.0219914
0.0219698
0.021931
0.0219955
0.021931
0.0219944
0.0219869
0.0219048
0.0219838
0.0219755
0.0219234
0.0219938
0.0219904
0.0219544
0.0219931
0.0219923
0.0219931
0.0219944
0.0219779
0.0219904
0.021931
0.0219904
0.0219955
0.0219048
0.0219974
0.0219801
0.0219894
0.0219149
0.0219589
0.0219048
0.0219931
0.0219931
0.021982
0.0219629
0.0219971
0.0219964
0.0219968
0.0219904
0.0219914
0.0219838
0.0219234
0.0219914
0.0219944
0.0219869
0.0219779
0.0219914
0.0219854
0.0219894
0.0219755
0.0219801
0.0219914
0.0219048
0.0219801
0.0219931
0.021995
0.0219665
0.0219665
0.0219894
0.0219801
0.0219882
0.0219544
0.0219854
0.0219931
0.0219494
0.021996
0.0219779
0.0219779
0.0219869
0.0219801
0.0219869
0.0219894
0.021996
0.0219048
0.021996
0.0219698
0.0219048
0.0219801
0.0219589
0.0219728
0.0219589
0.0219931
0.0219931
0.0219439
0.0219882
0.0219944
0.000194778
0.000750935
0.0219439
0.00175924
0.00363303
0.00571463
0.00219509
0.0112258
0.00224244
0.007893
0.0142544
0.0166046
0.0136163
0.0200921
0.00615236
0.00777788
0.00326748
0.0190713
0.0141333
0.0212819
0.0180004
0.00241491
0.0157388
0.0180004
0.0219468
0.0191775
0.0103444
0.00504242
0.0183127
0.0141931
0.0218455
0.0214184
0.0155808
0.00507515
0.0141411
0.00560646
0.0129287
0.0187182
0.0219293
0.0135787
0.0152951
0.0102327
0.0191152
0.000447609
0.017455
0.0219914
0.0219532
0.0101166
0.017491
0.0169064
0.0129819
0.0153116
0.000665344
0.0218635
0.0216509
0.0170835
0.0111866
0.0219654
0.0123266
0.0219719
0.0198519
0.000226195
0.0195165
0.0140847
0.021995
0.0182273
0.0186716
0.00111824
0.0198058
0.0166511
0.018862
0.021995
0.0219957
0.00610848
0.00989642
0.0164658
0.0219108
0.0183387
0.0014023
0.0217891
0.0147869
0.0165486
0.0218897
0.0219008
0.021984
0.0159169
0.021803
0.0123014
0.0130255
0.0204755
0.0217619
0.0209846
0.0146166
0.0159169
0.0201615
0.0217619
0.0186042
0.0134058
0.0217619
0.0201615
0.0130255
0.021338
0.019812
0.0218924
0.0215664
0.0142019
0.019812
0.0137981
0.0150414
0.0130255
0.0181668
0.0204755
0.0217619
0.0137981
0.017269
0.0146166
0.0218341
0.0150414
0.0217108
0.0190277
0.0215664
0.0204755
0.0146166
0.0218582
0.0150414
0.0217619
0.0159169
0.0134058
0.0215664
0.0134058
0.0150414
0.0218582
0.0186042
0.0137981
0.0123014
0.0181668
0.0207504
0.021803
0.0215664
0.0137981
0.0217108
0.0137981
0.0130255
0.0177204
0.0181668
0.0186042
0.0217108
0.0214652
0.0218772
0.0154753
0.0177204
0.0154753
0.019812
0.0207504
0.0150414
0.0134058
0.0216468
0.0218772
0.016816
0.0217619
0.0216468
0.0146166
0.016816
0.0163645
0.0209846
0.0123014
0.0214652
0.0150414
0.0134058
0.016816
0.016816
0.0181668
0.0218341
0.0137981
0.0181668
0.0126573
0.0130255
0.0146166
0.0216468
0.0204755
0.0137981
0.016816
0.0146166
0.0201615
0.021338
0.0214652
0.0186042
0.016816
0.0201615
0.0126573
0.0201615
0.0218341
0.0215664
0.0211794
0.0163645
0.0190277
0.0218772
0.0126573
0.0154753
0.021803
0.0126573
0.0190277
0.0204755
0.0159169
0.0146166
0.021803
0.0218341
0.0142019
0.0126573
0.0201615
0.021338
0.0181668
0.017269
0.017269
0.0126573
0.0218341
0.0142019
0.0126573
0.0216468
0.0204755
0.0214652
0.0201615
0.0126573
0.0218341
0.0142019
0.0177204
0.017269
0.0218341
0.0123014
0.0215664
0.0137981
0.021338
0.0190277
0.0159169
0.0194322
0.0123014
0.0150414
0.0137981
0.0209846
0.021803
0.0134058
0.0154753
0.0163645
0.0130255
0.0186042
0.0137981
0.0181668
0.0154753
0.0214652
0.0190277
0.016816
0.0137981
0.016816
0.016816
0.0194322
0.0214652
0.0209846
0.0186042
0.0159169
0.0150414
0.0211794
0.0218924
0.0177204
0.017269
0.0186042
0.019812
0.0204755
0.016816
0.0204755
0.021803
0.0150414
0.0163645
0.0204755
0.0146166
0.0215664
0.0207504
0.016816
0.0217619
0.0137981
0.0218772
0.0204755
0.0146166
0.0218772
0.0190277
0.0186042
0.0134058
0.019812
0.0150414
0.0211794
0.021338
0.021338
0.0186042
0.0217619
0.0146166
0.0142019
0.0217108
0.021338
0.0186042
0.021803
0.00103324
0.0186042
0.0217619
0.0218582
0.0177204
0.00201196
0.00406291
0.0215664
0.00322306
0.0209846
0.0163645
0.0103709
0.00545491
0.0217619
0.00854216
0.0095399
0.00330213
0.0118201
0.00973116
0.00312978
0.0129174
0.0122692
0.0110874
0.00522645
0.000390558
0.0122362
0.0217108
0.00443119
0.0126829
0.0110566
0.01247
0.011168
5.90251e-05
0.0130135
0.00221602
0.0081286
0.0074613
0.0137981
0.00415913
0.00310009
0.0117079
0.00199246
0.0141863
0.0119014
0.00427943
0.00125552
0.00466357
0.0218772
0.0109351
0.00197135
0.0040706
0.00502587
0.00712463
0.0147603
0.0088885
0.00343146
0.0133966
0.00518601
0.00594742
0.016286
0.00971423
0.016286
0.0141081
0.00792095
0.0136585
0.00104845
0.0148855
0.00165162
0.0166409
0.00671157
0.0176167
0.0136586
0.0126334
0.0218924
0.00916849
0.00821013
0.0174482
0.00490918
0.0104602
0.0158094
0.00748564
0.00748564
0.0154965
0.00798246
0.0191502
0.00659451
0.0143495
0.0013697
0.00337519
0.0107738
0.0186787
0.0101729
0.00711092
0.00908945
0.0150513
0.0113612
0.0109918
0.00371741
0.000817395
0.016863
0.0209403
0.0149009
0.010882
0.00231146
0.0218924
0.0198031
0.0172861
0.00308389
0.0212264
0.0101066
0.0038365
0.0114774
0.0030675
0.0058058
0.0174278
0.0167977
0.0180583
0.00397529
0.0154426
0.00879005
0.0140902
0.0205768
0.0217485
0.012614
0.0217921
0.0141561
0.0160438
0.00559492
0.0102062
0.021833
0.0102062
0.0204482
0.00296565
0.0218772
0.0107225
0.00925244
0.0107024
0.00870284
0.0107024
0.00791293
0.0109988
0.00892009
0.00638513
0.00739444
0.0104172
0.0104172
0.00739444
0.00739444
0.00549602
0.00791293
0.0107024
0.00962494
0.00591077
0.00773357
0.00549602
0.00591077
0.0104172
0.00707955
0.0104172
0.00540051
0.00540051
0.00914594
0.00962494
0.00987882
0.00559466
0.00756084
0.0104172
0.00707955
0.0101428
0.0113066
0.0113066
0.00678681
0.00664815
0.00756084
0.00602336
0.00756084
0.00739444
0.00559466
0.00602336
0.00591077
0.00739444
0.00829274
0.00540051
0.00987882
0.00914594
0.00678681
0.00580189
0.00756084
0.0119577
0.00707955
0.00849384
0.00540051
0.00962494
0.00962494
0.00707955
0.00664815
0.00829274
0.00870284
0.00739444
0.0119577
0.00613984
0.00707955
0.00559466
0.00707955
0.00580189
0.00829274
0.00791293
0.00791293
0.00809922
0.00938077
0.00638513
0.00914594
0.00651432
0.0113066
0.0107024
0.00569657
0.00707955
0.00707955
0.00591077
0.00829274
0.00756084
0.0101428
0.0119577
0.00626037
0.00602336
0.00613984
0.00540051
0.00962494
0.0113066
0.00693054
0.0101428
0.00626037
0.00678681
0.00580189
0.00678681
0.00809922
0.00613984
0.00678681
0.0107024
0.00892009
0.00707955
0.00849384
0.00849384
0.00739444
0.00962494
0.00707955
0.00962494
0.00559466
0.0101428
0.00540051
0.00756084
0.00987882
0.00962494
0.00638513
0.00809922
0.0113066
0.00707955
0.00987882
0.00938077
0.00678681
0.00892009
0.00773357
0.00591077
0.00938077
0.00849384
0.00870284
0.00756084
0.00540051
0.0119577
0.00559466
0.00849384
0.00870284
0.0119577
0.00870284
0.00987882
0.00962494
0.00756084
0.00693054
0.00938077
0.00540051
0.0113066
0.00549602
0.00664815
0.00540051
0.00809922
0.0072341
0.00892009
0.00664815
0.0101428
0.00602336
0.00962494
0.00569657
0.0119577
0.00540051
0.00664815
0.00626037
0.0101428
0.00602336
0.0109988
0.0116262
0.00809922
0.00591077
0.00580189
0.00569657
0.0113066
0.00651432
0.00739444
0.00829274
0.00540051
0.00849384
0.0116262
0.00756084
0.00591077
0.0113066
0.00613984
0.00549602
0.00870284
0.0072341
0.0119577
0.00739444
0.00638513
0.00829274
0.00809922
0.00602336
0.00791293
0.0119577
0.00549602
0.00707955
0.00540051
0.00540051
0.0113066
0.00829274
0.0116262
0.00739444
0.00962494
0.00870284
0.00638513
0.0107024
0.00569657
0.00613984
0.00829274
0.00651432
0.00829274
0.00987882
0.00664815
0.00809922
0.00591077
0.00791293
0.0107024
0.00892009
0.00569657
0.00938077
0.0109988
0.00892009
0.00829274
0.00791293
0.0107024
0.00693054
0.0113066
0.0072341
0.00602336
0.00914594
0.00651432
0.0116262
0.00678681
0.00914594
0.00569657
0.0119577
0.0107024
0.00569657
0.0119577
0.00892009
0.00638513
0.00870284
0.00693054
0.00870284
0.00707955
0.00870284
0.00707955
0.00707955
0.00569657
0.00962494
0.00773357
0.00773357
0.0107024
0.00693054
0.00693054
0.00809922
0.00791293
0.00591077
0.00693054
0.00651432
0.00591077
0.00892009
0.00756084
5.5442e-05
0.00549602
0.00773357
0.00870284
0.0116262
0.00664815
0.00693054
0.000994522
0.00059638
0.00160167
0.00227452
0.0025602
0.00292219
0.00938077
0.00739444
0.00363515
0.00391897
5.5442e-05
0.00678681
0.00465359
0.00273923
0.000751833
0.00613984
0.00530127
0.00466925
0.00161838
0.00210956
0.000200867
0.00678681
0.00486129
0.00556491
0.00153949
0.00456671
0.00248149
0.00369535
0.00573308
0.00552153
0.0055984
0.00382341
0.00431791
0.00590129
0.00214208
0.00572208
0.00519983
0.00481271
0.00582576
0.00532387
0.00395761
0.00651432
0.00791293
0.00626037
0.00333866
0.00595553
0.00638513
0.00615719
0.00548204
0.00524452
0.00514708
0.00271476
0.00639651
0.00577225
0.00556818
0.0058221
0.00662672
0.0066354
0.00641618
0.00155411
0.00625338
0.00692837
0.00282917
0.00612697
0.00201393
0.00288919
0.00652023
0.00658257
0.00568268
0.00987882
0.00230959
0.00723168
0.0107024
0.00738626
0.00356287
0.00374566
0.00602967
0.00724074
0.0070795
0.00755218
0.00726823
0.00729586
0.00485486
0.00759222
0.00717333
0.00651273
0.00589888
0.00613088
0.00558365
0.00598441
0.00161644
0.00549143
0.00646516
0.00840931
0.00840931
0.00458436
0.00815437
0.00227206
0.00803403
0.00847067
0.00866006
0.000309124
0.00261829
0.00815049
0.00175248
0.00672225
0.00962494
0.00642266
0.00495271
0.00886117
0.00208943
0.00753697
0.0094305
0.0101125
0.000537644
0.00137051
0.00846105
0.00966321
0.00414062
0.00769964
0.00852019
0.00578816
0.0109187
0.0071217
0.00861303
0.00315918
0.0106231
0.010842
0.00420948
0.00420948
0.00466245
0.00374014
0.00459208
0.00388475
0.00488639
0.00409543
0.00426888
0.00409543
0.00504729
0.00351959
0.00364915
0.00364915
0.00496562
0.00426888
0.00432994
0.00335769
0.00426888
0.0037872
0.00488639
0.0047349
0.00360509
0.00374014
0.00445729
0.00339713
0.00356192
0.00415169
0.0037872
0.00388475
0.00459208
0.00388475
0.00445729
0.00383537
0.00398733
0.00488639
0.0037872
0.00496562
0.00439272
0.00415169
0.00466245
0.00466245
0.00364915
0.00409543
0.00343723
0.00360509
0.00445729
0.00521837
0.00409543
0.00420948
0.00452372
0.00374014
0.00466245
0.00488639
0.00439272
0.00388475
0.00409543
0.00347804
0.00415169
0.00360509
0.00480952
0.00452372
0.00335769
0.00347804
0.0037872
0.00369415
0.00335769
0.00439272
0.00339713
0.00356192
0.00480952
0.00521837
0.00404066
0.00459208
0.00452372
0.00496562
0.00466245
0.00466245
0.00398733
0.00339713
0.0051315
0.00445729
0.00383537
0.00404066
0.00504729
0.00415169
0.00360509
0.00339713
0.00393538
0.00439272
0.00404066
0.00343723
0.00339713
0.00415169
0.00356192
0.005308
0.00480952
0.00466245
0.0051315
0.00383537
0.00496562
0.00426888
0.00351959
0.00488639
0.00360509
0.00452372
0.00356192
0.00343723
0.00420948
0.00351959
0.00480952
0.00398733
0.0037872
0.00339713
0.00404066
0.00339713
0.00480952
0.00480952
0.00466245
0.00398733
0.00347804
0.00351959
0.00364915
0.00439272
0.00335769
0.00409543
0.00364915
0.00369415
0.005308
0.00369415
0.0051315
0.005308
0.00360509
0.00393538
0.00393538
0.00356192
0.00356192
0.00388475
0.00521837
0.005308
0.00466245
0.00466245
0.0051315
0.00374014
0.00404066
0.00504729
0.0051315
0.00356192
0.00343723
0.00459208
0.00521837
0.00452372
0.00521837
0.00439272
0.00488639
0.00393538
0.00398733
0.00466245
0.00426888
0.00335769
0.00393538
0.00393538
0.00496562
0.00459208
0.00480952
0.00409543
0.00504729
0.00459208
0.00335769
0.00388475
0.00432994
0.0051315
0.00439272
0.00488639
0.00445729
0.005308
0.00383537
0.00364915
0.00374014
0.00347804
0.0051315
0.00351959
0.0047349
0.00452372
0.0047349
0.00415169
0.00378193
0.00466245
0.00409543
0.0037872
5.5442e-05
0.00335769
0.000316592
5.5442e-05
0.00118293
0.000669924
0.00364915
0.00178202
0.00321501
5.54433e-05
0.00459208
0.00137263
0.00328899
0.00329778
0.00220802
0.002771
0.00343723
0.00130085
0.00123049
0.00187334
0.00320252
0.00327792
0.00205268
0.00337884
0.00323752
0.00343478
0.00337884
0.00331457
0.00194499
0.00336161
0.0028048
0.00221538
0.00326986
0.00324211
0.00299019
0.00319838
0.00157098
0.00364915
0.00299019
0.00426888
0.00359523
0.00274371
0.00359192
0.00174669
0.00343633
0.00270127
0.00480952
0.00125213
0.000724207
9.93506e-05
0.00262995
5.5442e-05
0.00368015
0.00163257
0.00258875
0.00369735
0.00504729
5.5442e-05
0.00240833
0.00367056
0.00296643
0.00264802
0.00287532
0.0031216
0.00377803
0.00260519
0.000224711
0.00382557
0.00185494
0.000664309
0.00369293
5.5442e-05
0.00388986
0.00398733
0.00382983
0.00382983
0.00401256
0.0025658
0.00409357
0.00407736
0.00145473
0.00384014
0.00415169
0.0028583
0.000840884
0.00382866
0.00376609
0.000105175
0.00421326
0.000533802
0.00303078
0.00104627
0.00218516
0.00117654
0.00439272
0.00439051
0.000949047
0.00429412
0.00422756
0.00387713
0.00310255
0.00257727
0.00458358
0.00459131
0.00410107
0.00439986
0.00240787
0.00353716
0.00393518
0.00465362
0.00460387
0.00456981
0.00133717
0.00436569
0.00428573
0.0033737
0.00487648
0.00429124
0.00291093
0.000489143
0.00399646
0.00494379
0.00258372
0.00493477
0.00126707
0.00504416
0.00452635
0.00364966
0.00170188
0.000518443
0.00513048
0.00116482
0.00435608
0.00417611
0.00518542
0.00521497
0.00519734
0.0026036
0.0026036
0.00279303
0.00289144
0.00295863
0.00233478
0.00230594
0.00320586
0.00230594
0.00299274
0.00233478
0.00266574
0.00313307
0.00316923
0.00320586
0.00328065
0.00309737
0.00233478
0.00285833
0.00236383
0.00328065
0.00222057
0.00320586
0.00266574
0.00254238
0.00236383
0.00324299
0.00248204
0.00309737
0.00233478
0.00285833
0.00245219
0.00224883
0.00289144
0.00230594
0.00263455
0.00292486
0.00233478
0.00219248
0.00266574
0.00299274
0.00276081
0.00239308
0.00236383
0.00320586
0.00269718
0.00282553
0.00251211
0.00302722
0.00219248
0.00222057
0.00239308
0.00257288
0.00219248
0.00313307
0.00266574
0.00276081
0.00263455
0.00309737
0.00299274
0.00313307
0.00313307
0.00227729
0.00282553
0.00282553
0.00289144
0.00263455
0.0026036
0.00292486
0.00279303
0.00248204
0.00285833
0.00248204
0.00313307
0.00219248
0.00236383
0.00309737
0.00239308
0.00219248
0.00224883
0.00242253
0.00279303
0.00276081
0.00295863
0.00292486
0.00257288
0.00306209
0.00309737
0.00309737
0.00227729
0.0026036
0.00257288
0.00248204
0.00219248
0.00302722
0.00245219
0.0026036
0.00236383
0.00224883
0.00239308
0.0026036
0.00266574
0.00236383
0.00251211
0.00285833
0.00276081
0.00239308
0.00222057
0.00224883
0.00248204
0.00242253
0.00236383
0.00242253
0.00219248
0.00289144
0.00230594
0.00239308
0.00292486
0.00242253
0.00254238
0.00302722
0.00266574
0.00239308
0.00245219
0.00320586
0.00276081
0.00222057
0.00266574
0.00285833
0.00316923
0.00299274
0.00302722
0.00306209
0.00279303
0.00251211
0.00230594
0.00299274
0.00299274
0.00289144
0.000540445
0.00222057
0.000595348
5.54426e-05
5.54474e-05
0.00117919
5.5442e-05
0.00161799
0.000924059
5.54643e-05
0.00257288
0.00118497
0.00164266
0.00203373
0.00218184
0.0019455
5.5442e-05
0.00206914
0.00161604
0.00203114
0.00224477
0.00181089
0.00209805
0.00210352
0.00220559
0.00207513
0.000260875
0.00170602
0.00205718
0.00257288
0.00215456
0.00166681
0.00144499
0.00185677
0.00124374
0.002069
0.00218514
0.00153525
0.000475149
0.00217163
0.00157557
5.5442e-05
0.00227729
0.00192797
0.00117493
0.0020379
0.00143912
0.00222588
0.00222023
0.00228737
0.00182629
0.00223142
0.00231088
5.5442e-05
0.00227939
0.00111001
0.00217355
0.00190878
0.00223982
0.00254238
0.00157177
0.00233868
0.00197318
0.00168104
0.0017887
0.00230672
5.5442e-05
0.00232941
0.00237982
0.00205653
0.00151656
0.00132878
0.00147366
0.0021894
0.00235729
0.00123813
0.00230007
0.00204234
0.00244714
0.000265324
0.000897828
0.000138201
0.00105778
0.00234245
0.00248021
5.5442e-05
0.00246752
5.59397e-05
5.5442e-05
0.00218475
0.00249198
5.5442e-05
0.00148917
0.00224681
0.00238204
0.000661022
0.00242179
0.0025344
5.5442e-05
0.00142255
0.00291478
0.00106605
0.00255152
0.00256168
5.54454e-05
0.00263455
0.00253644
0.000933086
0.00259778
0.00146397
0.000821869
0.00141157
5.5442e-05
0.00190286
0.00133565
0.00232247
0.00266354
0.00100205
0.00256539
0.00240978
0.00175207
0.00250123
0.00261814
6.87814e-05
0.00313307
0.00275573
0.00228187
0.0025889
0.00228878
0.00252077
0.00324299
0.00258935
0.00264155
0.00249092
0.00134135
0.0022153
0.00195228
0.0016688
0.000421
0.00152803
0.00273033
0.00076939
0.00288164
0.00282337
0.00288382
0.00261103
0.00287355
0.00294565
0.00213191
0.00257141
5.5442e-05
0.00269635
0.0028233
0.00299247
0.00117272
0.00266065
0.00299071
0.00140558
0.00302083
0.00239725
0.000781847
0.00284179
0.00306181
0.00290308
0.00305363
0.00312811
0.00305019
0.00173513
5.5442e-05
0.00265903
0.00286929
0.00176896
0.00315383
0.00285776
0.00126769
0.00299489
0.00119231
0.00204622
0.000100171
0.00154017
0.00309055
0.00324086
0.00328032
0.00328065
0.00326388
0.00149563
0.00140527
0.00202741
0.0016865
0.0014601
0.00191975
0.001514
0.00181365
0.00186644
0.0016865
0.00157314
0.00173619
0.00161637
0.001514
0.0016865
0.00213683
0.00163908
0.00135904
0.00202741
0.00197341
0.00186644
0.00216457
0.0013305
0.00157314
0.00202741
0.00208184
0.00210926
0.00155267
0.00135904
0.00181365
0.00205456
0.00140527
0.00173619
0.00210926
0.00140527
0.00191975
0.00181365
0.00176169
0.00166247
0.00144251
0.0013838
0.00186644
0.0013838
0.00186644
0.00163908
0.00135904
0.0013305
0.00194654
0.00144251
0.00166247
0.00144251
0.00210926
0.00176169
0.00157314
0.00181365
0.001514
0.00189304
0.00173619
0.00149563
0.00178754
0.00147772
0.00155267
0.001514
0.00153297
0.00176169
0.00159438
0.00210926
0.00135904
0.00135904
0.00140527
0.0014601
0.00155267
0.0013305
0.0013838
0.00205456
0.00200036
0.00173619
0.00149563
0.00153297
0.00181365
0.0014245
0.00144251
0.00159438
0.00153297
0.00200036
0.0013305
0.00147772
0.0013838
0.00183996
0.00191975
0.001514
0.00183996
0.00176169
0.00153297
0.00144251
0.00171109
0.00200036
0.001514
0.00166247
0.00153297
0.00189304
0.00153297
0.0014601
0.00205456
0.00191975
0.00157314
0.0013838
0.00178754
0.00135904
0.001514
0.00210926
0.0016865
0.00166247
0.00171109
0.00186644
0.00194654
0.00200036
0.00183996
0.00205456
0.00213683
5.5442e-05
5.5442e-05
0.00135904
0.00181365
5.54446e-05
5.5442e-05
5.88542e-05
0.000362238
0.000322326
5.5442e-05
0.000322326
7.49728e-05
0.000362238
8.2827e-05
0.000685844
0.000925319
0.000800897
0.00161637
0.00163908
0.00197341
0.00109064
5.5442e-05
0.000399659
0.00100811
0.000399659
0.00112519
0.000414421
0.00123428
0.000552578
0.00113354
0.000930382
0.0014601
0.00112519
0.00128711
0.00132966
0.000746529
0.000500743
0.000686253
0.000869471
0.0013838
0.000947858
0.00103852
0.00120009
0.00135026
0.00126764
5.54592e-05
5.54541e-05
0.00116732
0.00125246
0.000758804
0.0014245
0.00132839
0.00110524
0.00130761
0.00132804
0.00128248
0.00136518
0.00200036
5.5442e-05
0.000520812
0.00058933
0.00138226
0.00140368
0.0014245
0.00127887
0.00110612
5.5442e-05
0.00136021
5.5442e-05
0.00109926
0.00107261
0.000448107
0.001514
0.00173619
0.00122954
0.000470067
5.5442e-05
0.00186644
0.00138753
0.00128849
0.00103158
0.00141396
0.00122954
0.000811326
0.00137201
0.00039184
0.00142405
0.00128203
0.00122954
0.00138826
0.00141146
0.00136079
5.5442e-05
5.5442e-05
0.00135731
0.00117501
0.00140852
0.00032389
5.86416e-05
0.00125686
0.000420584
0.00144182
0.00143165
0.000470709
0.00129913
0.001188
0.00145689
0.00145909
0.000741259
0.00141693
0.00131146
0.000793495
0.000431958
0.00200036
5.5442e-05
0.00166247
0.000950036
0.001198
9.10557e-05
0.00146508
0.00139866
0.00147758
0.00113897
0.00140739
0.00123789
0.00099056
0.000987472
5.54484e-05
0.000328736
0.00126449
0.00128407
5.54489e-05
0.00133543
0.000824011
6.0295e-05
0.00135681
5.54421e-05
0.00096486
0.00140805
0.00145782
0.00111814
0.00157314
5.5442e-05
0.00116003
0.000476832
0.00100531
0.00129686
0.00141073
0.00107
5.5442e-05
0.000637978
0.00150385
0.00070279
0.000834161
0.00130927
0.0010536
0.00138119
0.00151368
5.5523e-05
0.000577925
0.00132576
0.00120764
0.00130011
0.0016865
0.00132992
5.54692e-05
0.00107
0.00157047
0.0015521
0.00132156
0.00157314
5.5442e-05
5.54646e-05
0.000986012
0.00126108
0.00130121
6.7502e-05
0.000736659
0.000519599
0.0015539
0.00139262
0.00138379
0.00130597
0.0015942
0.00149648
5.5442e-05
0.00139469
0.00176169
5.5442e-05
0.000826651
0.00161407
0.000721954
0.00117513
0.00160966
0.00200036
5.5442e-05
0.00133617
0.00186644
0.00146261
0.00135965
5.5442e-05
0.00155722
0.000859601
0.00145925
0.00156636
0.0016377
0.00117788
0.0014896
0.00128022
0.00171109
0.00216457
0.000632577
0.00160835
0.00105631
0.00166247
5.54927e-05
0.00147483
0.00164513
0.00157103
5.5442e-05
0.00165313
0.00163848
0.000715339
0.00153045
0.000884189
0.00127275
0.00109462
0.00152975
0.00171103
5.54471e-05
0.00151645
0.00155734
0.000607394
0.00154922
5.5442e-05
0.00052999
5.5442e-05
0.00169244
0.00171066
0.00173612
0.000418781
0.00127734
0.00150677
0.000685446
0.00162693
0.00109462
5.5442e-05
5.5442e-05
0.00125187
0.000139448
0.0017114
0.000791649
0.00145513
0.000537858
0.0012313
0.00173645
0.00162183
5.5442e-05
0.00163641
0.00164478
0.00216457
5.5442e-05
0.00169479
0.000249284
5.55799e-05
7.2487e-05
0.00171161
5.58436e-05
0.000828658
8.46783e-05
0.00180588
0.00177191
0.0011761
5.5442e-05
0.00160741
0.00180699
5.5442e-05
0.00173962
5.5442e-05
0.000815828
0.00162609
0.00183749
0.00183909
5.5442e-05
0.00182645
0.00173962
0.000900371
0.00183192
0.00183749
0.00165102
5.5442e-05
0.00178817
5.5442e-05
0.000815416
0.00144415
0.00183689
5.5442e-05
0.00134561
0.00168742
0.00115989
0.000310513
0.00191534
5.85207e-05
0.00164727
0.00087884
0.00191975
0.00181742
0.00105065
0.00189719
0.00134908
0.00137469
0.00173517
0.00188811
0.00194442
0.001315
5.5442e-05
0.000799163
0.00194554
0.00173891
0.00177081
0.00153539
0.00195738
0.00140364
0.00124247
0.00195145
0.00120158
0.00200036
0.0019919
0.00180307
0.000903827
0.000736431
0.00197541
0.00122396
0.00180307
0.00144624
0.00135681
0.000685889
0.00149399
5.5442e-05
0.00135681
5.5442e-05
0.00182976
0.00157138
0.00132331
0.00128936
0.00204066
0.00205039
0.000714581
0.00208066
0.00106413
0.00163105
0.000592367
0.00198186
0.00159138
0.00138221
0.00196751
0.000833072
0.00210926
5.5442e-05
0.000694772
0.00206622
0.00210109
0.00203295
0.00216457
0.00210177
0.00210466
0.00208902
0.000605205
0.00212341
5.55121e-05
0.00194552
0.00148845
0.00025769
0.00205964
0.000736187
0.000372646
0.00159671
0.00197373
)


// ************************************************************************* //
