/*--------------------------------*- C++ -*----------------------------------*\
  =========                 |
  \\      /  F ield         | OpenFOAM: The Open Source CFD Toolbox
   \\    /   O peration     | Website:  https://openfoam.org
    \\  /    A nd           | Version:  7
     \\/     M anipulation  |
\*---------------------------------------------------------------------------*/
FoamFile
{
    version     2.0;
    format      ascii;
    class       labelField;
    location    "0.1025/lagrangian/reactingCloud1";
    object      cellId;
}
// * * * * * * * * * * * * * * * * * * * * * * * * * * * * * * * * * * * * * //


105
(
860
1021
1029
1015
1011
986
976
965
934
931
907
889
540
850
841
640
824
802
781
766
746
742
701
705
670
580
652
380
610
581
589
566
556
524
508
487
499
468
457
428
408
383
361
367
357
325
332
309
285
265
245
223
227
207
182
195
120
144
129
100
110
114
84
62
62
44
25
1
5
885
887
865
824
800
758
785
738
761
700
730
616
637
576
660
670
597
596
627
536
586
558
586
538
549
540
524
503
503
483
472
450
461
420
410
401
)


// ************************************************************************* //
