/*--------------------------------*- C++ -*----------------------------------*\
  =========                 |
  \\      /  F ield         | OpenFOAM: The Open Source CFD Toolbox
   \\    /   O peration     | Website:  https://openfoam.org
    \\  /    A nd           | Version:  7
     \\/     M anipulation  |
\*---------------------------------------------------------------------------*/
FoamFile
{
    version     2.0;
    format      ascii;
    class       vectorField;
    location    "0.1025/lagrangian/reactingCloud1";
    object      coordinates;
}
// * * * * * * * * * * * * * * * * * * * * * * * * * * * * * * * * * * * * * //


105
(
(0.390384 0.137686 3.24082e-07)
(0.426422 0.140498 -4.12329e-07)
(0.424217 0.083488 5.41318e-11)
(0.419476 0.0333367 -9.94676e-13)
(0.417467 0.0669514 -1.10638e-11)
(0.416208 0.100668 1.16621e-11)
(0.4096 0.0253637 -6.88108e-13)
(0.410658 0.111207 3.60956e-11)
(0.40374 0.040688 -1.28477e-11)
(0.401137 0.0642954 -3.07592e-12)
(0.399525 0.0889539 4.57972e-12)
(0.395 0.0788946 2.22182e-12)
(0.320034 0.129667 2.4158e-07)
(0.387651 0.0658455 -3.97372e-11)
(0.387965 0.129539 -1.09479e-12)
(0.341478 0.128753 -3.74011e-07)
(0.380623 0.107149 -2.16697e-10)
(0.378439 0.119643 -4.68729e-11)
(0.373981 0.12581 -2.74085e-11)
(0.368556 0.0936199 -1.76559e-11)
(0.364887 0.0899805 -5.35343e-11)
(0.363438 0.117127 -2.32151e-10)
(0.357942 0.125809 -5.07213e-08)
(0.354425 0.0985025 -2.42236e-11)
(0.347935 0.0608934 -5.42578e-12)
(0.327872 0.12787 3.16792e-07)
(0.339984 0.0496365 -5.00077e-12)
(0.279647 0.12708 -5.69056e-07)
(0.333353 0.0648675 -5.03472e-11)
(0.331542 0.121249 -3.00778e-11)
(0.326014 0.0707527 -3.94236e-13)
(0.322097 0.0863807 -1.7002e-12)
(0.317196 0.0239183 -4.72922e-12)
(0.315273 0.0976266 -1.08929e-10)
(0.310504 0.0724424 -1.60117e-11)
(0.306873 0.0792722 1.0031e-11)
(0.301428 0.00617316 -7.82908e-13)
(0.298636 0.0767997 -1.82345e-11)
(0.293823 0.0161631 5.69137e-14)
(0.290505 0.0734159 -1.38859e-11)
(0.286073 0.0764134 -3.1392e-11)
(0.28303 0.106686 6.88055e-11)
(0.278365 0.120731 4.42593e-11)
(0.274724 0.0784435 -1.43291e-11)
(0.270921 0.0145451 -4.09773e-13)
(0.267132 0.0916632 -7.60945e-12)
(0.262925 0.0478608 7.10924e-12)
(0.258925 0.0677387 1.11487e-11)
(0.254323 0.0916354 7.66613e-13)
(0.251239 0.0949671 -7.97029e-12)
(0.246507 0.0945018 1.66549e-12)
(0.243203 0.106827 4.34126e-11)
(0.239509 0.0794783 -1.32004e-12)
(0.2346 0.0774691 -1.34431e-11)
(0.230739 0.112742 6.48676e-12)
(0.227455 0.0292102 1.38868e-12)
(0.213038 0.126629 -1.99969e-12)
(0.219587 0.0978521 -4.76014e-12)
(0.21513 0.0654827 -1.11735e-12)
(0.209334 0.125978 -2.86803e-12)
(0.210881 0.0584766 8.91062e-13)
(0.207539 0.0366058 -3.02378e-13)
(0.202711 0.102949 -1.8618e-12)
(0.199249 0.113888 8.71005e-12)
(0.195121 0.109884 -1.12049e-13)
(0.191191 0.0994513 9.91427e-13)
(0.187449 0.0910151 -1.78939e-13)
(0.182857 0.118535 1.58333e-11)
(0.179745 0.0904807 -6.96951e-15)
(0.53088 0.0765578 3.55368e-13)
(0.530312 0.0571528 1.42023e-13)
(0.526351 0.0721625 2.51323e-11)
(0.519583 0.0820706 6.40469e-11)
(0.516408 0.115997 3.88095e-12)
(0.506238 0.131101 3.68142e-12)
(0.511793 0.0752717 3.6951e-13)
(0.502138 0.135574 3.85356e-11)
(0.505566 0.106321 3.86972e-12)
(0.495599 0.120283 2.80911e-11)
(0.499912 0.0347264 1.07763e-12)
(0.479383 0.152103 -9.12304e-08)
(0.481541 0.142627 3.03565e-07)
(0.471244 0.15312 3.19444e-07)
(0.48504 0.123473 4.00459e-11)
(0.485799 0.0331474 4.97947e-11)
(0.474858 0.144562 -5.05671e-08)
(0.472708 0.149987 -4.20501e-08)
(0.476565 0.0592828 2.33575e-11)
(0.463571 0.149301 -1.25931e-07)
(0.470638 0.0712006 -1.53705e-12)
(0.466058 0.138071 2.09165e-10)
(0.467516 0.0732713 -1.78288e-13)
(0.46049 0.133223 9.34455e-12)
(0.459836 0.0439421 -6.9114e-13)
(0.459866 0.12172 1.37029e-12)
(0.456743 0.0894922 1.68996e-10)
(0.453795 0.0953109 -4.10199e-13)
(0.450896 0.0912465 -1.73897e-11)
(0.448178 0.0949025 6.20967e-11)
(0.444262 0.0235436 2.02318e-11)
(0.438742 0.0355068 -3.95855e-12)
(0.442543 0.105098 -5.40043e-11)
(0.436721 0.115925 5.94199e-11)
(0.43212 0.0334358 3.53118e-12)
(0.43088 0.10298 -4.79371e-12)
)


// ************************************************************************* //
