/*--------------------------------*- C++ -*----------------------------------*\
  =========                 |
  \\      /  F ield         | OpenFOAM: The Open Source CFD Toolbox
   \\    /   O peration     | Website:  https://openfoam.org
    \\  /    A nd           | Version:  7
     \\/     M anipulation  |
\*---------------------------------------------------------------------------*/
FoamFile
{
    version     2.0;
    format      ascii;
    class       Cloud<passiveParticle>;
    location    "0.1025/lagrangian/reactingCloud1";
    object      positions;
}
// * * * * * * * * * * * * * * * * * * * * * * * * * * * * * * * * * * * * * //

105
(
(0.290931 0.295073 0.0515579 0.362438) 3260 6333 2
(0.146413 0.14424 0.43063 0.278717) 3421 6685 2
(0.281357 0.358015 0.248638 0.11199) 3429 6663 1
(0.656246 0.0404547 0.176934 0.126366) 3415 6674 2
(0.0787193 0.454754 0.105954 0.360573) 3411 6627 1
(0.748026 0.125725 0.0748094 0.0514396) 3386 6581 1
(0.712833 0.0388134 0.0983012 0.150052) 3376 6559 2
(0.0198735 0.159854 0.329406 0.490867) 3365 6538 2
(0.22465 0.359542 0.0782085 0.3376) 3334 6516 1
(0.277666 0.359763 0.0252614 0.337309) 3331 6471 1
(0.567944 0.215559 0.114279 0.102218) 3307 6427 1
(0.00200541 0.497223 0.398857 0.101915) 3289 6390 1
(3.67572e-06 0.500588 0.441604 0.0578046) 2940 96677 2
(0.0980576 0.263394 0.465604 0.172944) 3250 6352 2
(0.737783 0.131082 0.124784 0.00635068) 3241 6298 1
(0.135371 0.423163 0.372559 0.0689065) 3040 5904 1
(0.097334 0.34395 0.0959177 0.462798) 3224 6262 2
(0.527158 0.196927 0.237182 0.0387326) 3202 6222 2
(0.599942 0.089063 0.200358 0.110637) 3181 6181 2
(0.56463 0.0720402 0.145392 0.217938) 3166 6150 2
(0.514874 0.241899 0.0426108 0.200616) 3146 6113 1
(0.0708963 0.283619 0.172592 0.472893) 3142 6102 2
(0.499188 0.250394 0.0118885 0.23853) 3101 6023 1
(0.250561 0.370038 0.140431 0.238969) 3105 6030 1
(0.168497 0.0840449 0.420421 0.327037) 3070 6001 2
(0.246611 0.370567 0.239502 0.14332) 2980 5787 1
(0.446908 0.261168 0.246041 0.0458828) 3052 5927 1
(0.217511 0.386456 0.201636 0.194397) 2780 5397 1
(0.183054 0.408049 0.232953 0.175944) 3010 5846 1
(0.0975344 0.441253 0.0819657 0.379247) 2981 5827 1
(0.0919271 0.450133 0.0858764 0.372064) 2989 5804 1
(0.23058 0.1863 0.191245 0.391875) 2966 5759 2
(0.652011 0.0765594 0.0973514 0.174078) 2956 5741 2
(0.16359 0.417939 0.100795 0.317675) 2924 5680 1
(0.407641 0.296135 0.218652 0.0775721) 2908 5649 1
(0.164465 0.190733 0.425715 0.219087) 2887 5644 2
(0.131137 0.0545974 0.379817 0.434448) 2899 5630 2
(0.204341 0.10235 0.295472 0.397837) 2868 5569 2
(0.939951 0.00300273 0.0262708 0.0307749) 2857 5547 2
(0.740136 0.129932 0.0330825 0.0968493) 2828 5493 1
(0.324867 0.337566 0.228667 0.108899) 2808 5452 1
(0.261888 0.359061 0.039241 0.339809) 2783 5441 1
(0.252293 0.369425 0.210007 0.168274) 2761 5398 1
(0.30487 0.138664 0.347565 0.208901) 2767 5374 2
(0.475615 0.262193 0.242611 0.0195813) 2757 5355 1
(0.401004 0.299498 0.223273 0.0762247) 2725 5292 1
(0.0398435 0.395471 0.0563589 0.508326) 2732 5303 2
(0.329865 0.319528 0.341874 0.00873314) 2709 5258 1
(0.383749 0.00441633 0.303551 0.308283) 2685 5211 2
(0.577219 0.21139 0.130444 0.080946) 2665 5173 1
(0.673566 0.162401 0.139549 0.0244839) 2645 5172 1
(0.00668988 0.48359 0.0655091 0.444211) 2623 5129 1
(0.621273 0.0369105 0.189364 0.152453) 2627 5101 2
(0.00695216 0.408412 0.496524 0.0881121) 2607 5062 2
(0.772381 0.0789272 0.116131 0.0325607) 2582 5049 2
(0.275105 0.328291 0.341567 0.0550369) 2595 5036 1
(0.613516 0.191361 0.0752458 0.119877) 2520 4890 1
(0.320079 0.339961 0.0510047 0.288956) 2544 4939 1
(0.287944 0.356028 0.265788 0.0902399) 2529 4910 1
(0.735991 0.129118 0.0194416 0.115449) 2500 4890 1
(0.0268115 0.0470666 0.489209 0.436913) 2510 4909 2
(0.676796 0.0554665 0.106135 0.161602) 2514 4879 2
(0.0979969 0.403201 0.0478004 0.451002) 2484 4820 2
(0.36013 0.315068 0.149606 0.175196) 2462 4815 1
(0.0515323 0.0578222 0.474234 0.416412) 2462 4779 2
(0.779948 0.0153338 0.0941813 0.110537) 2444 4741 2
(0.20249 0.398755 0.229908 0.168847) 2425 4707 1
(0.167909 0.281844 0.423874 0.126373) 2401 4696 2
(0.0387953 0.357265 0.480602 0.123338) 2405 4681 2
(0.527935 0.234137 0.0379058 0.200022) 3950 7678 1
(0.430717 0.0220526 0.261014 0.286217) 3952 7682 2
(0.196272 0.0988234 0.40163 0.303274) 3930 7642 2
(0.527531 0.236723 0.028135 0.207611) 3889 7562 1
(0.758593 0.0672812 0.123106 0.0510195) 3865 7551 2
(0.236049 0.0250467 0.356146 0.382758) 3823 7430 2
(0.629091 0.0162918 0.186359 0.168257) 3850 7522 2
(0.236016 0.374324 0.260719 0.128941) 3803 7391 1
(0.117346 0.0296764 0.410509 0.442468) 3826 7436 2
(0.667249 0.166447 0.0496936 0.11661) 3765 7318 1
(0.0185883 0.245794 0.52143 0.214187) 3795 7415 2
(0.693963 0.0981244 0.155709 0.0522036) 3681 7192 2
(0.390611 0.101699 0.19988 0.30781) 3702 7194 2
(0.550448 0.221414 0.104813 0.123325) 3641 7114 1
(0.0341202 0.0744502 0.408538 0.482892) 3725 7240 2
(0.0481763 0.476155 0.097421 0.378248) 3735 7262 1
(0.786358 0.104994 0.0421766 0.0664715) 3662 7155 1
(0.162276 0.130702 0.284546 0.422476) 3661 7114 2
(0.373696 0.103463 0.313167 0.209674) 3692 7178 2
(0.165179 0.132903 0.421053 0.280864) 3601 7036 2
(0.332135 0.32348 0.156245 0.18814) 3651 7134 1
(0.368489 0.315399 0.275298 0.0408139) 3623 7041 1
(0.162719 0.418233 0.00733899 0.411709) 3651 7095 1
(0.460436 0.0594034 0.208522 0.271638) 3603 7001 2
(0.656977 0.0333731 0.134801 0.174849) 3614 7023 2
(0.219763 0.00433428 0.385777 0.390126) 3605 7006 2
(0.0458688 0.436169 0.0399872 0.477975) 3589 6975 2
(0.526527 0.236235 0.225203 0.0120351) 3568 6972 1
(0.107199 0.21236 0.224388 0.456053) 3568 6933 2
(0.479967 0.149989 0.109586 0.260458) 3548 6895 2
(0.146198 0.425976 0.276782 0.151043) 3537 6874 1
(0.58181 0.162928 0.0258008 0.229461) 3515 6830 2
(0.00730841 0.140855 0.350074 0.501763) 3526 6851 2
(0.681826 0.158655 0.103259 0.0562595) 3485 6772 1
(0.503629 0.247996 0.207325 0.0410496) 3475 6755 1
(0.342117 0.0140681 0.314332 0.329483) 3466 6734 2
)


// ************************************************************************* //
