/*--------------------------------*- C++ -*----------------------------------*\
  =========                 |
  \\      /  F ield         | OpenFOAM: The Open Source CFD Toolbox
   \\    /   O peration     | Website:  https://openfoam.org
    \\  /    A nd           | Version:  7
     \\/     M anipulation  |
\*---------------------------------------------------------------------------*/
FoamFile
{
    version     2.0;
    format      ascii;
    class       scalarField;
    location    "0.1025/lagrangian/reactingCloud1";
    object      tTurb;
}
// * * * * * * * * * * * * * * * * * * * * * * * * * * * * * * * * * * * * * //


105
(
0.000456
0.000153583
0.001565
0.001541
0.001517
0.001493
0.001469
0.001445
0.001421
0.001397
0.001373
0.001349
0.0001735
0.001301
0.001277
0.00011785
0.001229
0.001205
0.001181
0.001157
0.001133
0.001109
0.00050905
0.001061
0.001037
0.00043305
0.000989
0.00035805
0.000941
0.000917
0.000893
0.000869
0.000845
0.000821
0.000797
0.000773
0.000749
0.000725
0.000701
0.000677
0.000653
0.000629
0.000605
0.000581
0.000557
0.000533
0.000509
0.000485
0.000461
0.000437
0.000413
0.000389
0.000365
0.000341
0.000317
0.000293
0.000269
0.000245
0.000221
0.000220625
0.000197
0.000173
0.000149
0.000125
0.000101
7.7e-05
5.3e-05
2.9e-05
5e-06
0.002477
0.002453
0.002429
0.002381
0.002405
0.002357
0.002309
0.002333
0.002285
0.002213
0.002189
0.000817
0.0001412
0.000744671
0.002117
0.002069
0.000681654
0.000632843
0.001997
0.0005925
0.001949
0.001973
0.001925
0.001901
0.001853
0.001877
0.001829
0.001805
0.001781
0.001757
0.001733
0.001685
0.001709
0.001661
0.001637
0.001613
)


// ************************************************************************* //
