/*--------------------------------*- C++ -*----------------------------------*\
  =========                 |
  \\      /  F ield         | OpenFOAM: The Open Source CFD Toolbox
   \\    /   O peration     | Website:  https://openfoam.org
    \\  /    A nd           | Version:  7
     \\/     M anipulation  |
\*---------------------------------------------------------------------------*/
FoamFile
{
    version     2.0;
    format      ascii;
    class       vectorField;
    location    "0.1025/lagrangian/reactingCloud1";
    object      U;
}
// * * * * * * * * * * * * * * * * * * * * * * * * * * * * * * * * * * * * * //


105
(
(106.027 27.5324 6.48133)
(122.095 16.0517 -8.2465)
(127.359 12.2217 0.00107552)
(132.85 4.326 -2.07604e-05)
(131.613 9.75255 -0.000218289)
(128.196 17.2746 0.000227009)
(136.012 3.46567 -1.32189e-05)
(129.217 21.2927 0.000728719)
(137.558 5.88926 -0.000258203)
(137.878 10.1104 -5.82581e-05)
(137.576 15.8355 9.02414e-05)
(140.015 13.3918 4.42464e-05)
(62.972 6.28967 2.63011)
(143.141 10.5568 -0.000799774)
(139.646 31.8903 -1.84708e-05)
(122.814 9.03794 -7.48034)
(147.513 21.305 -0.00431165)
(148.619 24.9016 -0.000946022)
(150.649 29.2348 -0.000559433)
(152.804 15.8887 -0.000361879)
(153.98 14.4504 -0.00106178)
(157.979 22.3926 -0.00461326)
(160.933 21.5236 -1.0144)
(159.483 14.9627 -0.000478704)
(156.125 7.27144 -0.000110875)
(110.598 13.1841 6.33575)
(157.015 5.23928 -9.93473e-05)
(113.569 -2.07602 -11.3811)
(159.668 6.30438 -0.000999487)
(168.916 13.5275 -0.000604445)
(161.546 6.03762 -7.73623e-06)
(164.17 6.71284 -3.3685e-05)
(159.672 1.77333 -9.68268e-05)
(166.488 6.19342 -0.00216663)
(163.485 4.45541 -0.00031342)
(164.454 4.3775 0.000202524)
(161.285 0.383475 -1.61906e-05)
(164.642 3.52139 -0.000371163)
(162.11 0.791732 8.02594e-07)
(164.71 2.8244 -0.000272992)
(165.045 2.58767 -0.000623334)
(167.164 2.02649 0.00138291)
(165.909 0.658491 0.000894051)
(165.369 1.97396 -0.000290108)
(163.636 0.461938 -7.62507e-06)
(166.006 1.58537 -0.000149034)
(164.549 1.15972 0.000141596)
(165.173 1.30754 0.000221926)
(165.914 1.10628 1.23153e-05)
(165.983 0.950858 -0.000157499)
(165.924 0.842279 3.58643e-05)
(166.102 0.439086 0.000871348)
(165.58 0.884045 -2.76601e-05)
(165.554 0.81402 -0.000269909)
(165.931 0.117207 0.000132465)
(165.15 0.422981 2.76501e-05)
(133.78 -0.190484 -3.93781e-05)
(165.741 0.399174 -9.47015e-05)
(165.501 0.636136 -2.19822e-05)
(150.011 -0.206897 -5.80511e-05)
(165.486 0.596114 1.84609e-05)
(165.438 0.432802 -6.22158e-06)
(165.666 0.243177 -3.73758e-05)
(165.646 0.0224412 0.000175692)
(165.643 0.0979087 -2.30189e-06)
(165.621 0.279807 1.82561e-05)
(165.604 0.408654 -3.54879e-06)
(165.544 -0.0496949 0.000318319)
(165.597 0.413823 -1.39922e-07)
(116.335 -6.6013 6.863e-06)
(119.088 -4.88703 2.6743e-06)
(116.389 -5.57006 0.000509876)
(113.913 -5.21518 0.00127244)
(105.928 -7.09163 7.92292e-05)
(99.1888 -5.89136 7.05821e-05)
(114.551 -3.48283 8.11617e-06)
(96.133 -5.1048 0.000767227)
(107.6 -3.85933 7.44246e-05)
(103.28 -2.1126 0.000549088)
(119.646 -0.664702 2.16879e-05)
(75.7966 5.89782 -1.8246)
(95.4579 10.6823 6.07128)
(70.8859 9.65535 6.38889)
(102.299 0.980442 0.000814871)
(120.323 0.396622 0.000992093)
(89.567 4.65047 -1.01133)
(88.5352 14.1881 -0.84101)
(118.388 1.96262 0.000473725)
(82.2729 9.45392 -2.5186)
(117.321 3.35279 -3.09688e-05)
(95.3407 7.28414 0.00416619)
(117.443 3.98979 -3.10936e-06)
(99.6489 9.38261 0.000183276)
(122.493 2.95546 -1.32614e-05)
(105.745 9.26387 3.94371e-05)
(116.321 7.31431 0.00339062)
(115.651 8.56488 -1.0065e-05)
(117.3 8.7634 -0.00034546)
(117.221 9.8218 0.00125351)
(126.84 2.2038 0.000402415)
(127.541 3.70478 -7.84074e-05)
(116.244 12.7128 -0.000409604)
(115.001 16.4096 0.00117198)
(129.327 3.81629 6.82192e-05)
(121.122 15.1291 -8.73903e-05)
)


// ************************************************************************* //
