/*--------------------------------*- C++ -*----------------------------------*\
  =========                 |
  \\      /  F ield         | OpenFOAM: The Open Source CFD Toolbox
   \\    /   O peration     | Website:  https://openfoam.org
    \\  /    A nd           | Version:  7
     \\/     M anipulation  |
\*---------------------------------------------------------------------------*/
FoamFile
{
    version     2.0;
    format      ascii;
    class       volScalarField;
    location    "0.11";
    object      alphat;
}
// * * * * * * * * * * * * * * * * * * * * * * * * * * * * * * * * * * * * * //

dimensions      [1 -1 -1 0 0 0 0];

internalField   nonuniform List<scalar> 
48560
(
0.00510941
0.00505731
0.00500401
0.0049517
0.00490098
0.00485233
0.00480623
0.00476307
0.00472322
0.00468701
0.00465473
0.00462665
0.00460303
0.00458411
0.00457011
0.00456127
0.0045578
0.00455993
0.0045679
0.00458195
0.00460236
0.00462939
0.00466335
0.00470459
0.00475348
0.00481043
0.00487581
0.00494972
0.00505958
0.00518425
0.00532275
0.00547364
0.00563424
0.00580106
0.00596938
0.00614121
0.00631576
0.00649736
0.00668974
0.00690645
0.00715047
0.00742035
0.00771512
0.00801529
0.00828204
0.00837771
0.00797318
0.00694026
0.00546873
0.00391596
0.00126479
0.000499805
0.000550341
0.000574583
0.000615286
0.000635964
0.000681501
0.00070856
0.000775468
0.000834873
0.000960503
0.0010364
0.00108339
0.00098656
0.00108372
0.000849223
0.000856304
0.000890368
0.000947918
0.00101945
0.00110953
0.00120322
0.00130716
0.00140071
0.00148573
0.00153805
0.00154224
0.0014608
0.00128432
0.00107511
0.000947199
0.000984858
0.00104475
0.00104343
0.00101932
0.000973677
0.0009311
0.000894689
0.000871948
0.000857054
0.000854231
0.000853006
0.000852293
0.000848709
0.000843068
0.000831385
0.000813982
0.000787495
0.000751129
0.00070283
0.00484593
0.00483096
0.00481655
0.00480372
0.00479299
0.00478479
0.00477952
0.00477751
0.0047791
0.00478453
0.0047941
0.00480802
0.00482653
0.00484983
0.00487814
0.00491168
0.00495066
0.00499524
0.00504557
0.00510171
0.00516383
0.00523196
0.00530623
0.00538665
0.00547319
0.0055657
0.00566392
0.00576686
0.00591616
0.00607277
0.00623823
0.00641076
0.00659299
0.00678592
0.00699814
0.00723615
0.00750611
0.00781065
0.00815245
0.00852687
0.00893087
0.00933458
0.0096564
0.00973693
0.00945515
0.00871795
0.00757389
0.00623738
0.00511148
0.00460695
0.0050733
0.00904732
0.00945958
0.00991221
0.0103094
0.01061
0.0102357
0.0103999
0.00971432
0.00989571
0.00897497
0.00868235
0.00777505
0.00820605
0.00716817
0.00711942
0.00693651
0.00696791
0.00676148
0.00672304
0.00669264
0.00676883
0.00685391
0.006994
0.00712508
0.00718043
0.00700454
0.00648416
0.0067329
0.0064251
0.00704643
0.00995715
0.00904563
0.00847818
0.00819161
0.00817036
0.0085604
0.00958179
0.0107124
0.0121421
0.0136122
0.0151028
0.0167037
0.0185533
0.0205782
0.0229583
0.0258311
0.0300276
0.0369559
0.0528135
0.00520562
0.00522052
0.00523804
0.00525825
0.00528156
0.00530826
0.00533862
0.00537277
0.00541089
0.00545302
0.00549927
0.00554963
0.00560425
0.00566312
0.00572636
0.00579389
0.00586573
0.00594174
0.00602182
0.00610645
0.00619544
0.00628908
0.00638741
0.00649076
0.00659929
0.00671344
0.00683363
0.00695973
0.00715467
0.00737087
0.00760878
0.00787355
0.00816579
0.00849009
0.0088482
0.00924142
0.00967019
0.0101218
0.01057
0.0109346
0.0111543
0.0111001
0.010737
0.0100238
0.0090343
0.00787477
0.00689147
0.00625218
0.00621199
0.00693549
0.00896765
0.014204
0.0146893
0.0152067
0.0148706
0.0159231
0.0148242
0.0161095
0.0141408
0.0149853
0.0131527
0.0126933
0.0114298
0.0115838
0.0104462
0.010715
0.0108317
0.0114201
0.011223
0.0118133
0.0117094
0.0116265
0.0116034
0.0116001
0.0116406
0.0116795
0.0117036
0.0115213
0.0113873
0.0102252
0.0145453
0.02302
0.0211959
0.020149
0.0198092
0.0165166
0.019067
0.0195393
0.0258855
0.0318224
0.0386259
0.0429634
0.0475672
0.0529654
0.0592815
0.0672685
0.069777
0.0636187
0.0592189
0.0580422
0.00629866
0.00632834
0.00636179
0.00639988
0.00644185
0.00648894
0.00654038
0.00659703
0.00665802
0.00672405
0.00679466
0.00687057
0.00695151
0.00703814
0.00713038
0.00722888
0.00733376
0.00744577
0.00756539
0.00769295
0.00782886
0.00797363
0.0081275
0.00829114
0.00846518
0.00865049
0.00884765
0.00905765
0.00937553
0.00972078
0.0100928
0.0104922
0.0109129
0.011347
0.0117702
0.0121504
0.0124376
0.0125725
0.0125145
0.0122132
0.0116746
0.0109
0.010003
0.00909925
0.00828881
0.0077167
0.0075458
0.0078907
0.00883878
0.010588
0.0138509
0.0181514
0.0194494
0.0206602
0.0196317
0.0210332
0.0191192
0.0200132
0.0179699
0.0183776
0.0164769
0.0156707
0.0145916
0.0145783
0.0144101
0.0144292
0.0154212
0.0164503
0.0168048
0.0170125
0.0173072
0.0176552
0.0180519
0.0184747
0.0185947
0.0167344
0.0139865
0.0134947
0.0149953
0.0173609
0.0297883
0.0434108
0.0412316
0.0402566
0.0324962
0.0300831
0.0328658
0.0306777
0.0331761
0.0336821
0.037784
0.0409485
0.046435
0.0509814
0.0565194
0.0610302
0.0641499
0.0647124
0.0641721
0.0638483
0.00814588
0.00818895
0.00824014
0.00829982
0.00836729
0.00844379
0.00852858
0.00862268
0.00872531
0.00883735
0.00895825
0.0090889
0.00922893
0.00937916
0.00953929
0.00971005
0.00989113
0.0100831
0.0102855
0.0104989
0.0107228
0.0109573
0.011203
0.01146
0.0117277
0.012005
0.0122896
0.0125791
0.0129567
0.0133248
0.0136492
0.0139172
0.0140884
0.0141477
0.0140708
0.0138427
0.0134498
0.0128967
0.0121951
0.0114628
0.0107008
0.00999382
0.00939364
0.00898916
0.00886959
0.00913356
0.00984342
0.0110333
0.0128054
0.0145268
0.0185548
0.0205021
0.0221463
0.0229204
0.0228978
0.0237655
0.0227115
0.0232877
0.0218372
0.0220477
0.0205884
0.0197336
0.0188536
0.0189804
0.0198202
0.0194333
0.0216725
0.0224366
0.024505
0.0253031
0.0265941
0.0270817
0.0270484
0.025898
0.0234249
0.0202022
0.0174897
0.0170816
0.0170714
0.0221088
0.0336045
0.0407554
0.0428449
0.0286382
0.0266609
0.0273297
0.0286564
0.0288288
0.0324393
0.0341972
0.0393585
0.0430438
0.0495123
0.0550698
0.0622133
0.066703
0.0685925
0.0697148
0.0709072
0.0717009
0.0113632
0.011412
0.011479
0.0115608
0.0116585
0.0117707
0.0118982
0.0120399
0.012196
0.0123656
0.0125488
0.0127449
0.0129538
0.013175
0.0134079
0.0136514
0.0139037
0.014162
0.0144221
0.0146807
0.0149322
0.0151712
0.0153897
0.0155813
0.0157391
0.0158599
0.0159408
0.0159954
0.0159355
0.0158175
0.0155731
0.0152481
0.0148007
0.0142704
0.0136799
0.0130639
0.0124305
0.0118164
0.0112478
0.010766
0.0104018
0.0102156
0.0102585
0.0105949
0.0112726
0.0123168
0.013728
0.0155528
0.0156267
0.0173179
0.0204861
0.0222787
0.0242929
0.0255335
0.0261316
0.0263967
0.026361
0.0262243
0.0256101
0.0252509
0.0244496
0.0236183
0.0234069
0.0240629
0.025845
0.0253862
0.0284872
0.029009
0.0322178
0.0324189
0.0346494
0.0336118
0.0333112
0.0301689
0.0266214
0.0224321
0.0201857
0.0202036
0.0210771
0.0262431
0.0335043
0.0377306
0.0377158
0.0299634
0.0307796
0.0303186
0.0316325
0.0321301
0.0350263
0.0371431
0.0416609
0.045148
0.0508314
0.0561784
0.0631551
0.0693889
0.0730204
0.0753359
0.0770307
0.0780992
0.016416
0.01641
0.0164374
0.0164846
0.0165597
0.0166515
0.0167646
0.0168883
0.0170236
0.0171616
0.0173018
0.0174365
0.0175637
0.0176762
0.0177715
0.0178435
0.0178909
0.0179094
0.0178936
0.017842
0.0177511
0.0176207
0.0174494
0.0172389
0.0169897
0.0167057
0.01639
0.0160607
0.0155682
0.0150893
0.0145633
0.0140628
0.013546
0.013076
0.0126256
0.0122449
0.0119262
0.0117176
0.0116264
0.0117016
0.0119656
0.012466
0.0132233
0.0142583
0.0155674
0.0171395
0.0189975
0.0189301
0.0184372
0.020396
0.0224525
0.0239234
0.0260085
0.0273757
0.0279917
0.0282544
0.0283621
0.0282469
0.0278262
0.0275133
0.027108
0.0268352
0.0272492
0.0286767
0.0308335
0.0307704
0.0338549
0.0345523
0.0376536
0.0380388
0.0401291
0.0387584
0.0379092
0.0338297
0.0297645
0.0255257
0.0236307
0.0231698
0.0244189
0.0290098
0.0327359
0.0350722
0.0335574
0.0306312
0.0321505
0.0322162
0.0338247
0.0349212
0.0378832
0.0404929
0.0450399
0.049548
0.0560861
0.0627207
0.0693354
0.0747068
0.0781279
0.0809557
0.0828152
0.0840067
0.0219646
0.0217623
0.0215766
0.0213998
0.0212385
0.0210788
0.0209245
0.0207625
0.0205956
0.0204129
0.0202175
0.0200015
0.0197681
0.0195116
0.0192352
0.0189356
0.0186165
0.0182787
0.017933
0.0175751
0.0172124
0.0168436
0.0164748
0.0161063
0.015743
0.0153864
0.0150406
0.0147155
0.0143521
0.014055
0.0137742
0.0135603
0.0133909
0.0133064
0.0132949
0.0133937
0.0136029
0.0139571
0.0144659
0.0151581
0.0160376
0.017116
0.0183831
0.019832
0.021451
0.0232691
0.0230974
0.021082
0.0211823
0.0228004
0.0239306
0.0251871
0.0274892
0.0289669
0.0294507
0.0297576
0.0298469
0.0296925
0.0293347
0.0289295
0.0288516
0.029008
0.0301171
0.0321261
0.0345879
0.0352149
0.0379908
0.0388993
0.0417748
0.0426552
0.0442916
0.0429774
0.0411166
0.0364432
0.0318884
0.0280288
0.0265499
0.0262179
0.0276738
0.0309503
0.0329553
0.0352374
0.0340837
0.0336403
0.0347208
0.0353358
0.0366746
0.0382459
0.0409587
0.0440938
0.0486077
0.0537847
0.0603505
0.0674877
0.0747175
0.0803071
0.083938
0.0869144
0.0889198
0.0902095
0.0235077
0.0230865
0.0226573
0.0222422
0.0218331
0.0214338
0.0210397
0.0206515
0.0202685
0.0198903
0.0195182
0.0191515
0.0187925
0.0184404
0.0180981
0.0177649
0.0174441
0.0171354
0.0168419
0.0165645
0.0163077
0.016073
0.0158657
0.0156885
0.0155479
0.015448
0.0153974
0.0154068
0.0154304
0.0155365
0.0156965
0.0159359
0.0162429
0.0166368
0.0171205
0.0177175
0.0184208
0.0192523
0.0202013
0.0212823
0.0224746
0.0237849
0.0251928
0.0267168
0.0283691
0.027929
0.0248568
0.0235572
0.0236546
0.0248002
0.025195
0.0263201
0.0286488
0.0300436
0.0303637
0.0306612
0.0306035
0.030485
0.0300303
0.029661
0.0297554
0.0303056
0.031834
0.0342305
0.0369785
0.0383387
0.040562
0.041611
0.0442237
0.0453915
0.0465794
0.0454421
0.0429673
0.0384843
0.0341577
0.0309382
0.0294897
0.0291055
0.0303195
0.0321993
0.0332388
0.0353658
0.0350005
0.0358101
0.0368513
0.0378796
0.039282
0.0413299
0.0442422
0.0479712
0.0528799
0.0587246
0.0658695
0.0732564
0.0804826
0.0860839
0.0900457
0.093033
0.09523
0.0965956
0.0214525
0.0211011
0.0207436
0.0204093
0.0200817
0.0197728
0.0194725
0.0191895
0.0189186
0.0186666
0.0184316
0.0182178
0.0180243
0.017854
0.0177077
0.0175882
0.0174982
0.0174411
0.0174215
0.0174444
0.0175165
0.0176446
0.0178381
0.0181063
0.0184618
0.0189176
0.0194917
0.0202016
0.0206412
0.0211494
0.0217004
0.0223116
0.0229566
0.023651
0.024404
0.0252356
0.0261231
0.0270867
0.0281041
0.0291933
0.0303332
0.0315438
0.0328167
0.0341886
0.0328517
0.0292734
0.026932
0.0257493
0.0257153
0.0263748
0.0262433
0.0272327
0.0294314
0.0306964
0.0308617
0.0311003
0.0308869
0.0307612
0.0301768
0.0298167
0.0300085
0.030807
0.0325648
0.0351695
0.0381928
0.0401384
0.0418667
0.0430256
0.0454254
0.0468003
0.0478789
0.0470125
0.0444241
0.0403484
0.0364413
0.033764
0.0323305
0.0318354
0.0323821
0.0332618
0.0339652
0.0363994
0.0367993
0.0382463
0.0393428
0.0405859
0.0421549
0.0445098
0.0477933
0.0519341
0.0574651
0.0638432
0.0717088
0.079321
0.0868537
0.0921461
0.0963933
0.099233
0.101679
0.103093
0.0199066
0.0197751
0.0196423
0.0195327
0.0194285
0.0193452
0.0192711
0.01922
0.0191854
0.0191796
0.0191996
0.0192557
0.0193452
0.0194758
0.0196474
0.019868
0.0201402
0.0204729
0.0208718
0.0213473
0.021908
0.0225655
0.0233312
0.0242184
0.0252405
0.0264118
0.0277475
0.0292542
0.0298533
0.0304738
0.0311011
0.0317463
0.0323841
0.0330251
0.0336957
0.034408
0.0351424
0.0359117
0.0367024
0.0375295
0.0383876
0.0392998
0.0402724
0.0368739
0.0337267
0.030754
0.0287757
0.0275196
0.0273425
0.0275582
0.0271006
0.0279324
0.0298717
0.0309601
0.030956
0.0310875
0.0307425
0.0305781
0.0298747
0.0295263
0.0297545
0.0306752
0.0324703
0.0351416
0.038335
0.0406884
0.042147
0.0434532
0.045633
0.0472765
0.0485016
0.0481285
0.0459335
0.0425695
0.0392036
0.0367894
0.0350444
0.0341726
0.0340056
0.0341648
0.0347619
0.0374439
0.0385249
0.0404535
0.0418035
0.0432607
0.0451165
0.0478119
0.0516319
0.0562426
0.0625867
0.0694455
0.0781151
0.0856688
0.0935211
0.0984472
0.102958
0.1056
0.108287
0.109741
0.0206826
0.0207842
0.0208937
0.0210273
0.0211698
0.0213369
0.0215185
0.0217304
0.0219673
0.022245
0.0225615
0.0229319
0.0233541
0.0238381
0.024382
0.0249961
0.0256816
0.0264488
0.0273006
0.0282475
0.0292932
0.0304456
0.0317106
0.033092
0.0345916
0.0362066
0.0379313
0.0397449
0.0401645
0.0405711
0.0409662
0.0413591
0.0417346
0.0420954
0.042475
0.0428755
0.0432834
0.0437043
0.0441356
0.0434466
0.042449
0.0409398
0.0392498
0.0368892
0.0345228
0.0319683
0.0301144
0.0288869
0.0284823
0.0283585
0.0276914
0.0284328
0.0299889
0.0308789
0.0306954
0.0307026
0.0302661
0.0300461
0.0292646
0.0289228
0.0291615
0.0301036
0.0318176
0.0344299
0.0376756
0.0403244
0.0418817
0.0433569
0.0453707
0.0474443
0.049042
0.0494331
0.0479235
0.0453258
0.0423473
0.0398973
0.0376298
0.0362326
0.0353722
0.0350717
0.0357029
0.0386887
0.0403553
0.042735
0.0444148
0.0460872
0.0482459
0.0513437
0.0557588
0.0609451
0.0681475
0.0755112
0.0849224
0.0923912
0.100389
0.104978
0.109644
0.112162
0.115006
0.116515
0.0238713
0.024205
0.0245585
0.0249386
0.0253324
0.0257532
0.0261921
0.0266636
0.0271634
0.0277078
0.0282962
0.0289448
0.0296548
0.0304362
0.0312829
0.0322001
0.033182
0.0342325
0.0353458
0.0365239
0.0377616
0.0390589
0.0404018
0.0417814
0.0431781
0.044573
0.0459423
0.0472668
0.0473764
0.0471231
0.0461422
0.044366
0.0434739
0.0423936
0.0416373
0.0408714
0.0402292
0.0394758
0.0388767
0.0382217
0.0377288
0.0371164
0.0365251
0.0355498
0.0342099
0.0325828
0.0311485
0.0298544
0.0292339
0.0288356
0.028051
0.0288195
0.0298662
0.0305102
0.0301186
0.0299923
0.0295006
0.029228
0.0284113
0.0280815
0.0283278
0.0292365
0.030797
0.0332499
0.0364359
0.0393587
0.0413179
0.0429589
0.0448727
0.0475119
0.0496522
0.0511122
0.0505478
0.0487646
0.0459097
0.0430281
0.0401108
0.0380845
0.0365704
0.0359377
0.0365946
0.0398318
0.0420612
0.0449363
0.047084
0.0490503
0.0515431
0.055165
0.0602401
0.0661652
0.0742292
0.0821443
0.0920937
0.0995069
0.107437
0.11173
0.116377
0.118838
0.121751
0.123327
0.0286395
0.0291864
0.0297624
0.0303647
0.0309803
0.0316181
0.0322676
0.0329377
0.0336219
0.034331
0.0350633
0.0358321
0.0366387
0.0374945
0.0383905
0.0393212
0.0402702
0.0412283
0.0421791
0.0431111
0.0440063
0.0448462
0.045606
0.0462643
0.0467952
0.0471775
0.046031
0.044201
0.0438366
0.0411333
0.0406514
0.0390295
0.0384384
0.0373594
0.0367198
0.0360289
0.0354536
0.034924
0.0343468
0.0338519
0.0333575
0.0329392
0.0325818
0.0323032
0.0321221
0.0318058
0.0311667
0.0303071
0.0297259
0.0291337
0.0283765
0.0290926
0.0295546
0.0298659
0.029244
0.0289935
0.0284861
0.0282011
0.0274179
0.0271258
0.0273767
0.0282178
0.0295756
0.0317917
0.03482
0.0379727
0.0405093
0.042369
0.0442644
0.0475955
0.0504615
0.0532984
0.0538781
0.0528073
0.049683
0.0460175
0.042397
0.0396904
0.0376654
0.0367379
0.0374123
0.0408376
0.0435783
0.0470394
0.0498159
0.0521627
0.0550357
0.0593111
0.065127
0.0719513
0.0808755
0.0894153
0.099695
0.107021
0.114663
0.11866
0.123099
0.125537
0.128436
0.130081
0.0335054
0.0341773
0.0348782
0.0355985
0.0363243
0.0370603
0.0377927
0.038523
0.0392386
0.0399402
0.0406192
0.0412799
0.0419197
0.0425471
0.0431624
0.0437587
0.0443129
0.0448044
0.0452077
0.0455018
0.0450495
0.0440956
0.043267
0.0423682
0.041387
0.0402421
0.0392738
0.038181
0.0380435
0.0358515
0.0358015
0.0343877
0.0341894
0.0332993
0.0329712
0.0325038
0.0320661
0.0317905
0.0313313
0.030957
0.0305547
0.0302442
0.0299483
0.029789
0.0297276
0.0297562
0.0298599
0.0300514
0.029887
0.0296178
0.0288648
0.0294112
0.0292747
0.0290913
0.0281347
0.0277142
0.0271989
0.0269286
0.0262072
0.0259618
0.0262379
0.0270311
0.028202
0.0301753
0.0329855
0.0362543
0.0392775
0.041488
0.0436906
0.0475836
0.0514784
0.0558742
0.0578402
0.0572722
0.0534517
0.0487839
0.0443782
0.0410321
0.038634
0.0374332
0.0380819
0.0415951
0.04482
0.0490015
0.0524958
0.0554803
0.0588745
0.0638806
0.0705878
0.0784324
0.0882382
0.097346
0.107739
0.114879
0.122068
0.125723
0.129757
0.132136
0.134948
0.136651
0.0368343
0.0374729
0.0381275
0.0387881
0.0394408
0.0400884
0.0407163
0.0413219
0.0418887
0.0424098
0.0428685
0.0432575
0.0435654
0.0437921
0.0439368
0.0440078
0.0433609
0.0419405
0.0402496
0.0386221
0.0371369
0.0359142
0.034935
0.0341646
0.0334907
0.0328338
0.0323335
0.0319305
0.0320049
0.0304092
0.0307636
0.0295356
0.0297418
0.0290731
0.029081
0.0288151
0.0285793
0.028452
0.0281837
0.0280762
0.0279687
0.0279749
0.0279888
0.0280476
0.0280979
0.0282109
0.0285116
0.0289494
0.0294198
0.0298429
0.0294225
0.0296611
0.0288495
0.0279766
0.0266586
0.0260975
0.0256346
0.025479
0.0249538
0.0248242
0.0251388
0.0258789
0.0268376
0.0285202
0.03097
0.0341473
0.0373836
0.0402093
0.0432879
0.0472602
0.0526664
0.0585406
0.062143
0.0617393
0.0568436
0.0511787
0.0461129
0.0422644
0.0395554
0.0381216
0.0386769
0.0422119
0.0459639
0.0509237
0.0552497
0.0593514
0.063488
0.0692274
0.0770673
0.0859674
0.0966834
0.106077
0.116202
0.122869
0.129454
0.132756
0.136226
0.138425
0.141069
0.142811
0.0375263
0.0379745
0.0384183
0.0388529
0.0392663
0.0396615
0.0400282
0.0403628
0.040649
0.0408811
0.0410412
0.0411165
0.0410875
0.0409424
0.0406706
0.0377871
0.035986
0.0349074
0.0335781
0.0318966
0.0301824
0.0286624
0.0274111
0.0264919
0.025865
0.0254608
0.0253131
0.0254194
0.0258367
0.0252161
0.0261049
0.0250477
0.0256193
0.0250772
0.0253661
0.0251355
0.0251523
0.0249725
0.0249378
0.024972
0.0250613
0.0252054
0.025503
0.0258355
0.0263308
0.0267948
0.0273334
0.0278356
0.0285971
0.0294844
0.0300614
0.0302258
0.0291266
0.0273339
0.025242
0.0242288
0.0237211
0.0236665
0.0233443
0.0232917
0.0236552
0.0244143
0.0252225
0.026729
0.0288037
0.0318315
0.0350962
0.0385718
0.0426298
0.0465957
0.0536481
0.0608997
0.0661518
0.0655963
0.0596079
0.0530395
0.0475035
0.043369
0.0404267
0.0388133
0.0392062
0.0427108
0.0470498
0.0528701
0.0584562
0.0643209
0.0695723
0.0762622
0.0855944
0.0955318
0.107
0.11604
0.125097
0.130595
0.136282
0.139396
0.142346
0.144187
0.146441
0.148167
0.0353975
0.0355758
0.0357324
0.0358695
0.0359782
0.0360627
0.0361176
0.0361395
0.0361162
0.0360455
0.0359178
0.0357234
0.035446
0.0350707
0.0345799
0.0339622
0.0324314
0.0296382
0.0280236
0.0264768
0.024594
0.0226439
0.02102
0.0197777
0.0190173
0.0186528
0.0185867
0.0174832
0.0179498
0.0184122
0.018858
0.0193702
0.01993
0.0205999
0.0212889
0.0217874
0.0221398
0.0220601
0.0223026
0.0223814
0.0226138
0.0227474
0.0231037
0.0234081
0.0239816
0.0246236
0.0254939
0.026378
0.0274009
0.0286031
0.029624
0.0301393
0.0282863
0.0255441
0.0230038
0.0217298
0.0212632
0.021485
0.0216966
0.0219912
0.0223907
0.0233203
0.0238755
0.0252172
0.0266642
0.0293117
0.0323953
0.0361461
0.040682
0.0461364
0.0535625
0.0627028
0.0689709
0.0679805
0.0611854
0.0542128
0.0485459
0.0443842
0.0413642
0.0396377
0.0398143
0.0431759
0.0478999
0.0546339
0.0619222
0.0701913
0.0774881
0.0860831
0.0973706
0.108542
0.119938
0.127577
0.134374
0.138112
0.142392
0.145524
0.148249
0.149648
0.150974
0.152393
0.0310515
0.0309798
0.0308794
0.0307582
0.0306111
0.030441
0.030243
0.0300164
0.0297558
0.0294623
0.0291305
0.0287585
0.0283377
0.0278607
0.0273133
0.0266813
0.0259476
0.0251026
0.0241467
0.0218637
0.0199689
0.0179874
0.0160843
0.0145504
0.0134774
0.0128497
0.0126083
0.0113174
0.011707
0.0120795
0.0124334
0.0128595
0.0133128
0.0138744
0.0144513
0.0150952
0.015772
0.01651
0.0172944
0.0181529
0.0190882
0.0201287
0.0206336
0.0209362
0.021486
0.0221568
0.0231726
0.0243627
0.0259016
0.0277411
0.0296832
0.0324049
0.0320701
0.0279286
0.0229442
0.0201024
0.0189297
0.0189786
0.0192449
0.0200104
0.0202416
0.0214603
0.021734
0.0231824
0.024198
0.0268613
0.0298309
0.0335964
0.0378695
0.0452925
0.0528461
0.0637086
0.0705873
0.0688232
0.0616024
0.0545905
0.0490237
0.044919
0.0419394
0.040067
0.0397875
0.0423755
0.0475244
0.0549687
0.063935
0.0748167
0.0856435
0.0966634
0.109305
0.121611
0.129054
0.133022
0.137076
0.141118
0.145053
0.148741
0.15202
0.153949
0.154688
0.155554
0.0254661
0.0252314
0.0249702
0.0246928
0.0243972
0.0240836
0.0237496
0.0233954
0.0230193
0.0226224
0.0222026
0.0217601
0.0212919
0.0207961
0.020267
0.0196979
0.0190768
0.01839
0.0176219
0.0167629
0.0158202
0.0148047
0.0134789
0.0111378
0.00943166
0.00846343
0.00826033
0.00730584
0.00752619
0.00774876
0.00795034
0.00822039
0.00850539
0.00888162
0.00927062
0.0097253
0.0102084
0.0107533
0.0113341
0.0119862
0.0127049
0.0135248
0.0144467
0.0155015
0.0166938
0.0180409
0.0195316
0.0209283
0.0225599
0.0244747
0.0262336
0.0277692
0.0287831
0.0254631
0.0197723
0.0176471
0.017158
0.0173055
0.0177632
0.0192291
0.0192851
0.0207563
0.0209031
0.0223475
0.022871
0.0249312
0.0268262
0.0301928
0.0341524
0.0405086
0.0501125
0.0582597
0.0646085
0.0631949
0.0580022
0.0523314
0.0478861
0.044458
0.0417645
0.039884
0.03935
0.0417036
0.0464092
0.0532178
0.062735
0.0741061
0.0874879
0.0952922
0.0989344
0.102936
0.107319
0.112105
0.117307
0.122913
0.128866
0.135074
0.141342
0.147345
0.152581
0.156372
0.0196244
0.0193299
0.0190163
0.0186923
0.0183589
0.0180142
0.0176585
0.0172911
0.0169118
0.0165207
0.0161173
0.0157017
0.0152735
0.0148325
0.0143781
0.0139097
0.0134246
0.0129192
0.0123847
0.0118083
0.0111736
0.0104688
0.00969972
0.0088738
0.00735158
0.0058782
0.00546205
0.00512534
0.00517022
0.00523539
0.00529707
0.00541068
0.00553608
0.00572247
0.00591715
0.00616135
0.00642396
0.00673477
0.00706806
0.00745635
0.00788924
0.00839369
0.00898489
0.00968238
0.0104959
0.0114408
0.0125162
0.0137155
0.0150064
0.0163421
0.0176415
0.0188366
0.019447
0.0198793
0.0203856
0.0211832
0.0188645
0.0172731
0.017091
0.0190856
0.0185997
0.0204974
0.0204271
0.0212729
0.0217456
0.022781
0.0257279
0.029791
0.0348481
0.0402153
0.0534666
0.0568021
0.0565168
0.0564345
0.0552675
0.0490672
0.0445176
0.0414809
0.0392294
0.0376137
0.0363603
0.0364191
0.0390693
0.0450336
0.0544758
0.0605342
0.0627889
0.0656887
0.0687375
0.0722295
0.0762278
0.0808179
0.0860641
0.092111
0.0990872
0.107189
0.116556
0.127251
0.138942
0.150368
0.0143738
0.0141081
0.0138314
0.013549
0.0132641
0.0129734
0.0126789
0.0123787
0.012074
0.0117638
0.0114488
0.0111282
0.0108027
0.010472
0.0101363
0.00979574
0.00945037
0.00909978
0.00874241
0.0083758
0.00799105
0.00757472
0.00711188
0.00660389
0.0060514
0.00493558
0.00384249
0.00403851
0.00405208
0.0040223
0.00399673
0.00400942
0.00403116
0.00408818
0.00415069
0.00424161
0.00434081
0.00446707
0.00460189
0.00476546
0.00494939
0.00517003
0.00543388
0.00576091
0.00615693
0.00663621
0.00720087
0.00785611
0.0085849
0.00936575
0.0101539
0.010913
0.0112649
0.0114578
0.011595
0.0118088
0.00946746
0.00959831
0.0146998
0.0206153
0.0225665
0.0255808
0.0264293
0.028042
0.0290675
0.0290952
0.0308665
0.0292781
0.0287869
0.028926
0.031652
0.0334643
0.0330736
0.0328268
0.0326492
0.0324683
0.0322728
0.0320552
0.0315152
0.0301562
0.0290852
0.0296072
0.0308564
0.0313192
0.0317294
0.0322984
0.0333939
0.0350794
0.0368734
0.03899
0.0414667
0.0443941
0.0478317
0.0519971
0.0571063
0.0636071
0.0721156
0.0837675
0.100424
0.125293
0.0103886
0.0102092
0.0100249
0.00983715
0.00965045
0.00946044
0.00927035
0.00907706
0.00888282
0.00868545
0.00848637
0.00828404
0.00807906
0.0078703
0.00765787
0.00744146
0.0072216
0.00699922
0.00677525
0.00655017
0.00632314
0.00609117
0.00583875
0.00553631
0.00515635
0.004512
0.00270574
0.00298454
0.00347696
0.00345341
0.00339592
0.00338096
0.0033579
0.00336395
0.00336463
0.00338404
0.00340101
0.00343002
0.00345572
0.00349188
0.00353201
0.00358763
0.00365878
0.00375326
0.00387457
0.00403186
0.0042286
0.00446618
0.00474145
0.00504138
0.00534685
0.00563553
0.00576288
0.00579737
0.00576181
0.00573181
0.00578231
0.00628958
0.00861143
0.010947
0.0114769
0.0119757
0.0127212
0.013532
0.0141801
0.015059
0.0157902
0.016334
0.0168691
0.0167817
0.0153313
0.0156792
0.0154197
0.0147451
0.0143863
0.014075
0.0137924
0.0135799
0.0132701
0.0130256
0.0127614
0.0127778
0.01297
0.0130033
0.0128001
0.0126728
0.0129073
0.0133885
0.013862
0.0144561
0.0151923
0.016089
0.0171315
0.0184127
0.0199876
0.0220596
0.0249074
0.0292281
0.0366542
0.0539218
0.00750341
0.00740229
0.00729589
0.00718523
0.00707338
0.00695691
0.00683864
0.00671533
0.00658949
0.0064581
0.0063233
0.00618233
0.00603674
0.00588407
0.00572547
0.00555902
0.00538525
0.00520188
0.00500847
0.00480323
0.00458763
0.00436155
0.0041223
0.00385873
0.00354934
0.00318459
0.00275581
0.000638869
0.0006186
0.000613332
0.000606702
0.000607376
0.000609448
0.00061468
0.000620275
0.000626359
0.000632422
0.000637507
0.000641095
0.000642464
0.000642465
0.000641161
0.000639436
0.000638111
0.000638151
0.000640113
0.000644183
0.00065102
0.000660492
0.000672947
0.000687146
0.000699382
0.000704801
0.00070511
0.000701671
0.000695769
0.000683673
0.000649547
0.000672566
0.000733421
0.000780292
0.000824326
0.000858457
0.000891228
0.000918742
0.000946412
0.000971187
0.00100788
0.00104763
0.00109388
0.0011432
0.00118108
0.00121331
0.00123603
0.00124349
0.00124205
0.00123294
0.00121667
0.00119516
0.00117003
0.00114484
0.00113424
0.00112301
0.00110729
0.00108731
0.00106339
0.0010385
0.00101774
0.000999783
0.000984184
0.000969964
0.000956388
0.0009417
0.000925
0.000904904
0.000880376
0.000850297
0.000813766
0.000769872
0.00071769
0.000376876
0.0196669
0.0223962
0.0224855
0.0224883
0.022488
0.0224875
0.0224869
0.0224863
0.0224858
0.0224854
0.0224854
0.0224856
0.0224862
0.0224867
0.0224873
0.0224877
0.0224881
0.0224884
0.0224887
0.000403024
0.0176242
0.022216
0.0224617
0.0224721
0.0224721
0.0224717
0.0224712
0.0224707
0.0224702
0.0224701
0.0224704
0.0224714
0.0224729
0.0224745
0.0224759
0.0224772
0.0224782
0.022479
0.0224795
0.000427822
0.0161198
0.0219891
0.0224322
0.0224558
0.0224567
0.0224564
0.0224559
0.0224556
0.0224552
0.0224553
0.0224561
0.0224579
0.0224604
0.022463
0.0224654
0.0224674
0.022469
0.0224703
0.0224712
0.000451216
0.0149563
0.0217303
0.0223967
0.0224395
0.0224417
0.0224416
0.0224412
0.022441
0.0224407
0.022441
0.0224422
0.0224448
0.0224482
0.0224519
0.0224552
0.022458
0.0224603
0.022462
0.0224632
0.000473213
0.0140185
0.0214489
0.0223547
0.0224227
0.0224269
0.022427
0.0224268
0.0224267
0.0224266
0.0224271
0.0224288
0.022432
0.0224365
0.0224412
0.0224454
0.022449
0.0224519
0.0224541
0.0224557
0.00049389
0.0132074
0.0211481
0.0223057
0.0224051
0.0224122
0.0224127
0.0224126
0.0224126
0.0224127
0.0224134
0.0224156
0.0224197
0.0224251
0.0224309
0.0224361
0.0224405
0.022444
0.0224467
0.0224485
0.000513249
0.0124531
0.0208273
0.0222496
0.0223866
0.0223975
0.0223984
0.0223985
0.0223987
0.0223991
0.0224001
0.0224028
0.0224076
0.0224141
0.0224209
0.022427
0.0224322
0.0224364
0.0224396
0.0224417
0.0005314
0.0117425
0.0204879
0.0221863
0.022367
0.0223828
0.0223843
0.0223847
0.0223851
0.0223857
0.0223871
0.0223903
0.022396
0.0224034
0.0224113
0.0224184
0.0224244
0.0224293
0.0224329
0.0224353
0.000548361
0.0110855
0.0201344
0.0221158
0.0223462
0.0223681
0.0223703
0.0223711
0.0223717
0.0223726
0.0223743
0.0223781
0.0223847
0.0223931
0.022402
0.0224101
0.022417
0.0224225
0.0224266
0.0224292
0.000564249
0.0104897
0.0197712
0.0220382
0.0223241
0.0223533
0.0223566
0.0223577
0.0223586
0.0223598
0.0223619
0.0223663
0.0223737
0.0223832
0.0223932
0.0224022
0.02241
0.0224161
0.0224207
0.0224236
0.000579068
0.00995637
0.0194033
0.0219539
0.0223007
0.0223385
0.022343
0.0223445
0.0223458
0.0223473
0.0223498
0.0223549
0.0223632
0.0223737
0.0223848
0.0223948
0.0224034
0.0224102
0.0224153
0.0224185
0.00059293
0.00948183
0.0190352
0.0218633
0.0222759
0.0223238
0.0223297
0.0223317
0.0223333
0.0223352
0.0223382
0.0223439
0.0223531
0.0223647
0.0223768
0.0223879
0.0223972
0.0224048
0.0224104
0.0224138
0.000605823
0.00906097
0.0186707
0.0217668
0.0222497
0.022309
0.0223167
0.0223192
0.0223212
0.0223235
0.022327
0.0223334
0.0223434
0.0223561
0.0223693
0.0223814
0.0223916
0.0223998
0.022406
0.0224097
0.000617851
0.00868769
0.0183128
0.0216653
0.0222221
0.0222943
0.022304
0.022307
0.0223094
0.0223123
0.0223164
0.0223234
0.0223344
0.0223481
0.0223624
0.0223755
0.0223866
0.0223955
0.0224021
0.0224061
0.000628974
0.00835542
0.0179641
0.0215595
0.0221932
0.0222797
0.0222918
0.0222953
0.0222982
0.0223016
0.0223062
0.022314
0.0223259
0.0223407
0.0223561
0.0223702
0.0223822
0.0223918
0.022399
0.0224032
0.000639227
0.00805461
0.0176262
0.0214501
0.0221632
0.0222652
0.0222799
0.0222842
0.0222876
0.0222915
0.0222968
0.0223053
0.0223181
0.022334
0.0223505
0.0223656
0.0223785
0.0223888
0.0223965
0.0224011
0.000648557
0.00778229
0.0173008
0.0213381
0.0221322
0.0222511
0.0222687
0.0222737
0.0222778
0.0222822
0.0222881
0.0222974
0.0223111
0.0223282
0.0223458
0.022362
0.0223758
0.0223867
0.0223949
0.0223998
0.00065701
0.00753563
0.016989
0.0212245
0.0221005
0.0222375
0.0222583
0.022264
0.0222687
0.0222738
0.0222803
0.0222904
0.0223051
0.0223233
0.0223421
0.0223593
0.022374
0.0223856
0.0223943
0.0223995
0.000664454
0.00731243
0.0166922
0.0211104
0.0220684
0.0222245
0.0222486
0.0222553
0.0222608
0.0222665
0.0222737
0.0222845
0.0223003
0.0223195
0.0223395
0.0223577
0.0223733
0.0223857
0.0223949
0.0224003
0.000671128
0.00711075
0.0164115
0.0209971
0.0220363
0.0222125
0.0222401
0.022248
0.0222541
0.0222604
0.0222683
0.02228
0.0222967
0.0223171
0.0223382
0.0223575
0.022374
0.0223871
0.0223969
0.0224026
0.000676556
0.00692915
0.0161483
0.0208861
0.0220049
0.0222017
0.0222329
0.0222422
0.022249
0.0222559
0.0222645
0.022277
0.0222948
0.0223163
0.0223385
0.0223589
0.0223763
0.02239
0.0224005
0.0224064
0.000681136
0.00676657
0.0159041
0.0207791
0.0219745
0.0221925
0.0222276
0.0222384
0.0222458
0.0222534
0.0222626
0.0222759
0.0222947
0.0223173
0.0223406
0.0223621
0.0223804
0.0223948
0.0224058
0.022412
0.00068467
0.00662212
0.0156803
0.0206782
0.0219459
0.0221856
0.0222248
0.0222371
0.0222451
0.0222532
0.022263
0.022277
0.0222967
0.0223204
0.0223449
0.0223674
0.0223866
0.0224018
0.0224132
0.0224198
0.000686679
0.00648863
0.015471
0.0205835
0.0219195
0.0221815
0.0222253
0.0222389
0.0222472
0.0222558
0.0222661
0.0222807
0.0223013
0.0223261
0.0223516
0.0223752
0.0223953
0.0224111
0.0224231
0.02243
0.000689633
0.00634956
0.0152565
0.0204904
0.0218948
0.0221813
0.0222299
0.0222446
0.022253
0.0222618
0.0222723
0.0222875
0.0223089
0.0223346
0.0223613
0.0223858
0.0224068
0.0224233
0.0224358
0.0224431
0.000696023
0.00620448
0.0150323
0.0201351
0.0218729