/*--------------------------------*- C++ -*----------------------------------*\
  =========                 |
  \\      /  F ield         | OpenFOAM: The Open Source CFD Toolbox
   \\    /   O peration     | Website:  https://openfoam.org
    \\  /    A nd           | Version:  7
     \\/     M anipulation  |
\*---------------------------------------------------------------------------*/
FoamFile
{
    version     2.0;
    format      ascii;
    class       volScalarField;
    location    "0.11";
    object      p;
}
// * * * * * * * * * * * * * * * * * * * * * * * * * * * * * * * * * * * * * //

dimensions      [1 -1 -2 0 0 0 0];

internalField   nonuniform List<scalar> 
48560
(
25765
25776.6
25785.5
25792.3
25797.5
25801.3
25804.2
25806.4
25808
25809.3
25810.3
25811.2
25811.9
25812.6
25813.3
25814
25814.9
25815.9
25817.1
25818.5
25820.3
25822.4
25825
25828.1
25832
25836.6
25841.8
25847.1
25855
25865.3
25877.9
25893
25910.8
25931.4
25955.9
25986
26021.9
26065.5
26117.1
26174.4
26239.3
26314.2
26396.8
26482.1
26579.6
26685.6
26813.7
26955.7
27061.7
27224.8
28083.4
32823.9
35725
38068.7
40291.5
42113.2
43912.5
45503.6
47053
48409.5
49614.4
50611.6
51050.3
51152.2
51271.8
51075.8
50941.7
50839.4
50678.7
50529.3
50340.8
50107.9
49796.1
49384.2
48813.8
48024.4
46893.8
45109
41889.1
37748.2
36622.5
37703
37703
37386.1
36736.1
36103.3
35863.5
35876.9
36106.5
36668
37400.4
38167.2
38907.6
39602.6
40226.1
40771
41225.9
41586.9
41838.4
41934.7
25804.3
25816.1
25824.9
25831.1
25835.5
25838.3
25840.2
25841.3
25841.9
25842.2
25842.4
25842.4
25842.5
25842.5
25842.5
25842.6
25842.8
25843.2
25843.7
25844.5
25845.6
25847.1
25848.9
25851.3
25854.2
25857.8
25861.8
25865.8
25871.9
25880.3
25891.1
25904.7
25921.5
25941.8
25965.5
25993.5
26028.2
26069.2
26115
26166.3
26227.4
26301.8
26383.7
26488.1
26612.7
26699.4
26734.9
26765.6
26882.3
27415.9
29242.7
32841.5
35375.9
37786.4
39875
41783.1
43544.3
45186.3
46729.6
48121.7
49346.2
50351.8
50840.5
51059.3
51142
50957.7
50876.2
50771.2
50609.2
50448.6
50231.5
49964.9
49604.6
49126.3
48464.2
47545.9
46184
44011
41067.7
38912.3
38347.3
38053.7
37762.7
37317.6
36932.8
36808.6
36810
36898.7
37175.2
37604.9
38127.9
38737.6
39360.1
39965.2
40514.8
40995.1
41381.3
41664.6
41838.3
41896.2
25846.5
25859
25868
25874
25877.8
25879.9
25881
25881.4
25881.4
25881.3
25880.8
25880
25878.9
25877.5
25876
25874.5
25873.1
25872
25871.2
25870.9
25870.8
25870.9
25871.3
25872.1
25873.6
25875.9
25878.9
25882.3
25888
25895.6
25905.5
25918.4
25933.7
25950.3
25968.6
25992.4
26024.8
26065.6
26109.5
26162.6
26233.7
26315.4
26390.5
26462.2
26534.2
26602
26682.9
26832.2
27204.2
28130.7
30069.3
32960.3
35403.8
37713.6
39760.2
41638.9
43395.1
45018.4
46562.2
47949.4
49173.8
50132.2
50632.2
50856.4
50884.4
50783.4
50741
50617.4
50475.9
50310.1
50098.3
49826.8
49458.3
48963.3
48277.7
47308.1
45851.2
43615.8
40872.8
39112.2
38604.4
38213.1
37794.1
37335.2
37004.8
36937.1
36949.1
37060.6
37343.1
37768.2
38299.4
38875.3
39465.9
40034.3
40563.9
41032
41412.8
41684.1
41840
41889.5
25895.5
25909.3
25918.5
25923.8
25926.5
25927.5
25927.6
25927.5
25926.8
25925.3
25923.1
25920.3
25917
25913.4
25909.8
25906.6
25903.9
25901.8
25900.4
25899.6
25899.2
25899.1
25899.2
25899.5
25900.2
25901.2
25902.5
25903.8
25905.9
25908.9
25914.5
25924.2
25938
25953.4
25971.5
25997.6
26034.6
26083.6
26132.3
26177.3
26220.3
26267.5
26322.9
26378.4
26433
26502.8
26631.5
26868.2
27415.6
28555.9
30501.6
33045.5
35300.1
37535.6
39494.7
41389.4
43111
44762.6
46290.2
47697.7
48909.4
49857.4
50377.6
50603.7
50616.6
50573
50540.6
50414
50288.8
50102.9
49878.1
49572.6
49170.8
48624.1
47871.3
46797.2
45218.2
43068.1
40916.5
39588.3
38931
38407.1
37961
37634.6
37506
37494.3
37524.2
37652.4
37909.8
38276
38735.8
39248.8
39779.3
40293.7
40764.3
41168.9
41489.6
41714.4
41845.5
41888.1
25944.3
25959.4
25969
25974.5
25977
25977.9
25978
25977.7
25976.8
25975.2
25972.7
25969.5
25965.7
25961.5
25956.9
25952
25947
25942.1
25937.3
25932.9
25928.9
25925.5
25922.7
25920.6
25919.1
25918
25917.5
25917.4
25917.9
25920.6
25927.3
25939.6
25958.5
25981.1
26004.3
26028.6
26052.8
26077.7
26108.4
26143
26183.5
26224
26265.5
26312.3
26375.6
26479.5
26658.9
27018.9
27721.6
28956.9
30808.9
33107.1
35259.3
37386.1
39316.4
41171.6
42884.6
44523.8
46049.6
47449.7
48645.5
49562.6
50087.3
50314.7
50341.1
50331.3
50301.6
50199.3
50085.9
49903.6
49681.3
49366.8
48953
48378.6
47584.6
46444.4
44823.3
42802.1
40994.2
39881.3
39160.2
38560.1
38122.9
37854.6
37782.4
37781.5
37824.4
37961.7
38216.3
38571
39001.4
39471
39957.5
40431.9
40872.8
41249.7
41539.7
41734.7
41847.6
41885
25995.1
26013.7
26025.8
26032.8
26036.3
26037.7
26037.9
26037.6
26036.4
26034.1
26030.5
26025.5
26019.3
26011.9
26003.6
25994.6
25985.1
25975.6
25966.7
25959
25953.2
25949.4
25947.7
25947.3
25947.9
25950.2
25953.8
25956.8
25959.9
25964.3
25968.8
25974.6
25981.5
25992
26007
26025.5
26045.4
26065.4
26087.8
26115.4
26144.2
26176.1
26215.1
26269.9
26354.6
26489
26736
27193.4
27993.3
29255.5
31003.4
33126.3
35187.4
37213.7
39098.1
40923.9
42618.2
44254.7
45770.5
47168.8
48346.1
49247.9
49774.9
50015.7
50064.8
50064.6
50036.8
49955.9
49843.4
49662.1
49431.1
49100.3
48662.5
48048.9
47201.3
46003.3
44410.3
42629.6
41129
40109.9
39353.6
38755.7
38375.3
38195.6
38159.9
38162
38212.4
38348.7
38583.5
38906
39297.6
39727.6
40173.4
40603.2
40994.8
41326.1
41579.4
41748.9
41848.1
41881.5
26053
26075.1
26089.3
26096.9
26100.2
26100.9
26100.7
26099.5
26096.8
26092.5
26086.8
26080.1
26072.7
26065.2
26057.9
26051.1
26044.6
26037.9
26031.2
26024.7
26018.4
26012.4
26006.5
26001
25995.9
25991.6
25988.9
25988.3
25988.3
25989.8
25992.1
25996.8
26002.5
26010.1
26018.8
26029.2
26041.1
26055.3
26071.8
26091.5
26115.5
26147.9
26193.5
26260.3
26363.7
26542.6
26855.4
27387.9
28239.1
29486.2
31132.3
33127
35100.7
37042.6
38886.5
40674.4
42355.6
43978.2
45488.1
46873
48033.2
48917.4
49449.9
49709.7
49785.6
49790.3
49770.8
49708.7
49601.5
49428.2
49194.1
48856.5
48401
47759.5
46875.3
45655.8
44128.7
42547.9
41246.9
40283.8
39525.7
38958.4
38627.2
38495.3
38472.9
38478.3
38533.4
38666
38886.9
39185.6
39545.3
39940.6
40346.9
40739.6
41095
41389.9
41612.1
41760.3
41848.1
41878.3
26114
26143.3
26164.6
26178.5
26187
26191.4
26193.2
26193.6
26193.4
26192.3
26189.9
26185.7
26179.7
26171.5
26161.4
26149.7
26137.1
26124.5
26112.2
26100.2
26088.7
26077.7
26067.3
26057.7
26048.9
26041.2
26035
26030.9
26027.7
26026.4
26025.7
26025.8
26026.2
26027.6
26030.2
26034.7
26041.2
26051.2
26064.3
26082.1
26106.2
26141
26192.3
26274.2
26408.4
26632
26998.8
27580.2
28450.1
29659.6
31212.7
33107.9
34993.6
36857.1
38658.4
40410
42075.8
43684.9
45186.3
46557.7
47702.1
48575.7
49117
49398.7
49497.6
49509.1
49496.7
49446.7
49344.2
49176.5
48937.4
48590.9
48115.1
47446
46534.5
45326.6
43909
42518.8
41354.7
40435.2
39706.2
39189.6
38909
38808.3
38791.5
38798.7
38852.9
38977.9
39181.4
39455.2
39783.2
40143
40511.7
40865.1
41182.1
41443.7
41639.2
41769.5
41847.7
41875.2
26206.9
26248.9
26281.5
26305
26321
26330.9
26336.3
26338.7
26339.4
26339.5
26338.7
26336.5
26332.5
26326.2
26317.6
26306.3
26292.6
26276.6
26258.6
26239
26218.4
26197.1
26175.6
26154.5
26134.1
26115
26098.1
26084.9
26072.6
26063.1
26056
26051.7
26049.4
26048.5
26048.4
26049
26051.3
26056.8
26066.7
26083.1
26109.3
26150.5
26215.5
26319.4
26485.2
26748
27154.9
27764.2
28630.4
29792.2
31260.5
33067.3
34869.2
36662.2
38418.7
40135.2
41783.9
43377.6
44868.9
46224.2
47355
48222
48777.2
49083.6
49206.4
49227.5
49221.5
49181.4
49086.2
48925.1
48684.3
48332.4
47841.3
47154.9
46235.1
45065.5
43761.2
42516
41452.4
40579.5
39893.9
39425.1
39180
39095.2
39081.6
39090.2
39142.4
39259.7
39447.1
39698.3
39997.5
40325
40658.4
40976.4
41258.6
41489.9
41662
41777.2
41847.1
41872.2
26329.3
26391.3
26442.5
26482.6
26512.1
26532.3
26544.8
26551.6
26554.4
26555
26554.8
26553.2
26549
26541.7
26530.6
26515.4
26496.1
26472.9
26446.1
26416.2
26383.8
26349.6
26314.5
26279.1
26244.2
26210.5
26179.6
26154.4
26130.2
26109.8
26094.1
26083.1
26075.9
26071.9
26070.4
26070.2
26071.1
26074.8
26083.9
26101.5
26132.4
26183.2
26264.3
26391.2
26586.2
26880.9
27315.9
27936.6
28785.8
29896.1
31286.1
33007.6
34727.2
36453.6
38163.5
39845.9
41475.5
43053.5
44532.7
45871.8
46991.1
47856
48428.2
48761.6
48910.1
48943.9
48942.4
48910.4
48823.3
48668.1
48426.8
48070.1
47567
46871.5
45961.2
44851.9
43662.8
42534.5
41550.7
40729.5
40093
39667.9
39449
39373.1
39360.5
39368.8
39417
39524.7
39695.4
39924
40195
40491.1
40790.9
41075.2
41325.5
41530
41681.7
41783.7
41846.4
41869.4
26466.9
26553.3
26628.5
26690.6
26738.9
26774.3
26798
26812.2
26819.2
26821.7
26821.9
26821
26817.4
26809.6
26796.4
26777.3
26751.9
26720.2
26682.8
26640.2
26593.4
26543.2
26490.8
26437.4
26384
26331.7
26282.8
26241.8
26202.6
26168.9
26142.4
26122.9
26109.7
26101.5
26097.7
26096.7
26097.2
26100.8
26111.1
26132.3
26170.4
26233.1
26331.6
26481
26702.6
27023.3
27476.4
28097.7
28922.7
29980.9
31296.8
32932.6
34570.5
36231.1
37892.5
39540.9
41149.7
42711.4
44177
45500
46609.7
47476
48068.1
48431.6
48609.5
48660
48661.7
48637.4
48559.5
48411
48171.9
47813.6
47305.3
46612.2
45727.4
44687.8
43603.3
42571.6
41657
40889.1
40299
39908
39705.7
39633.8
39621.2
39628.6
39672.1
39769.8
39924.1
40130.9
40375.2
40641.6
40909.9
41162.9
41384.5
41565
41698.9
41789.4
41845.8
41866.8
26604.9
26718.1
26821.1
26910.2
26983.3
27040.1
27081.1
27108
27123.4
27130.4
27132.4
27132.4
27130.3
27123.9
27110.9
27089.8
27059.9
27020.9
26972.6
26915.8
26852.6
26784.3
26711.6
26636.3
26559.9
26484.2
26412.1
26350.5
26291.2
26240
26199
26168.3
26146.8
26133.4
26126.6
26124.6
26124.9
26128.9
26141.2
26167.3
26214.3
26290.7
26408.1
26580.6
26826.8
27168.8
27633.5
28249.5
29046.8
30053.4
31298.8
32846.4
34400.7
35994
37604.2
39217.6
40804
42349
43799.8
45107.5
46209.2
47079.4
47693.7
48090
48301.7
48373.1
48379.8
48362.6
48294.5
48153.7
47919.4
47563
47056.5
46376.8
45530.6
44566
43576.1
42626.3
41775.7
41060.3
40511.3
40146
39953.2
39881.5
39867.4
39873.2
39911.1
39997.9
40135.7
40321.1
40539.8
40777.8
41016.6
41241
41436.6
41595.8
41714
41794.5
41845.2
41864.5
26726.7
26864.6
26995.5
27114.2
27217.5
27303.1
27369.9
27418.5
27450.4
27468.7
27476.9
27479.1
27478.9
27475.5
27465.5
27445.9
27414.9
27371.4
27314.4
27245.1
27165.9
27077.9
26981.6
26880
26775.4
26670.7
26570
26482.8
26399.4
26327.1
26268.7
26224.1
26192.3
26171.4
26160.3
26156.5
26156.4
26160.2
26173.9
26204.4
26260.1
26350.4
26486.3
26680.5
26949.7
27311.6
27785.7
28394.3
29163.3
30119.9
31297
32753
34220.5
35742.7
37298
38874
40436.4
41964.6
43400.3
44693.6
45788.6
46664.2
47301.9
47733.7
47984.3
48082.5
48097.8
48087.4
48029.9
47898.9
47672.7
47323.2
46826.8
46170.9
45372.6
44482.4
43574
42698.2
41908.7
41242.3
40727.8
40379.8
40190.2
40115.3
40098.3
40102
40133.7
40209.2
40330.8
40495.3
40689.6
40900.9
41112.4
41310.5
41483
41623.2
41727.6
41799.1
41844.8
41862.4
26829.6
26987.3
27142.4
27289.4
27424.4
27543.8
27644.6
27725
27784.5
27824.5
27847.5
27858
27860.6
27860
27854.4
27839.6
27812.1
27769.5
27710.1
27633.7
27540.6
27431.7
27309.5
27177.5
27039.8
26900.8
26766.8
26650.7
26535.9
26434
26349.7
26283.9
26236.2
26204.6
26187.6
26181.4
26180.9
26184.4
26198.9
26233.1
26296.8
26400.9
26557.2
26777.3
27071.4
27450.5
27930.4
28533.4
29276.9
30185.8
31294.1
32656
34032.7
35477.6
36972.3
38507.1
40043.8
41554.8
42975.3
44255.4
45345.5
46227.5
46888.9
47358.1
47653.1
47786.8
47816.8
47812.8
47766.7
47648.2
47434.1
47097.3
46619
45995.7
45250.7
44432.4
43595.3
42787.8
42056.4
41434.4
40947.9
40610.4
40418.4
40336.5
40314.6
40316
40341.1
40405
40510.4
40654.6
40825.8
41012.2
41198.3
41372.7
41524.3
41647.7
41739.9
41803.4
41844.5
41860.7
26915.2
27086.6
27259.7
27429.7
27592.7
27745.2
27883
28002.5
28100.6
28175.7
28227.7
28259
28273.7
28277.6
28277.2
28270.4
28251.7
28216.5
28160.9
28082.3
27979.6
27853.5
27706.4
27542.3
27367
27186.8
27010
26852.9
26698
26560.8
26447
26357.6
26292.3
26247.5
26221.7
26211.1
26209.7
26212.4
26226.5
26262
26329.9
26441.8
26610.1
26846.7
27162.9
27568.2
28069.4
28670.6
29391.3
30256.3
31294.6
32560.7
33842.5
35202.1
36628.6
38116
39624.6
41118.8
42526.3
43794.8
44880.8
45768.5
46452.4
46958.7
47303.2
47483.2
47538.9
47539.9
47506.5
47404.3
47206.6
46889
46436.5
45852.5
45163.1
44412.3
43640.5
42895.5
42217.8
41635.5
41171.1
40838.5
40639.7
40546.3
40516.6
40515.6
40533.7
40585.7
40675.3
40799.8
40949.2
41112.3
41275.4
41428.2
41561.3
41669.7
41751.1
41807.5
41844.5
41859.2
26988.7
27168.5
27353
27538.2
27721.3
27899.7
28069.5
28226.9
28367.1
28486.2
28581
28649.9
28693.7
28716
28723.1
28723.1
28716.3
28695.1
28652.6
28583.3
28482.9
28349.6
28183.8
27989.4
27773.1
27543.8
27313.2
27102.8
26895.4
26712.5
26561.4
26442.4
26355.9
26295
26258
26239.2
26234.9
26237.7
26251.8
26288.5
26359.7
26478.1
26656.2
26905.6
27236.8
27658
28175
28790.5
29505.9
30331.9
31303
32471.5
33652.8
34916.1
36263.2
37694.3
39170.6
40648
42042.7
43301.3
44386.6
45281.4
45988
46531.7
46929.3
47166.5
47262.1
47272.7
47252.5
47170.2
46993.7
46701.7
46281.5
45741.6
45107.5
44416.7
43706.9
43020.6
42392
41844.9
41398
41065.6
40855.2
40746.3
40705.3
40700.1
40711.5
40751.8
40825.9
40931.8
41060.6
41202.4
41344.6
41478
41594.4
41689.6
41761.4
41811.5
41844.7
41858.2
27054.8
27239.1
27429.9
27623.7
27818.5
28013.1
28206.5
28394
28570.5
28733.2
28877.1
28997.4
29090.2
29153.7
29189.4
29203.2
29204.6
29199.7
29178.2
29130
29046.2
28919.8
28746.8
28528
28269.5
27982.7
27684.6
27405.2
27130.6
26889.7
26692
26535.1
26421.5
26341.3
26292.9
26266.7
26257.1
26260
26275.2
26310.3
26382.1
26504.2
26689.6
26950
27295.2
27731.6
28262.4
28887.5
29605.5
30415.7
31325.5
32397.8
33477.2
34635.6
35889.5
37250.6
38687.5
40149.6
41539.1
42791.8
43876.8
44775.8
45500
46075.9
46525.1
46827.5
46980.9
47015.7
47008.8
46948.9
46798.9
46538.6
46155.8
45662.5
45082.4
44446.4
43793.2
43160.7
42576.5
42060.9
41628.4
41293.2
41066.7
40938.4
40882.3
40869.6
40874.6
40903.6
40962.7
41050.9
41160.7
41282.9
41406.3
41522.4
41624.1
41707.5
41770.8
41815.3
41845.2
41857.4
27116.2
27303.2
27497.5
27695.7
27896.3
28100
28307.2
28513
28712.9
28906.1
29089.7
29258.7
29407.2
29529.1
29619.5
29676.5
29703.1
29708.8
29706.9
29687.7
29636
29537.6
29379.7
29154.4
28861.4
28511.7
28129.3
27759.7
27399.6
27084.7
26832
26630
26486
26383.7
26322.6
26290.4
26279.1
26279.7
26291.5
26324.7
26395.9
26519.4
26709.3
26977.5
27334.2
27784.6
28330.4
28967.8
29689.9
30487.6
31357.3
32341.2
33310.4
34346.1
35486.6
36759.7
38146.3
39591
40974.2
42221.8
43314.6
44223.9
44970.9
45582.9
46086.1
46460.9
46691.2
46776
46779.3
46743.4
46626.3
46402.2
46061.2
45615.2
45085
44501.5
43900.8
43317.1
42773
42285.2
41864.6
41524.1
41277.7
41125.3
41048.9
41024.1
41023.4
41041.7
41086.2
41157.8
41250.1
41354.6
41461.2
41562
41650.6
41723.5
41779.3
41818.9
41845.8
41856.9
27173.6
27362.6
27559.4
27760.7
27965.2
28173.6
28385.6
28598.6
28810
29019.3
29225.9
29427.3
29619.7
29797.8
29954.8
30082.8
30174.7
30227.6
30246.5
30247.1
30234.1
30181.8
30064.9
29859.3
29548.1
29134.1
28648.7
28165.7
27704.6
27295
26980
26725.4
26547.3
26419.9
26343.9
26303.4
26290.3
26289.8
26298.1
26329.5
26399.7
26523.3
26715.4
26988.6
27354.2
27816.9
28377.2
29029.6
29762.9
30559.2
31401.2
32314.2
33194
34114.2
35124
36278.8
37589.5
39015
40416.7
41670.4
42768.8
43683.7
44440
45072.1
45612.2
46051.9
46372.7
46540.9
46572.8
46560.8
46479.3
46296
45999.3
45599.5
45114.1
44577.4
44022.4
43481.2
42972.2
42509.2
42099.8
41754.4
41488.9
41308.5
41207.2
41165.8
41157.8
41166.6
41198.1
41254.5
41331.1
41419.7
41511.4
41598.6
41675.5
41739
41787.7
41822.6
41846.7
41856.8
27227.4
27418.2
27617.5
27821.6
28029.6
28241.1
28455.2
28671
28887.8
29105.1
29322.5
29539.5
29754.8
29966
30169.3
30358.6
30524.5
30655.8
30742.3
30781.5
30787.1
30778.8
30722.9
30577.8
30299.1
29852.7
29252.4
28610.7
28036.9
27508.7
27121.5
26813
26601.3
26449.6
26360.2
26311.9
26295.3
26293.6
26299.7
26328.7
26396.8
26519.2
26712.3
26988.7
27358.6
27828.9
28399.9
29064.9
29809.7
30610
31435.5
32284.4
33054
33828.5
34685.9
35700.5
36914.9
38307
39714.2
40974.5
42098.1
43033.2
43814.8
44490.1
45083.7
45605.8
46031.3
46310.2
46407.5
46411.4
46366.6
46228.4
45974.6
45616.5
45175.6
44683.4
44172.1
43669.1
43191.1
42750.5
42352.3
42004.1
41708.9
41493.2
41359.3
41296.1
41277.2
41278.9
41299.7
41343.2
41405.7
41480.6
41559.4
41634.8
41701.3
41755.9
41797.5
41827.5
41848.5
41857.5
27276.6
27469.5
27671.1
27877.7
28088.3
28302.2
28518.6
28736.6
28956.1
29176.4
29397.3
29618.5
29839.7
30060.5
30280.1
30497.1
30708.9
30909.8
31089.8
31233.2
31323.1
31353.8
31353.4
31304.2
31115.8
30684.9
29933.7
29048.1
28356.9
27717.8
27262
26906.6
26661.4
26486.2
26383.1
26325.7
26304.1
26299.9
26304.1
26330.5
26395.1
26513.9
26704.3
26980.5
27352.1
27826
28403.6
29078.8
29836
30649.1
31480.8
32324.5
33068.5
33761.2
34478.2
35319.6
36363.8
37654.7
39120.7
40431.2
41550.5
42500.7
43287
43964.3
44567.1
45119.2
45618
46031.7
46246.4
46293.8
46281.7
46186.4
45970.6
45651
45245
44790.3
44311.2
43838.6
43386.8
42964.7
42574.1
42217.7
41918.6
41673.9
41502.5
41411.4
41380.3
41377.4
41389.2
41421.5
41472.8
41536.7
41605.5
41671.5
41729.5
41776.2
41811.1
41835.9
41853.3
41860.9
27321
27516.2
27720
27928.6
28141.2
28356.9
28575.2
28795.4
29017.3
29240.4
29464.6
29689.4
29915.2
30141.7
30369.5
30598.6
30829.1
31059.9
31288.5
31507.7
31699.6
31832.6
31882.6
31882.5
31803.7
31494
30722
29485.1
28691.1
27927.6
27379
26980.8
26699
26510.7
26392.5
26327.6
26300
26293.4
26294.5
26312.8
26368.8
26478.4
26662.6
26936.4
27307.8
27784.7
28368.7
29052.5
29820.7
30645.3
31482.9
32300.3
32972.4
33530.1
33990.6
34511
35344.5
36623.3
38133.5
39484.8
40630.9
41646.6
42467.4
43195.8
43867.1
44516.9
45171.6
45767.8
46148.3
46286.1
46295
46236.4
46070
45786
45418.3
44991.6
44539.7
44087.7
43650.1
43239.5
42863.7
42525.8
42194
41889.4
41650.8
41513
41461.8
41454.4
41460.3
41484.7
41528
41584.1
41646.1
41706.4
41759.2
41800.9
41830.9
41851.1
41864.8
41870.6
27359.5
27556.8
27762.5
27972.5
28186.8
28404.2
28624.8
28847.6
29072.5
29299
29526.9
29756
29985.8
30215.5
30444.1
30670.3
30894.3
31117.1
31340.7
31567.3
31797.7
32027
32236
32376.3
32406
32344.4
31718.1
29783.2
28868
28067.8
27446.2
27040.9
26730.2
26538.1
26408.8
26346.4
26319.2
26315.6
26316.9
26333.7
26383
26491.1
26679.8
26949
27312.8
27787.4
28371.1
29057.1
29827.9
30656.6
31501.8
32350.3
33063.4
33620.4
34062.5
34536.7
35243.4
36284.7
37600.5
39095.8
40319.4
41318
42136.5
42857.5
43499.8
44118.6
44741.7
45379.3
45967.5
46243.6
46277.7
46242.7
46083.5
45822.4
45468.1
45059.6
44625.3
44195.3
43785.8
43397.9
43030.4
42665.4
42338.8
42044.7
41786.4
41608.6
41527.7
41511.7
41512.9
41530.6
41567.6
41618.6
41676.6
41734
41785.4
41826.4
41855.5
41873.3
41884.7
41889.2
27391.6
27591.5
27799.8
28011.8
28228
28446.8
28668.7
28892.2
29118
29345
29574.2
29804
30034.7
30263.7
30491.2
30717.5
30946.1
31177.2
31412.3
31653.1
31904.9
32175.1
32450.1
32678.4
32762.3
32744
32318.8
30135.6
29089.8
28230.3
27544.3
27108.8
26773.1
26562.8
26418.7
26344.2
26309.6
26303.1
26304
26318.8
26363.4
26454.8
26612.3
26863.1
27222.1
27686.9
28262.8
28943.2
29710.5
30538.2
31379.3
32229
32976.7
33593.4
33967.7
34052
34042.4
34062.9
35555.9
37715.9
39125.9
40213.2
41078.7
41857.5
42554.5
43243.4
44051.8
44958.8
45959.5
46437.2
46521.8
46508.5
46378
46103.1
45749.3
45361.1
44938.4
44522.5
44123.4
43730.8
43377.9
43046.6
42717.2
42389.6
42037.2
41729.3
41571.8
41529.3
41527.8
41549.9
41589.4
41636.8
41689.9
41744.9
41795.1
41838.1
41871.7
41895.3
41908.2
41911.5
42057
42058.3
42057.2
42057.8
42057.6
42057.7
42057.8
42057.9
42058
42058.2
42058.2
42058.3
42058.4
42058.4
42058.5
42058.5
42058.6
42058.6
42058.6
42058.6
42056
42057.9
42056.8
42057.4
42057.3
42057.5
42057.7
42057.9
42058.1
42058.3
42058.5
42058.6
42058.7
42058.9
42058.9
42059
42059.1
42059.1
42059.1
42059.1
42055.7
42056.9
42055.9
42056.6
42056.6
42057
42057.4
42057.8
42058.3
42058.7
42059
42059.3
42059.6
42059.8
42060
42060.2
42060.3
42060.4
42060.5
42060.5
42055.4
42056
42055
42055.8
42056
42056.5
42057.1
42057.8
42058.5
42059.1
42059.6
42060
42060.4
42060.7
42061.1
42061.3
42061.5
42061.7
42061.8
42061.9
42054.6
42054.8
42054
42054.8
42055.2
42056
42056.8
42057.7
42058.7
42059.5
42060.2
42060.8
42061.4
42062
42062.4
42062.8
42063.1
42063.3
42063.5
42063.6
42053.2
42053.3
42052.6
42053.5
42054.1
42055.2
42056.4
42057.7
42058.9
42060
42061
42061.9
42062.8
42063.5
42064.2
42064.7
42065.1
42065.5
42065.7
42065.9
42051.2
42051.3
42050.7
42051.8
42052.8
42054.3
42055.9
42057.6
42059.2
42060.7
42062.1
42063.3
42064.4
42065.4
42066.3
42067.1
42067.7
42068.1
42068.4
42068.7
42048.5
42048.8
42048.5
42049.9
42051.3
42053.3
42055.4
42057.6
42059.6
42061.5
42063.3
42064.9
42066.4
42067.7
42068.9
42069.9
42070.7
42071.3
42071.7
42071.9
42045.1
42045.7
42045.8
42047.5
42049.5
42052
42054.7
42057.5
42060.1
42062.5
42064.7
42066.8
42068.7
42070.4
42071.9
42073.1
42074.1
42074.9
42075.4
42075.7
42041.1
42042
42042.6
42044.8
42047.4
42050.7
42054
42057.5
42060.7
42063.6
42066.4
42069
42071.4
42073.5
42075.3
42076.9
42078.1
42079
42079.6
42080
42036.5
42037.8
42038.9
42041.8
42045.1
42049.1
42053.3
42057.5
42061.4
42065
42068.4
42071.5
42074.4
42077
42079.2
42081
42082.5
42083.7
42084.3
42084.8
42031.2
42032.9
42034.6
42038.3
42042.5
42047.4
42052.6
42057.6
42062.2
42066.5
42070.6
42074.4
42077.8
42080.9
42083.5
42085.7
42087.5
42088.8
42089.6
42090.1
42025.1
42027.3
42029.7
42034.3
42039.6
42045.6
42051.8
42057.8
42063.2
42068.3
42073.2
42077.6
42081.7
42085.2
42088.3
42090.9
42093
42094.5
42095.4
42096
42018.2
42020.9
42024.2
42030
42036.4
42043.7
42051.1
42058
42064.4
42070.5
42076.1
42081.3
42086
42090.1
42093.7
42096.7
42099
42100.8
42101.9
42102.5
42010.2
42013.7
42018
42025.2
42033
42041.8
42050.4
42058.5
42065.9
42072.9
42079.4
42085.4
42090.8
42095.5
42099.6
42103
42105.8
42107.8
42109
42109.7
42001.1
42005.5
42011
42019.9
42029.4
42039.7
42049.9
42059.1
42067.7
42075.8
42083.2
42090.1
42096.2
42101.6
42106.3
42110.1
42113.2
42115.4
42116.8
42117.6
41990.3
41996.2
42003.2
42014.1
42025.5
42037.8
42049.5
42060
42069.8
42079.1
42087.6
42095.4
42102.3
42108.4
42113.6
42118
42121.4
42123.9
42125.4
42126.3
41977
41985.5
41994.3
42007.9
42021.4
42035.9
42049.3
42061.2
42072.5
42083
42092.7
42101.4
42109.2
42116.1
42121.9
42126.7
42130.5
42133.3
42134.9
42135.9
41961.3
41973.4
41984.2
42001.2
42017.1
42034.2
42049.4
42062.9
42075.8
42087.7
42098.5
42108.3
42117
42124.6
42131.1
42136.4
42140.5
42143.6
42145.4
42146.5
41942.7
41959.6
41972.8
41994.1
42012.8
42032.8
42049.7
42065.2
42079.7
42093.1
42105.3
42116.2
42125.8
42134.2
42141.3
42147.1
42151.7
42155.1
42157.1
42158.2
41919.9
41944
41959.8
41986.9
42008.6
42031.8
42050.6
42068.2
42084.6
42099.6
42113.1
42125.2
42135.8
42145
42152.8
42159.1
42164.1
42167.7
42169.9
42171.1
41890.1
41926.6
41945.2
41979.7
42004.5
42031.2
42052.1
42072.2
42090.6
42107.2
42122.2
42135.5
42147.1
42157.2
42165.6
42172.5
42177.9
42181.8
42184.1
42185.3
41849.5
41907.5
41928.6
41973
42000.8
42031.3
42054.6
42077.3
42097.8
42116.3
42132.7
42147.3
42159.9
42170.8
42179.9
42187.3
42193.1
42197.3
42199.7
42201
41794.8
41887.5
41910.1
41967.3
41997.6
42032
42058.2
42083.9
42106.6
42126.9
42144.9
42160.7
42174.4
42186.1
42195.9
42203.8
42210
42214.4
42216.9
42218.3
41727.4
41869
41890.3
41963.2
41995.2
42034.1
42063.5
42092.3
42117.2
42139.5
42159
42176.1
42190.8
42203.3
42213.7
42222.1
42228.5
42233.2
42235.8
42237.3
41667.4
41852.9
41871.3
41960.8
41993.9
42038
42070.7
42102.7
42129.9
42154.1
42175.1
42193.4
42209.1
42222.3
42233.3
42242.2
42249
42253.8
42256.4
42258
41629.1
41839.4
41856.3
41960
41993.8
42044.4
42080.3
42115.6
42144.9
42171
42193.5
42212.9
42229.5
42243.4
42255
42264.2
42271.3
42276.3
42279
42280.6
41609
41829.6
41848.1
41960.2
41995.7
42053.7
42092.7
42131.2
42162.6
42190.5
42214.3
42234.7
42252.1
42266.7
42278.7
42288.2
42295.5
42300.8
42303.4
42305.1
41600.9
41825.2
41845.2
41962.5
42001.2
42066.4
42108.6
42150
42183.2
42212.7
42237.7
42259
42277.1
42292.2
42304.5
42314.3
42321.8
42327.1
42329.8
42331.4
41599.9
41824.8
41845.5
41969.2
42011.9
42083.1
42128
42172.2
42207.1
42238
42263.8
42285.9
42304.5
42320
42332.6
42342.6
42350.1
42355.5
42358.2
42359.8
41602.5
41827.6
41851.2
41982.9
42029.2
42104.8
42151.6
42198.2
42234.4
42266.5
42293
42315.6
42334.5
42350.2
42362.9
42373
42380.6
42385.9
42388.6
42390.2
41618.5
41840.9
41867.6
42005.8
42054
42132.3
42180
42228.3
42265.3
42298.2
42325.2
42348.1
42367.1
42382.8
42395.6
42405.6
42413.1
42418.4
42421
42422.5
41656.7
41870.9
41898.9
42038.9
42087.1
42166.4
42213.8
42263
42300.1
42333.3
42360.4
42383.3
42402.3
42417.9
42430.5
42440.4
42447.7
42452.8
42455.3
42456.7
41718.2
41919.3
41945.9
42082.7
42129
42207.3
42253.3
42302.5
42339
42372
42398.7
42421.4
42440
42455.3
42467.6
42477.2
42484.4
42489.2
42491.5
42492.9
41798.2
41983.9
42007.6
42136.8
42180
42255.3
42298.9
42347
42382.1
42414.3
42440.1
42462.1
42480.2
42495
42506.8
42516
42522.8
42527.4
42529.5
42530.7
41891.6
42061.1
42081.2
42200.2
42239.3
42309.9
42350.3
42396.2
42429.4
42460.1
42484.6
42505.6
42522.7
42536.8
42548
42556.7
42563
42567.3
42569.1
42570.2
41994.9
42147.5
42164.1
42271.6
42306.2
42370.6
42407.4
42450.1
42480.7
42509.3
42532.1
42551.7
42567.6
42580.6
42591
42599
42604.8
42608.6
42610.2
42611
42104.6
42240.5
42254.1
42349.5
42379.3
42436.6
42469.3
42508
42535.5
42561.6
42582.3
42600.1
42614.5
42626.3
42635.7
42642.8
42648
42651.4
42652.5
42653.2
42219.3
42338.6
42349.3
42432.6
42457.6
42507.2
42535.5
42569.6
42593.6
42616.7
42634.9
42650.6
42663.3
42673.7
42681.8
42688.1
42692.5
42695.3
42696
42696.5
42337.8
42440.6
42448.6
42519.4
42539.8
42581.3
42605.2
42634.1
42654.4
42674
42689.5
42702.9
42713.6
42722.4
42729.2
42734.4
42738
42740.1
42740.5
42740.7
42459.7
42545.6
42550.7
42609.3
42625
42658.3
42677.5
42701
42717.3
42733.3
42745.8
42756.6
42765.2
42772.2
42777.6
42781.6
42784.3
42785.8
42785.6
42785.6
42584.3
42653.2
42655.2
42701.5
42712.2
42737.5
42751.9
42769.7
42781.9
42794
42803.3
42811.4
42817.8
42822.8
42826.7
42829.4
42831.1
42831.9
42831.2
42831
42711.2
42762.6
42761.1
42795.6
42800.8
42818.1
42827.6
42839.6
42847.6
42855.6
42861.6
42866.8
42870.9
42873.9
42876.1
42877.5
42878.2
42878.2
42877.1
42876.6
42839.8
42873.4
42867.8
42891
42890.2
42899.7
42904.1
42910.2
42913.9
42917.7
42920.4
42922.7
42924.2
42925.2
42925.7
42925.7
42925.3
42924.6
42922.9
42922.2
42969.6
42985.2
42975
42987.3
42979.7
42981.9
42980.7
42981
42980.3
42979.9
42979.2
42978.4
42977.4
42976.3
42975.1
42973.7
42972.1
42970.6
42968.5
42967.6
43100
43097.8
43082.4
43083.7
43068.8
43064.5
43056.5
43051.9
43046.2
43041.9
43037.5
43033.7
43030.2
43026.9
43023.9
43021
43018.4
43016.2
43013.5
43012.4
43230.8
43210.8
43189.3
43180
43157.1
43146.9
43131.8
43122
43111.3
43103
43095
43088.2
43082.1
43076.7
43071.9
43067.6
43063.9
43060.9
43057.8
43056.5
43363
43322.3
43295.2
43275.6
43244.7
43227.9
43206
43190.8
43175.3
43162.9
43151.5
43141.7
43133
43125.4
43118.9
43113.3
43108.5
43104.7
43101.1
43099.7
43495.1
43432.9
43400.7
43368.5
43331
43306.8
43278.7
43258.2
43237.9
43221.6
43206.6
43193.8
43182.6
43173
43164.7
43157.7
43151.9
43147.4
43143.3
43141.8
43628.5
43542.2
43504.7
43458.7
43415.5
43383.3
43349.5
43323.7
43298.9
43278.6
43260.2
43244.5
43230.9
43219.2
43209.2
43200.8
43193.9
43188.7
43184.2
43182.6
43760.3
43649.8
43606.6
43546.4
43497.7
43457.3
43418.1
43387.1
43357.9
43333.7
43312
43293.6
43277.5
43263.8
43252.1
43242.5
43234.5
43228.6
43223.7
43222
43890
43753.7
43705.6
43630.9
43577
43528.5
43484.3
43448.1
43414.7
43386.8
43361.9
43340.7
43322.3
43306.6
43293.4
43282.4
43273.5
43266.9
43261.6
43259.8
44011.7
43854
43800.7
43711.9
43653.2
43596.8
43547.9
43506.7
43469.3
43437.8
43409.9
43386
43365.3
43347.7
43332.9
43320.7
43310.8
43303.6
43297.9
43295.9
44106.2
43947.3
43888.3
43788.6
43725.5
43661.7
43608.6
43562.5
43521.5
43486.6
43455.7
43429.3
43406.4
43387
43370.6
43357.2
43346.4
43338.5
43332.4
43330.4
44176.2
44029.4
43965.6
43859.5
43792.7
43722.6
43665.9
43615.5
43571.1
43533
43499.3
43470.5
43445.6
43424.4
43406.6
43392
43380.3
43371.7
43365.2
43363.1
44230
44098.5
44031.9
43923.7
43854.2
43779.2
43719.5
43665.1
43617.8
43576.7
43540.6
43509.6
43482.7
43459.9
43440.7
43425
43412.3
43403.2
43396.3
43394
44272.2
44155.9
44088.1
43980.6
43909.2
43830.9
43768.8
43711.2
43661.4
43617.8
43579.4
43546.4
43517.7
43493.4
43472.8
43456.1
43442.6
43432.8
43425.5
43423.1
44305.8
44202.6
44134.8
44030
43957.6
43877.4
43813.7
43753.5
43701.7
43655.8
43615.6
43580.7
43550.5
43524.7
43503
43485.2
43470.9
43460.6
43452.9
43450.3
44332.4
44240.5
44173.4
44072
43999.5
43918.5
43853.8
43791.8
43738.5
43690.8
43648.9
43612.5
43580.9
43553.9
43531
43512.3
43497.3
43486.3
43478.4
43475.6
44352.3
44270.5
44204.5
44107.2
44035
43954.2
43889.1
43825.9
43771.6
43722.4
43679.3
43641.6
43608.8
43580.7
43556.8
43537.2
43521.5
43510.1
43501.9
43499
44368.1
44293.9
44229.1
44135.9
44064.7
43984.8
43919.6
43855.9
43800.9
43750.7
43706.7
43668
43634.2
43605.1
43580.3
43560
43543.7
43531.9
43523.4
43520.3
44380.3
44311.7
44248.2
44158.7
44088.9
44010.3
43945.5
43881.7
43826.5
43775.7
43731.1
43691.5
43656.9
43627
43601.5
43580.5
43563.8
43551.5
43542.8
43539.6
44389.3
44324.8
44262.2
44176.5
44107.9
44031
43967.1
43903.6
43848.4
43797.3
43752.4
43712.2
43677
43646.3
43620.3
43598.8
43581.7
43569.1
43560.2
43556.9
44395.2
44333.9
44271.7
44189.7
44122.1
44047.3
43984.4
43921.6
43866.8
43815.7
43770.6
43730.1
43694.3
43663.2
43636.7
43614.9
43597.4
43584.6
43575.6
43572
44398.5
44338.9
44277.5
44198.5
44132.3
44059.5
43997.7
43935.8
43881.6
43830.8
43785.7
43744.9
43708.9
43677.5
43650.7
43628.6
43610.9
43597.9
43588.9
43585.1
44399.6
44340.7
44280.2
44203.5
44138.7
44067.9
44007.3
43946.5
43893
43842.7
43797.8
43756.9
43720.8
43689.3
43662.4
43640.1
43622.2
43609.1
43600
43596.2
44398.9
44340.4
44280.5
44205.4
44141.9
44072.9
44013.6
43954
43901.3
43851.5
43806.9
43766.1
43730.1
43698.6
43671.7
43649.3
43631.4
43618.1
43609.1
43605.2
44394.2
44336.5
44278.8
44205.3
44142.6
44075.1
44016.9
43958.5
43906.7
43857.5
43813.3
43772.8
43737
43705.5
43678.6
43656.3
43638.3