/*--------------------------------*- C++ -*----------------------------------*\
  =========                 |
  \\      /  F ield         | OpenFOAM: The Open Source CFD Toolbox
   \\    /   O peration     | Website:  https://openfoam.org
    \\  /    A nd           | Version:  7
     \\/     M anipulation  |
\*---------------------------------------------------------------------------*/
FoamFile
{
    version     2.0;
    format      ascii;
    class       surfaceScalarField;
    location    "0.11";
    object      phi;
}
// * * * * * * * * * * * * * * * * * * * * * * * * * * * * * * * * * * * * * //

dimensions      [1 0 -1 0 0 0 0];

internalField   nonuniform List<scalar> 
96484
(
-0.00143596
-0.0014142
-0.00139336
-0.00137345
-0.00135434
-0.00133602
-0.00131836
-0.00130133
-0.00128485
-0.00126889
-0.00125342
-0.0012384
-0.00122379
-0.00120954
-0.00119562
-0.00118196
-0.00116852
-0.00115524
-0.0011421
-0.00112904
-0.00111605
-0.00110309
-0.00109012
-0.00107711
-0.00106404
-0.00105086
-0.00103759
-0.00103258
-0.00102654
-0.00101922
-0.00101024
-0.000999035
-0.000984994
-0.000967865
-0.000947685
-0.000924487
-0.000899232
-0.000872727
-0.000847584
-0.000824171
-0.000800833
-0.000777616
-0.00075353
-0.000731154
-0.000714191
-0.000721284
-0.000771228
-0.000863296
-0.000997978
-0.00121566
-0.00164751
-0.00154508
-0.00142836
-0.00138104
-0.00130641
-0.00124785
-0.00116709
-0.00108331
-0.000994341
-0.000901582
-0.000788817
-0.000657825
-0.00057266
-0.000548863
-0.000463551
-0.000478939
-0.000516768
-0.000538103
-0.00056927
-0.000607686
-0.000654801
-0.000707472
-0.000767333
-0.000831989
-0.000901417
-0.000976395
-0.00105579
-0.00113009
-0.00120497
-0.00145101
-0.0019222
-0.00163042
-0.00151396
-0.00146335
-0.00145717
-0.00150283
-0.00159733
-0.00165963
-0.00170834
-0.00173316
-0.00174215
-0.0017459
-0.00174919
-0.00175103
-0.00175367
-0.00175621
-0.00175928
-0.00175964
-0.0017492
0.000140347
0.00015068
-0.0014886
0.00015643
-0.00146858
0.00016179
-0.0014494
0.000166711
-0.00143107
0.000171253
-0.00141345
0.000175421
-0.00139652
0.000179275
-0.00138016
0.000182859
-0.00136441
0.000186229
-0.00134919
0.000189435
-0.00133454
0.000192496
-0.0013204
0.000195454
-0.00130678
0.000198317
-0.00129361
0.000201121
-0.00128083
0.000203864
-0.00126834
0.00020658
-0.00125606
0.000209268
-0.00124388
0.000211963
-0.00123173
0.000214671
-0.00121954
0.000217423
-0.00120726
0.000220213
-0.00119485
0.000223054
-0.0011823
0.000225945
-0.00116958
0.000228896
-0.00115661
0.000231904
-0.00114331
0.000234802
-0.00112957
0.000337728
-0.00111526
0.000342622
-0.00110076
0.000346522
-0.00108391
0.00034969
-0.0010649
0.000351734
-0.00104354
0.000352748
-0.00102009
0.000352886
-0.000994949
0.00035206
-0.000969983
0.000349804
-0.000945756
0.000346689
-0.000923404
0.000342268
-0.000902018
0.000338299
-0.000881251
0.000334464
-0.000861576
0.000326486
-0.000842536
0.000317974
-0.000828192
0.000304435
-0.000822114
0.000290777
-0.000831882
0.000280292
-0.000867554
0.000276243
-0.000936295
0.000270314
-0.00102516
0.000258456
-0.00112304
0.00026398
-0.00122516
0.000309777
-0.00134289
0.00053079
-0.00150772
-0.000102424
-0.00167139
-0.000116725
-0.00159265
-4.7323e-05
-0.00154073
-7.46269e-05
-0.00149445
-5.85562e-05
-0.00144657
-8.07674e-05
-0.00139876
-8.37795e-05
-0.00134043
-8.89649e-05
-0.00127853
-9.27586e-05
-0.00122007
-0.000112765
-0.00116984
-0.000130992
-0.0011061
-8.51652e-05
-0.00102951
-2.37971e-05
-0.000983226
-8.53118e-05
-0.000972768
1.53876e-05
-0.000907369
3.78291e-05
-0.000949912
2.13351e-05
-0.000999899
3.11663e-05
-0.00103321
3.84164e-05
-0.00108244
4.71154e-05
-0.00112606
5.26712e-05
-0.00117203
5.98603e-05
-0.00121406
6.4656e-05
-0.00125562
6.94278e-05
-0.00129445
7.49787e-05
-0.00133137
7.93926e-05
-0.00136378
7.43006e-05
-0.00138897
7.48837e-05
-0.00141528
0.000246033
-0.00148139
0.000471194
-0.00161438
-0.00029178
-0.00164571
-0.000116461
-0.00164446
-5.06113e-05
-0.00160676
-6.17366e-06
-0.00159326
4.5652e-05
-0.0016148
9.45017e-05
-0.00165906
6.23001e-05
-0.00168681
4.87118e-05
-0.00171719
2.48202e-05
-0.00173319
8.99498e-06
-0.0017413
3.74348e-06
-0.00175091
3.28747e-06
-0.00175376
1.84053e-06
-0.00175477
2.64511e-06
-0.00175347
2.54121e-06
-0.00175159
3.06952e-06
-0.00174789
3.62078e-07
-0.0017417
-1.04449e-05
-0.00173171
-2.55789e-05
-0.00171751
0.00012001
0.000130663
-0.00157444
0.000137247
-0.00155742
0.000143467
-0.00154103
0.000149087
-0.00152529
0.000154325
-0.00151008
0.000159062
-0.00149538
0.000163519
-0.00148109
0.00016764
-0.00146723
0.000171576
-0.00145379
0.000175296
-0.00144084
0.000178881
-0.00142828
0.000182282
-0.00141607
0.000185542
-0.00140411
0.000188629
-0.00139233
0.000191583
-0.00138064
0.000194401
-0.00136899
0.000197122
-0.00135726
0.000199769
-0.00134543
0.00020239
-0.00133343
0.000205012
-0.00132118
0.000207666
-0.00130859
0.000210328
-0.00129562
0.000212976
-0.00128205
0.0002156
-0.001268
0.000218162
-0.00125343
0.000220495
-0.00123847
0.000323222
-0.0012232
0.00032578
-0.00119781
0.000327508
-0.00117212
0.000328329
-0.00114645
0.000328286
-0.00112095
0.000327605
-0.00109531
0.000327919
-0.00106899
0.000327833
-0.00104398
0.000327452
-0.00102008
0.000325304
-0.000997613
0.0003215
-0.00097892
0.000318624
-0.000965789
0.000315424
-0.000961445
0.000312142
-0.000970915
0.000311896
-0.000999853
0.000314204
-0.00105196
0.000326449
-0.00112535
0.000349033
-0.00120691
0.000365104
-0.00127613
0.000368194
-0.00132721
0.000360578
-0.00137316
0.000381711
-0.00142558
0.000474613
-0.00149888
0.000694459
-0.00158818
-0.000181169
-0.00164612
-0.000168638
-0.00160773
-9.36088e-05
-0.0015817
-0.000122502
-0.00154542
-0.000106371
-0.00150618
-0.000139097
-0.0014682
-0.000145675
-0.00141915
-0.00014743
-0.00137024
-0.000142985
-0.0013268
-0.000176504
-0.00129606
-0.000207583
-0.00125536
-0.000131452
-0.00120966
-3.42545e-05
-0.00118415
-0.000150712
-0.00117354
5.79308e-05
-0.00114267
8.78166e-05
-0.00118982
5.46492e-05
-0.00122212
8.03881e-05
-0.00125928
8.20422e-05
-0.00130273
9.30797e-05
-0.00133985
9.47011e-05
-0.0013735
0.000101429
-0.00139805
0.000103477
-0.00141917
0.00010635
-0.00143391
0.000107389
-0.00144475
0.000104588
-0.00145043
0.000100613
-0.00145459
0.000140985
-0.00147534
0.000379032
-0.00154905
0.000502524
-0.00164234
-0.000293039
-0.00162536
-0.000154159
-0.00161757
-6.41044e-05
-0.00159582
1.53615e-05
-0.00159296
8.99167e-05
-0.00162485
0.000122244
-0.00165976
9.26802e-05
-0.00167737
6.47178e-05
-0.00169807
3.2929e-05
-0.00170883
1.86073e-05
-0.00171677
6.5938e-06
-0.00171885
4.29453e-06
-0.00172103
5.35667e-07
-0.0017207
7.72058e-07
-0.0017213
-1.16594e-06
-0.00172048
-3.11767e-06
-0.0017179
-9.62398e-06
-0.00171103
-2.46454e-05
-0.00169949
-4.19952e-05
-0.00168658
0.000102781
0.000113644
-0.00163002
0.00012085
-0.00161503
0.000127734
-0.00160015
0.000133871
-0.0015857
0.000139629
-0.00157145
0.000144768
-0.00155767
0.000149663
-0.00154421
0.000154205
-0.00153128
0.000158622
-0.00151869
0.000162733
-0.00150649
0.000166677
-0.00149454
0.000170317
-0.0014829
0.000173768
-0.0014715
0.000176938
-0.00146042
0.000179925
-0.00144964
0.000182679
-0.00143924
0.000185291
-0.00142919
0.000187762
-0.00141951
0.000190145
-0.00141008
0.000192423
-0.00140081
0.000194695
-0.00139155
0.000196761
-0.00138224
0.000198927
-0.00137287
0.000201024
-0.00136332
0.000203202
-0.0013536
0.000205228
-0.00134373
0.000297829
-0.00133378
0.000300095
-0.00130688
0.000301837
-0.00127964
0.000302822
-0.00125257
0.00030265
-0.0012262
0.000301284
-0.001202
0.000302915
-0.0011807
0.00030393
-0.00116326
0.000304983
-0.00115213
0.00030661
-0.00115088
0.00030837
-0.00116192
0.000314279
-0.00118877
0.000324894
-0.00123019
0.00034108
-0.00128156
0.000364
-0.00134085
0.000387591
-0.00139326
0.000408014
-0.00143308
0.000418252
-0.00145797
0.000416189
-0.00147087
0.00041414
-0.00148124
0.000412997
-0.00149086
0.000455015
-0.00152206
0.000563906
-0.00156874
0.000752402
-0.0016158
-0.000219554
-0.00162482
-0.000194669
-0.00160274
-0.000129891
-0.00159226
-0.000161745
-0.00156018
-0.000144354
-0.00153661
-0.000188144
-0.00150196
-0.000194579
-0.0014668
-0.000190879
-0.00142427
-0.00017372
-0.00139573
-0.000217207
-0.00137657
-0.000253277
-0.00135407
-0.000156969
-0.00132685
-4.4864e-05
-0.0013104
-0.000181575
-0.00129319
0.000105073
-0.00128852
0.000120118
-0.00132665
9.18172e-05
-0.00134327
0.000123832
-0.00138003
0.000119162
-0.00141163
0.000126732
-0.00144369
0.000119246
-0.00146787
0.000122557
-0.00148493
0.000118218
-0.001497
0.000117189
-0.00150342
0.000113063
-0.00150621
0.000108749
-0.00150526
0.000121368
-0.00150822
0.000214696
-0.00153167
0.00047232
-0.00158588
0.000485538
-0.00161869
-0.00030082
-0.00159645
-0.000175912
-0.00160599
-6.69651e-05
-0.00161003
4.7249e-05
-0.00162814
0.000124829
-0.00164764
0.000139854
-0.00166219
0.000113383
-0.00167033
7.54786e-05
-0.00167868
4.08667e-05
-0.00168283
2.06905e-05
-0.00168803
8.76734e-06
-0.00169036
3.96899e-06
-0.00169144
1.13303e-06
-0.00169056
-4.99272e-08
-0.00168864
-3.74144e-06
-0.00168522
-9.99254e-06
-0.00168089
-2.11589e-05
-0.00167427
-3.75623e-05
-0.00166538
-5.40665e-05
-0.00165597
8.79404e-05
9.86568e-05
-0.00164897
0.000105967
-0.0016368
0.00011329
-0.00162516
0.000119622
-0.00161392
0.000125846
-0.00160333
0.00013131
-0.00159332
0.00013673
-0.00158396
0.000141616
-0.00157518
0.000146427
-0.00156692
0.000150783
-0.00155913
0.000155037
-0.00155176
0.000158914
-0.00154477
0.000162687
-0.0015381
0.000166157
-0.00153173
0.000169524
-0.00152559
0.000172633
-0.00151968
0.000175612
-0.00151397
0.00017833
-0.00150848
0.000180872
-0.00150318
0.000183163
-0.0014981
0.000185391
-0.00149328
0.000187391
-0.00148872
0.000189374
-0.00148461
0.000191307
-0.00148108
0.000193326
-0.00147848
0.000195283
-0.001477
0.000270924
-0.00147709
0.000272859
-0.00145712
0.000274766
-0.00143991
0.000276456
-0.00142724
0.000278443
-0.00141962
0.00027999
-0.00141869
0.000285477
-0.00142595
0.000292795
-0.0014428
0.000303737
-0.00146842
0.000317647
-0.00150068
0.000335218
-0.00153661
0.000355698
-0.00157142
0.000376267
-0.00159955
0.000400373
-0.00162456
0.000416412
-0.00163496
0.000427414
-0.00163496
0.000432902
-0.00162545
0.000431146
-0.0016099
0.000426567
-0.00159424
0.000423753
-0.00158022
0.000444204
-0.00157972
0.000501693
-0.0015916
0.000610967
-0.00161157
0.000761414
-0.00162322
-0.000241627
-0.00160438
-0.000205146
-0.0015983
-0.000161973
-0.00159206
-0.000185318
-0.00157016
-0.000179008
-0.00155087
-0.000223295
-0.00152314
-0.000237112
-0.00149392
-0.000219423
-0.00145812
-0.000192874
-0.00143699
-0.000239714
-0.00142514
-0.000280493
-0.00141208
-0.000173418
-0.00139759
-6.2076e-05
-0.00138699
-0.00018624
-0.00137564
0.000143198
-0.00138284
0.000136741
-0.00140473
0.000128574
-0.00141731
0.000155436
-0.00144823
0.000151219
-0.00147239
0.000150909
-0.00149975
0.000136306
-0.0015167
0.000134634
-0.00152853
0.000124635
-0.00153403
0.000119973
-0.00153496
0.000112113
-0.00153189
0.000111712
-0.00152769
0.000144821
-0.00153173
0.000268906
-0.00155852
0.00050513
-0.00159905
0.000463296
-0.0016
-0.000291284
-0.00157209
-0.000171864
-0.00159133
-4.88577e-05
-0.00160423
6.67488e-05
-0.00162877
0.000139381
-0.00164397
0.000147989
-0.00164912
0.000121735
-0.00165108
7.96283e-05
-0.00165392
4.60633e-05
-0.00165496
2.30233e-05
-0.00165632
9.84782e-06
-0.00165614
3.08797e-06
-0.00165677
-7.83716e-07
-0.00165628
-3.47487e-06
-0.00165571
-8.0712e-06
-0.00165257
-1.66118e-05
-0.00164741
-3.00507e-05
-0.00164021
-4.69685e-05
-0.0016327
-6.27756e-05
-0.00162583
7.5954e-05
8.64885e-05
-0.00168818
9.43299e-05
-0.00167945
0.000102051
-0.00167123
0.000109033
-0.00166348
0.000115829
-0.00165646
0.000121954
-0.00165001
0.000127948
-0.00164423
0.000133357
-0.00163897
0.000138637
-0.00163432
0.00014341
-0.00163022
0.000148048
-0.00162679
0.000152247
-0.001624
0.000156315
-0.00162196
0.000160021
-0.00162066
0.000163617
-0.00162022
0.000166924
-0.00162072
0.000170119
-0.00162241
0.000173024
-0.00162564
0.000175801
-0.00163073
0.00017834
-0.00163814
0.00018083
-0.00164829
0.000183277
-0.00166165
0.000185848
-0.00167854
0.000188711
-0.00169917
0.000191842
-0.00172357
0.000195372
-0.00175199
0.000250951
-0.00178441
0.000255652
-0.00179244
0.0002621
-0.00180322
0.000268828
-0.00181805
0.000277516
-0.00183486
0.000287253
-0.00185321
0.000302329
-0.00186991
0.000318409
-0.00188427
0.000336003
-0.00189434
0.000353579
-0.00189851
0.000370024
-0.00189549
0.000383828
-0.00188744
0.000401278
-0.00187459
0.000410771
-0.00185065
0.000416418
-0.0018203
0.000417895
-0.00178581
0.000417353
-0.00175006
0.000415491
-0.00171519
0.000412542
-0.00168133
0.000423263
-0.00165827
0.000456078
-0.00164521
0.000521662
-0.00164044
0.000622618
-0.00163654
0.000742577
-0.00162085
-0.000247707
-0.00158218
-0.000211384
-0.0015856
-0.00018388
-0.00158214
-0.000204608
-0.00156732
-0.000206732
-0.00155329
-0.000252517
-0.00153006
-0.000272912
-0.00150665
-0.000240558
-0.00147508
-0.000204719
-0.00146003
-0.00025278
-0.00145262
-0.000294977
-0.00144656
-0.000184018
-0.00143972
-7.34321e-05
-0.0014339
-0.000179041
-0.00142805
0.000165097
-0.00143894
0.00014932
-0.00144807
0.00015949
-0.00146041
0.000179598
-0.00148351
0.000178578
-0.00150361
0.000167857
-0.00152689
0.000148139
-0.00154001
0.000140128
-0.0015494
0.000125572
-0.00155187
0.000116905
-0.00155103
0.00010791
-0.00154648
0.000115754
-0.0015439
0.000171604
-0.00155111
0.000309437
-0.00157336
0.000506078
-0.0015937
0.000435388
-0.00157893
-0.000272043
-0.00155361
-0.000158963
-0.00157989
-2.43184e-05
-0.00160061
8.19497e-05
-0.00162121
0.000144531
-0.00162765
0.00014995
-0.00162796
0.000124576
-0.00162555
8.06678e-05
-0.00162376
4.74239e-05
-0.00162267
2.2846e-05
-0.00162293
1.04718e-05
-0.00162271
2.60502e-06
-0.00162302
-1.35708e-06
-0.00162178
-6.6212e-06
-0.00161994
-1.32231e-05
-0.00161682
-2.38101e-05
-0.00161241
-3.75687e-05
-0.00160667
-5.38358e-05
-0.00160099
-6.87424e-05
-0.00159621
6.7223e-05
7.77605e-05
-0.00175927
8.61109e-05
-0.00175341
9.43038e-05
-0.00174806
0.000102007
-0.00174371
0.000109383
-0.00174053
0.000116171
-0.00173885
0.000122686
-0.00173886
0.000128708
-0.00174063
0.000134545
-0.00174418
0.000139977
-0.00174957
0.000145262
-0.00175702
0.0001502
-0.00176676
0.00015502
-0.00177915
0.000159576
-0.00179447
0.000164117
-0.0018131
0.000168617
-0.00183527
0.000173351
-0.00186113
0.000178114
-0.00189065
0.000183205
-0.00192383
0.000188496
-0.00196059
0.00019419
-0.00200077
0.000200161
-0.00204416
0.000206478
-0.00209047
0.000213116
-0.00213943
0.000220262
-0.00219065
0.00022779
-0.00224359
0.000258979
-0.00229742
0.000266432
-0.00230364
0.000276938
-0.00230591
0.000285636
-0.00230357
0.000295871
-0.00229517
0.000303952
-0.00228058
0.000316682
-0.00225938
0.00032848
-0.00223427
0.000340179
-0.00220443
0.000350554
-0.00217013
0.000361975
-0.00213127
0.00037098
-0.00208824
0.000377339
-0.00204129
0.000380413
-0.0019914
0.000381932
-0.00194065
0.000382144
-0.00189052
0.000382483
-0.00184068
0.000381632
-0.00179338
0.000389476
-0.00175389
0.000410208
-0.00172153
0.000451307
-0.00169608
0.000517758
-0.00167438
0.000606936
-0.00164971
0.000703907
-0.00161341
-0.000244288
-0.00156064
-0.000214852
-0.00156957
-0.000198693
-0.00156915
-0.000218645
-0.00156038
-0.000229953
-0.00154968
-0.000275932
-0.00153143
-0.000304478
-0.00151152
-0.000255611
-0.0014843
-0.000212126
-0.00147265
-0.000258839
-0.00146886
-0.000301821
-0.00146708
-0.000189836
-0.00146607
-7.92845e-05
-0.00146397
-0.000168152
-0.00146226
0.000174227
-0.00147395
0.000161661
-0.00147646
0.000182589
-0.00148752
0.000199695
-0.00150427
0.000201859
-0.00152202
0.000180974
-0.00154133
0.000157531
-0.00155176
0.0001426
-0.00155834
0.000124729
-0.00155816
0.000112363
-0.00155524
0.000105324
-0.00154955
0.00012297
-0.0015483
0.000193848
-0.00155727
0.000329783
-0.00157411
0.000491309
-0.00157946
0.000410068
-0.00155724
-0.000245771
-0.00153494
-0.000138234
-0.00156382
-3.72319e-06
-0.00158735
8.83893e-05
-0.00160332
0.000144841
-0.00160599
0.000147537
-0.00160288
0.000122786
-0.00159696
7.95844e-05
-0.00159284
4.7685e-05
-0.00159013
2.26255e-05
-0.00158919
1.07829e-05
-0.00158862
1.36176e-06
-0.00158819
-3.19899e-06
-0.00158732
-9.74059e-06
-0.00158559
-1.76363e-05
-0.00158229
-2.95506e-05
-0.00157834
-4.32415e-05
-0.00157391
-5.86148e-05
-0.00156996
-7.25528e-05
-0.00156694
6.11319e-05
7.19013e-05
-0.00192985
8.07617e-05
-0.00193272
8.99559e-05
-0.00193746
9.88173e-05
-0.0019444
0.000107708
-0.00195386
0.000116184
-0.001966
0.000124454
-0.00198093
0.000132253
-0.00199873
0.000139935
-0.00201952
0.000147429
-0.00204324
0.000155007
-0.00206989
0.000162583
-0.00209933
0.000170348
-0.00213152
0.000178205
-0.00216623
0.000186284
-0.00220327
0.000194479
-0.00224231
0.000202866
-0.00228301
0.0002113
-0.00232499
0.000219957
-0.00236811
0.000228682
-0.00241189
0.000237575
-0.00245608
0.00024647
-0.00250024
0.000255437
-0.00254411
0.000264342
-0.00258733
0.000273204
-0.00262972
0.000281616
-0.00267107
0.000265196
-0.00271133
0.000268706
-0.00268344
0.000274597
-0.00265185
0.000277232
-0.00261619
0.000281282
-0.00257723
0.000282753
-0.00253319
0.000291576
-0.00248548
0.00029864
-0.00243409
0.000305882
-0.00238065
0.000311689
-0.00232454
0.000318945
-0.00226734
0.000324026
-0.00220702
0.000327458
-0.00214593
0.000329659
-0.00208472
0.000331802
-0.00202453
0.000332309
-0.00196502
0.000335176
-0.00190929
0.000342146
-0.00185753
0.000357118
-0.00181092
0.00038476
-0.00176946
0.000429605
-0.00173209
0.000493089
-0.0016953
0.000570638
-0.00165368
0.000651136
-0.0016021
-0.000235359
-0.00153889
-0.000215277
-0.00155049
-0.000207457
-0.0015531
-0.000229353
-0.0015495
-0.000248203
-0.0015421
-0.00029584
-0.00152825
-0.000331698
-0.00151165
-0.000267255
-0.00148815
-0.000215921
-0.00147944
-0.000260621
-0.00147855
-0.000302832
-0.00148021
-0.000191932
-0.0014833
-8.09984e-05
-0.00148395
-0.000156454
-0.0014838
0.000176736
-0.0014948
0.000172716
-0.00149428
0.000199341
-0.00150313
0.000217443
-0.00151516
0.000221174
-0.00153072
0.000191409
-0.00154624
0.000164109
-0.00155441
0.000142421
-0.00155839
0.000121807
-0.00155654
0.000106676
-0.00155284
0.000104066
-0.00154804
0.000131941
-0.00154893
0.000210691
-0.00155746
0.000335134
-0.00156618
0.000469087
-0.00156146
0.00038777
-0.00153733
-0.000216896
-0.00151787
-0.000114697
-0.0015475
1.22444e-05
-0.0015704
9.10607e-05
-0.00158094
0.000141728
-0.00158108
0.000141618
-0.00157524
0.000118668
-0.00156736
7.68684e-05
-0.00156141
4.67534e-05
-0.00155759
2.2048e-05
-0.00155572
1.03589e-05
-0.00155469
4.86515e-07
-0.00155399
-4.93082e-06
-0.00155278
-1.30412e-05
-0.001551
-2.15778e-05
-0.00154827
-3.3985e-05
-0.00154509
-4.71873e-05
-0.00154191
-6.16377e-05
-0.00153943
-7.46026e-05
-0.0015379
6.26161e-05
7.47743e-05
-0.002205
8.55016e-05
-0.00222017
9.68924e-05
-0.0022367
0.00010828
-0.00225484
0.000119841
-0.00227473
0.000131121
-0.00229648
0.000142252
-0.00232011
0.000153045
-0.00234557
0.000163659
-0.00237272
0.000174071
-0.00240136
0.000184456
-0.00243118
0.000194766
-0.00246188
0.000205059
-0.00249321
0.000215248
-0.00252495
0.000225323
-0.00255694
0.000235182
-0.00258903
0.000244843
-0.00262118
0.000254416
-0.00265327
0.00026374
-0.00268508
0.000272877
-0.0027165
0.000281729
-0.00274736
0.000290338
-0.00277758
0.000298659
-0.00280704
0.000306733
-0.0028357
0.000314552
-0.0028635
0.000321882
-0.00289042
0.000237305
-0.00291644
0.000237121
-0.00286757
0.000238931
-0.00281648
0.00023827
-0.00276287
0.000237247
-0.00270723
0.000235041
-0.002649
0.000240183
-0.00258892
0.0002452
-0.0025277
0.000249775
-0.00246578
0.000254488
-0.00240277
0.000258628
-0.00233915
0.000262933
-0.00227475
0.000266253
-0.00220995
0.000269468
-0.00214512
0.00027229
-0.00208124
0.000276578
-0.0020191
0.000283417
-0.00195959
0.000295532
-0.00190322
0.000315659
-0.00185052
0.000347386
-0.00180109
0.000392822
-0.0017534
0.000451466
-0.0017042
0.000519054
-0.0016499
0.000587926
-0.00158736
-0.000223757
-0.00151651
-0.000212662
-0.00153001
-0.000211062
-0.00153575
-0.000236755
-0.00153636
-0.000262048
-0.0015323
-0.000312444
-0.00152246
-0.000355197
-0.00150887
-0.000275966
-0.00148882
-0.000216805
-0.00148251
-0.000258961
-0.00148434
-0.000299746
-0.00148883
-0.000191281
-0.00149535
-8.11502e-05
-0.00149801
-0.000145457
-0.00149855
0.000176219
-0.00150862
0.000181567
-0.00150603
0.000211367
-0.00151196
0.000233003
-0.00152043
0.000236698
-0.00153359
0.000199575
-0.0015458
0.000168092
-0.00155191
0.000140572
-0.0015536
0.000118102
-0.00155059
0.000101877
-0.00154641
0.000104958
-0.00154256
0.000140473
-0.00154448
0.000219412
-0.00155091
0.00033041
-0.00155319
0.000444953
-0.00154241
0.000368312
-0.00151797
-0.000187261
-0.00149977
-9.17967e-05
-0.00152833
2.27868e-05
-0.00154898
9.11943e-05
-0.0015566
0.000135895
-0.00155488
0.00013373
-0.00154676
0.000112719
-0.00153741
7.305e-05
-0.00153
4.48807e-05
-0.00152532
2.10182e-05
-0.00152267
9.66479e-06
-0.00152125
-7.28786e-07
-0.00152015
-6.70571e-06
-0.0015189
-1.57752e-05
-0.00151708
-2.47626e-05
-0.00151485
-3.71623e-05
-0.00151249
-4.96685e-05
-0.0015105
-6.31633e-05
-0.00150928
-7.51673e-05
-0.00150904
7.63379e-05
8.99424e-05
-0.00246106
0.000102035
-0.00248161
0.000115026
-0.00250165
0.000128178
-0.00252141
0.000141591
-0.00254102
0.000154743
-0.00256069
0.000167713
-0.00258049
0.000180196
-0.00260054
0.000192299
-0.0026208
0.000203889
-0.00264131
0.000215159
-0.00266196
0.000226099
-0.00268265
0.000236802
-0.00270324
0.000247232
-0.0027237
0.000257419
-0.00274398
0.000267323
-0.00276406
0.00027694
-0.00278393
0.000286226
-0.00280358
0.000295159
-0.00282303
0.000303738
-0.00284229
0.000311943
-0.00286136
0.000319803
-0.0028803
0.000327318
-0.00289916
0.000334534
-0.00291794
0.00034147
-0.00293671
0.000347905
-0.00295548
0.000188432
-0.00297431
0.000186029
-0.00291958
0.000185327
-0.00286329
0.000182623
-0.00280593
0.000179022
-0.00274668
0.000174954
-0.00268635
0.000178966
-0.00262391
0.000183282
-0.00256134
0.00018677
-0.00249782
0.000190868
-0.00243422
0.000194228
-0.00236981
0.000198125
-0.00230537
0.000201429
-0.00224045
0.000205583
-0.00217589
0.00021015
-0.00211168
0.000217067
-0.00204876
0.000227047
-0.00198737
0.000242837
-0.00192815
0.000266225
-0.00187109
0.000299702
-0.00181556
0.000343615
-0.00175984
0.000397175
-0.00170175
0.000456508
-0.00163885
0.000517077
-0.0015692
-0.000210258
-0.0014933
-0.000206919
-0.00150835
-0.000210449
-0.00151721
-0.000240823
-0.00152149
-0.000271881
-0.00152087
-0.000326038
-0.00151474
-0.000375242
-0.00150416
-0.000282279
-0.00148729
-0.000214975
-0.00148328
-0.000254472
-0.00148763
-0.000293222
-0.00149467
-0.000188622
-0.00150403
-8.06125e-05
-0.00150823
-0.000135385
-0.00150904
0.000173625
-0.00151813
0.000187496
-0.00151336
0.000219845
-0.00151611
0.00024616
-0.00152176
0.000248911
-0.00153229
0.000205685
-0.00154161
0.000169779
-0.00154573
0.00013756
-0.00154553
0.000113924
-0.00154184
9.80234e-05
-0.00153777
0.00010688
-0.00153503
0.0001469
-0.00153701
0.000221691
-0.00153999
0.000319634
-0.00153711
0.00042051
-0.00152304
0.000350109
-0.00149861
-0.000158697
-0.00148075
-7.11439e-05
-0.00150726
3.04e-05
-0.00152518
8.94783e-05
-0.00153029
0.000127775
-0.001527
0.000124379
-0.00151731
0.000105312
-0.00150697
6.83727e-05
-0.0014985
4.22269e-05
-0.00149316
1.95949e-05
-0.00148985
8.57163e-06
-0.00148807
-1.98178e-06
-0.00148668
-8.52254e-06
-0.00148537
-1.80103e-05
-0.00148373
-2.71186e-05
-0.00148207
-3.91584e-05
-0.00148052
-5.08858e-05
-0.00147959
-6.33976e-05
-0.00147946
-7.44629e-05
-0.00148034
9.68916e-05
0.000110493
-0.00261611
0.000122068
-0.00263523
0.000134788
-0.00265232
0.000147785
-0.00266759
0.000161267
-0.00268127
0.000174541
-0.00269371
0.000187764
-0.00270519
0.000200459
-0.00271603
0.000212809
-0.00272644
0.000224537
-0.00273665
0.000235846
-0.00274674
0.000246689
-0.00275681
0.000257267
-0.00276678
0.000267506
-0.00277671
0.000277504
-0.00278672
0.00028719
-0.00279702
0.000296596
-0.00280752
0.000305672
-0.00281843
0.000314415
-0.00282969
0.000322813
-0.0028414
0.000330885
-0.00285347
0.000338654
-0.00286618
0.000346106
-0.00287944
0.000353303
-0.00289339
0.000360241
-0.00290794
0.000366728
-0.00292318
0.000133708
-0.00293905
0.000129742
-0.00288611
0.000127967
-0.00283185
0.000123369
-0.00277696
0.00011869
-0.0027205
0.000112515
-0.00266312
0.000116394
-0.00260391
0.000119766
-0.00254446
0.000123174
-0.00248414
0.000126458
-0.00242353
0.000129789
-0.00236214
0.000133198
-0.00230052
0.000136867
-0.00223834
0.000141376
-0.00217616
0.00014723
-0.0021139
0.00015568
-0.0020522
0.00016783
-0.00199113
0.000185772
-0.00193119
0.000210695
-0.00187176
0.000243985
-0.00181237
0.000285525
-0.00175166
0.000334269
-0.00168835
0.000386858
-0.00162068
0.000441184
-0.00154752
-0.000195207
-0.00146932
-0.000198064
-0.0014858
-0.000206165
-0.00149767
-0.000241449
-0.00150531
-0.000278013
-0.00150823
-0.000336617
-0.00150561
-0.000392103
-0.00149808
-0.000286295
-0.00148424
-0.000210624
-0.00148248
-0.000247428
-0.00148926
-0.000283867
-0.00149871
-0.000184422
-0.00151059
-7.98067e-05
-0.0015161
-0.000126286
-0.00151708
0.00016885
-0.00152512
0.000190246
-0.0015181
0.000225496
-0.00151746
0.000256691
-0.00152058
0.000258235
-0.00152832
0.000209801
-0.00153508
0.000169579
-0.00153723
0.000133867
-0.00153544
0.000109857
-0.00153124
9.5288e-05
-0.0015273
0.00010886
-0.00152516
0.000149874
-0.00152633
0.000218808
-0.00152583
0.00030557
-0.00151903
0.000396078
-0.00150303
0.000332247
-0.00147833
-0.000132187
-0.00145998
-5.32205e-05
-0.00148407
3.55082e-05
-0.00149952
8.61935e-05
-0.00150289
0.000118081
-0.0014983
0.000114042
-0.00148747
9.68382e-05
-0.00147634
6.30375e-05
-0.00146707
3.89132e-05
-0.00146119
1.78187e-05
-0.00145735
7.176e-06
-0.00145526
-3.2886e-06
-0.00145364
-1.01626e-05
-0.00145234
-1.96771e-05
-0.00145095
-2.86657e-05
-0.00144987
-4.00899e-05
-0.00144908
-5.10119e-05
-0.00144909
-6.25179e-05
-0.00144992
-7.267e-05
-0.00145176
0.000117465
0.000129609
-0.00265777
0.000139162
-0.00267369
0.000150057
-0.00268685
0.000161471
-0.00269732
0.000173707
-0.00270537
0.000186017
-0.00271133
0.000198604
-0.00271568
0.000210871
-0.00271886
0.000223016
-0.00272132
0.000234629
-0.00272345
0.000245915
-0.00272556
0.000256657
-0.00272789
0.000267201
-0.00273052
0.000277512
-0.00273346
0.000287812
-0.00273686
0.000297689
-0.00274056
0.000307502
-0.00274477
0.000316937
-0.00274958
0.000326125
-0.00275511
0.000334877
-0.00276147
0.000343602
-0.00276872
0.000351908
-0.00277695
0.000360054
-0.00278625
0.000367854
-0.0027966
0.00037548
-0.00280799
0.000382607
-0.00282041
8.07645e-05
-0.00283381
7.5484e-05
-0.00278571
7.30728e-05
-0.00273663
6.69096e-05
-0.00268724
6.13134e-05
-0.00263672
5.32994e-05
-0.00258539
5.69514e-05
-0.00253279
5.94397e-05
-0.00247958
6.25635e-05
-0.00242553
6.50704e-05
-0.00237085
6.81713e-05
-0.00231536
7.10122e-05
-0.00225932
7.46913e-05
-0.00220254
7.91147e-05
-0.00214532
8.55329e-05
-0.0020875
9.4612e-05
-0.00202937
0.000107884
-0.00197078
0.000126341
-0.00191194
0.000151307
-0.0018524
0.00018328
-0.00179188
0.000222213
-0.00172948
0.000266596
-0.00166438
0.000313704
-0.00159555
0.000362975
-0.00152231
-0.000178727
-0.00144451
-0.000186193
-0.00146229
-0.000198522
-0.00147706
-0.000238535
-0.00148791
-0.000280632
-0.00149446
-0.000344141
-0.00149531
-0.000405949
-0.00149091
-0.000288052
-0.00147999
-0.000203841
-0.00148052
-0.000237982
-0.00148965
-0.00027199
-0.00150138
-0.000178906
-0.00151557
-7.88283e-05
-0.00152235
-0.000118244
-0.0015235
0.000161827
-0.00153026
0.000189602
-0.00152059
0.000228617
-0.0015167
0.000264434
-0.00151738
0.000264996
-0.00152228
0.000211948
-0.00152663
0.00016779
-0.00152682
0.000129668
-0.00152369
0.000105913
-0.00151912
9.315e-05
-0.00151529
0.000110033
-0.00151327
0.000149371
-0.00151304
0.000212007
-0.00150915
0.000289575
-0.00149953
0.000371379
-0.00148218
0.000313895
-0.00145689
-0.000108099
-0.00143766
-3.77639e-05
-0.00145918
3.88759e-05
-0.00147238
8.16062e-05
-0.00147436
0.000107245
-0.00146876
0.000102911
-0.00145716
8.75719e-05
-0.00144546
5.7161e-05
-0.00143566
3.50686e-05
-0.00142935
1.5731e-05
-0.00142511
5.55238e-06
-0.00142277
-4.58863e-06
-0.001421
-1.15505e-05
-0.00141981
-2.076e-05
-0.00141874
-2.94496e-05
-0.00141822
-4.00846e-05
-0.00141815
-5.01833e-05
-0.00141897
-6.06724e-05
-0.00142063
-6.9938e-05
-0.0014233
0.000135557
0.000145528
-0.00261709
0.000152324
-0.00263024
0.000160524
-0.00264062
0.00016952
-0.00264813
0.000179673
-0.00265286
0.000190363
-0.00265502
0.00020178
-0.00265498
0.000213337
-0.0026532
0.000225149
-0.00265024
0.000236738
-0.00264659
0.000248237
-0.00264276
0.000259286
-0.00263911
0.000270147
-0.00263596
0.000280913
-0.00263332
0.000291513
-0.00263105
0.000301895
-0.00262902
0.000312313
-0.00262755
0.000322472
-0.00262662
0.000332483
-0.00262653
0.000342122
-0.00262746
0.000351833
-0.00262978
0.000361205
-0.00263333
0.000370407
-0.00263835
0.000379245
-0.0026447
0.000387896
-0.00265251
0.000396009
-0.00266164
3.26686e-05
-0.0026721
2.64022e-05
-0.0026308
2.36784e-05
-0.00258848
1.63975e-05
-0.00254651
9.98542e-06
-0.0025035
6.98272e-07
-0.00245995
3.74208e-06
-0.00241482
5.38521e-06
-0.00236972
7.88414e-06
-0.00232403
9.58295e-06
-0.00227774
1.21236e-05
-0.00223058
1.42386e-05
-0.00218268
1.74735e-05
-0.00213376
2.12946e-05
-0.00208384
2.73948e-05
-0.00203262
3.60279e-05
-0.00198012
4.90414e-05
-0.00192616
6.67982e-05
-0.00187111
9.07891e-05
-0.00181439
0.000120885
-0.0017555
0.000157109
-0.00169432
0.000197765
-0.00163061
0.00024047
-0.00156378
0.000285166
-0.0014936
-0.000160948
-0.00141889
-0.000171416
-0.00143778
-0.000187677
-0.00145528
-0.000231981
-0.00146926
-0.000279789
-0.00147955
-0.000348533
-0.00148393
-0.00041687
-0.00148277
-0.000287527
-0.00147476
-0.000194714
-0.00147757
-0.000226244
-0.00148894
-0.000257802
-0.00150285
-0.000172126
-0.00151922
-7.76779e-05
-0.00152731
-0.000111485
-0.00152881
0.000152158
-0.00153429
0.000185715
-0.00152169
0.000229297
-0.00151445
0.000269326
-0.00151258
0.000269351
-0.0015146
0.00021214
-0.00151661
0.000164657
-0.00151489
0.000125096
-0.00151058
0.000102086
-0.00150563
9.11316e-05
-0.0015017