/*--------------------------------*- C++ -*----------------------------------*\
  =========                 |
  \\      /  F ield         | OpenFOAM: The Open Source CFD Toolbox
   \\    /   O peration     | Website:  https://openfoam.org
    \\  /    A nd           | Version:  7
     \\/     M anipulation  |
\*---------------------------------------------------------------------------*/
FoamFile
{
    version     2.0;
    format      ascii;
    class       volVectorField;
    location    "0.11";
    object      U;
}
// * * * * * * * * * * * * * * * * * * * * * * * * * * * * * * * * * * * * * //

dimensions      [0 1 -1 0 0 0 0];

internalField   nonuniform List<vector> 
48560
(
(221.942 -5.36766 -4.91114e-11)
(221.751 -6.19684 -5.89303e-11)
(221.581 -7.02823 -7.82033e-11)
(221.433 -7.84024 -1.00111e-10)
(221.301 -8.63315 -1.31207e-10)
(221.181 -9.4011 -1.65847e-10)
(221.07 -10.1469 -2.09052e-10)
(220.964 -10.8663 -2.5562e-10)
(220.862 -11.5637 -3.09243e-10)
(220.762 -12.2365 -3.65379e-10)
(220.662 -12.8901 -4.25872e-10)
(220.561 -13.5231 -4.87109e-10)
(220.458 -14.1405 -5.4938e-10)
(220.351 -14.741 -6.09644e-10)
(220.239 -15.3282 -6.66079e-10)
(220.12 -15.9003 -7.16819e-10)
(219.992 -16.4601 -7.58638e-10)
(219.853 -17.0059 -7.89638e-10)
(219.7 -17.5397 -8.06592e-10)
(219.531 -18.0607 -8.07607e-10)
(219.343 -18.5704 -7.8978e-10)
(219.13 -19.0682 -7.50999e-10)
(218.891 -19.5548 -6.8958e-10)
(218.618 -20.0295 -6.02771e-10)
(218.309 -20.4913 -4.92857e-10)
(217.956 -20.9394 -3.56781e-10)
(217.555 -21.3723 -1.98132e-10)
(217.037 -21.8647 1.68214e-11)
(216.283 -22.4137 3.1122e-10)
(215.39 -22.9119 5.95694e-10)
(214.304 -23.3846 8.81732e-10)
(212.96 -23.8068 1.15938e-09)
(211.279 -24.1917 1.37765e-09)
(209.079 -24.5152 1.53813e-09)
(206.056 -24.7617 1.44238e-09)
(202.49 -24.8965 1.19411e-09)
(198.251 -24.8759 5.65209e-10)
(193.601 -24.7463 -1.39976e-10)
(188.786 -24.4534 -1.37729e-09)
(184.852 -24.0507 -2.53973e-09)
(180.809 -23.2558 -4.1641e-09)
(176.731 -22.6202 -4.54884e-09)
(172.875 -21.4536 -5.91159e-09)
(169.145 -20.0225 -6.40289e-09)
(165.801 -18.7135 -7.02529e-09)
(165.078 -16.0976 -9.50194e-09)
(171.765 -12.2482 -1.25194e-08)
(191.383 -6.88515 -1.71128e-08)
(221.305 -4.08103 -2.21757e-08)
(250.052 -7.78915 -2.61536e-08)
(271.684 -31.468 -2.92527e-08)
(263.863 -74.1592 -3.08542e-08)
(229.269 -57.6497 -2.97188e-08)
(214.68 -60.7853 -2.9805e-08)
(195.662 -51.6233 -2.91996e-08)
(183.877 -51.0944 -2.9239e-08)
(165.482 -43.5363 -2.86365e-08)
(153.749 -41.3575 -2.8651e-08)
(133.696 -34.3429 -2.79937e-08)
(121.443 -31.2415 -2.80318e-08)
(99.3232 -24.1238 -2.7303e-08)
(85.6828 -20.4169 -2.72987e-08)
(66.076 -11.0083 -2.64162e-08)
(66.3462 -8.54302 -2.67505e-08)
(55.7816 -5.57974 -2.6279e-08)
(52.6456 1.12772 -2.60653e-08)
(56.5749 2.22471 -2.63093e-08)
(58.8231 4.44238 -2.65269e-08)
(60.5569 6.50873 -2.67325e-08)
(63.5758 8.64366 -2.70167e-08)
(67.9238 11.4707 -2.74264e-08)
(73.4448 14.9745 -2.78751e-08)
(80.3088 19.2409 -2.83786e-08)
(88.7298 24.4694 -2.89193e-08)
(98.9289 30.8337 -2.95022e-08)
(111.36 38.4928 -3.01121e-08)
(127.426 48.2364 -3.07877e-08)
(149.438 61.6845 -3.14989e-08)
(182.284 78.9861 -3.22121e-08)
(220.44 84.7194 -3.28605e-08)
(259.688 66.4918 -3.3764e-08)
(254.785 60.4471 -3.40116e-08)
(246.368 53.3834 -3.43771e-08)
(251.803 56.0632 -3.43861e-08)
(256.211 56.6904 -3.46306e-08)
(267.566 53.7092 -3.53761e-08)
(271.758 43.0844 -3.5546e-08)
(275.782 36.6796 -3.59139e-08)
(275.789 26.9354 -3.60817e-08)
(275.43 19.8337 -3.63667e-08)
(273.263 14.3846 -3.64673e-08)
(270.017 8.44321 -3.66446e-08)
(266.52 3.74695 -3.67936e-08)
(263.136 -0.00115946 -3.69338e-08)
(260.007 -3.0481 -3.70403e-08)
(257.305 -5.5127 -3.71456e-08)
(255.074 -7.47893 -3.72255e-08)
(253.41 -8.90355 -3.72889e-08)
(252.353 -9.71775 -3.73347e-08)
(252.112 -9.95822 -3.73584e-08)
(221.187 -5.08784 -5.89584e-10)
(221.005 -5.94565 -6.17783e-10)
(220.837 -6.80019 -6.46699e-10)
(220.701 -7.64499 -6.7322e-10)
(220.573 -8.46245 -6.98866e-10)
(220.462 -9.26005 -7.18399e-10)
(220.352 -10.0282 -7.35573e-10)
(220.246 -10.7747 -7.42848e-10)
(220.136 -11.4971 -7.45437e-10)
(220.023 -12.2041 -7.3436e-10)
(219.904 -12.8956 -7.1833e-10)
(219.778 -13.5729 -6.87618e-10)
(219.642 -14.2348 -6.47443e-10)
(219.494 -14.8796 -5.90141e-10)
(219.331 -15.5069 -5.19785e-10)
(219.15 -16.1139 -4.31314e-10)
(218.949 -16.7019 -3.28278e-10)
(218.724 -17.2692 -2.08806e-10)
(218.473 -17.819 -7.70006e-11)
(218.194 -18.3514 6.58764e-11)
(217.879 -18.8696 2.21939e-10)
(217.525 -19.371 3.8562e-10)
(217.123 -19.8551 5.59529e-10)
(216.667 -20.3191 7.35029e-10)
(216.143 -20.7627 9.16954e-10)
(215.534 -21.184 1.09005e-09)
(214.823 -21.5813 1.25691e-09)
(213.845 -22.0214 1.4142e-09)
(212.231 -22.4904 1.51237e-09)
(210.276 -22.9014 1.40433e-09)
(208.016 -23.2594 1.20283e-09)
(205.366 -23.539 6.84809e-10)
(202.468 -23.7667 1.1157e-10)
(199.343 -23.9088 -9.00911e-10)
(196.469 -23.969 -1.93558e-09)
(193.653 -23.8486 -3.34027e-09)
(191.143 -23.768 -3.79387e-09)
(188.654 -23.5228 -5.07172e-09)
(186.649 -23.2638 -5.89611e-09)
(184.842 -22.7271 -6.76791e-09)
(183.403 -22.2539 -7.20457e-09)
(183.037 -21.7389 -8.15203e-09)
(184.912 -20.8176 -1.09375e-08)
(190.621 -20.8879 -1.25601e-08)
(204.541 -21.4823 -1.69108e-08)
(229.829 -22.8107 -2.20537e-08)
(255.631 -23.8674 -2.63401e-08)
(277.804 -24.7601 -2.9616e-08)
(288.941 -26.5148 -3.09901e-08)
(295.839 -34.663 -3.23825e-08)
(287.448 -53.5421 -3.27436e-08)
(275.13 -72.0734 -3.32351e-08)
(246.996 -67.1274 -3.26741e-08)
(235.293 -67.3319 -3.25909e-08)
(216.33 -61.4721 -3.22257e-08)
(206.915 -58.3937 -3.20891e-08)
(189.502 -52.6491 -3.17772e-08)
(179.974 -48.5888 -3.15722e-08)
(162.664 -42.4783 -3.12866e-08)
(152.775 -37.7517 -3.10262e-08)
(136.166 -31.2762 -3.07685e-08)
(125.728 -26.0559 -3.0384e-08)
(113.384 -16.8047 -3.00608e-08)
(111.846 -12.2643 -2.98413e-08)
(107.957 -6.68263 -2.98464e-08)
(105.468 1.30449 -2.93624e-08)
(111.121 3.49159 -2.98112e-08)
(113.938 8.65579 -2.98923e-08)
(116.835 11.7532 -3.01398e-08)
(121.023 15.5199 -3.03153e-08)
(124.798 18.9556 -3.0619e-08)
(130.436 23.1842 -3.08659e-08)
(135.908 27.5026 -3.12197e-08)
(143.594 32.9526 -3.15313e-08)
(151.845 39.109 -3.19371e-08)
(163.024 46.9509 -3.23171e-08)
(176.867 56.9036 -3.27962e-08)
(197.309 71.4786 -3.32664e-08)
(221.3 90.2729 -3.38432e-08)
(241.907 94.6579 -3.44476e-08)
(258.387 73.9816 -3.50185e-08)
(263.721 63.9364 -3.5496e-08)
(266.056 61.5184 -3.56943e-08)
(270.263 62.6654 -3.61505e-08)
(272.857 63.4659 -3.59321e-08)
(275.839 59.6064 -3.69299e-08)
(277.532 51.035 -3.65018e-08)
(279.533 43.401 -3.7228e-08)
(278.85 33.3396 -3.68418e-08)
(278.004 24.7954 -3.75611e-08)
(274.97 16.7012 -3.71411e-08)
(272.278 10.8449 -3.76842e-08)
(268.296 5.71673 -3.7356e-08)
(265.214 1.9854 -3.77491e-08)
(261.551 -1.19582 -3.74793e-08)
(258.96 -3.59793 -3.77525e-08)
(256.277 -5.67089 -3.75388e-08)
(254.711 -7.14223 -3.7699e-08)
(253.724 -7.74747 -3.75901e-08)
(253.359 -7.93814 -3.76125e-08)
(219.984 -4.79947 -1.82383e-10)
(219.789 -5.71113 -1.57265e-10)
(219.573 -6.62084 -1.04154e-10)
(219.42 -7.52515 -6.29765e-11)
(219.242 -8.39277 3.59538e-12)
(219.104 -9.24185 6.14809e-11)
(218.934 -10.0542 1.41507e-10)
(218.785 -10.8539 2.16208e-10)
(218.601 -11.6302 3.08975e-10)
(218.42 -12.3958 3.98621e-10)
(218.204 -13.1354 5.04264e-10)
(217.978 -13.8553 6.10172e-10)
(217.714 -14.5412 7.26078e-10)
(217.426 -15.1989 8.4055e-10)
(217.09 -15.819 9.56191e-10)
(216.71 -16.4094 1.06416e-09)
(216.259 -16.9672 1.15947e-09)
(215.729 -17.502 1.23243e-09)
(215.084 -18.0148 1.26561e-09)
(214.394 -18.5117 1.28227e-09)
(213.608 -18.9918 1.25189e-09)
(212.767 -19.4573 1.18862e-09)
(211.831 -19.9045 1.0623e-09)
(210.826 -20.3305 9.20069e-10)
(209.727 -20.7365 6.76347e-10)
(208.557 -21.1165 4.13988e-10)
(207.314 -21.4731 2.75827e-11)
(205.83 -21.8558 -4.54695e-10)
(203.891 -22.2596 -1.32071e-09)
(202.306 -22.6013 -2.15549e-09)
(200.517 -22.8639 -3.27087e-09)
(199.021 -23.0901 -3.597e-09)
(197.411 -23.2615 -4.62175e-09)
(196.134 -23.3988 -5.19601e-09)
(194.942 -23.4175 -5.94953e-09)
(193.885 -23.338 -6.42482e-09)
(193.27 -23.171 -7.12609e-09)
(193.112 -22.9857 -8.07333e-09)
(194.526 -22.8287 -1.0058e-08)
(197.549 -23.0409 -1.12184e-08)
(204.149 -23.6032 -1.37561e-08)
(215.876 -24.703 -1.6953e-08)
(233.738 -26.1255 -2.12505e-08)
(253.35 -27.6658 -2.46703e-08)
(273.407 -28.05 -2.86209e-08)
(287.781 -27.1188 -3.03267e-08)
(299.469 -26.4198 -3.21702e-08)
(305.305 -27.0867 -3.26652e-08)
(307.592 -31.1724 -3.32057e-08)
(303.597 -41.4131 -3.32715e-08)
(292.417 -57.7443 -3.32361e-08)
(276.517 -68.0655 -3.30755e-08)
(256.591 -61.9596 -3.28982e-08)
(244.506 -65.35 -3.26442e-08)
(227.862 -57.558 -3.24861e-08)
(217.675 -57.0995 -3.21978e-08)
(202.676 -49.8135 -3.20769e-08)
(192.625 -47.5255 -3.17657e-08)
(178.162 -40.7119 -3.16827e-08)
(168.183 -37.2399 -3.135e-08)
(155.111 -30.7832 -3.13006e-08)
(145.973 -26.3742 -3.0949e-08)
(137.71 -18.2056 -3.09084e-08)
(136.059 -13.8374 -3.06373e-08)
(135.386 -5.90474 -3.07316e-08)
(132.908 0.995022 -3.04367e-08)
(138.64 4.5793 -3.07875e-08)
(139.529 10.9696 -3.07295e-08)
(143.233 14.6249 -3.10166e-08)
(145.455 19.6312 -3.10604e-08)
(149.132 23.9291 -3.13712e-08)
(152.45 28.994 -3.14996e-08)
(156.904 34.149 -3.1842e-08)
(162.028 40.1 -3.20539e-08)
(168.645 46.7088 -3.24446e-08)
(177.393 54.5427 -3.27508e-08)
(189.892 64.2624 -3.32208e-08)
(208.609 76.2668 -3.36513e-08)
(232.074 84.854 -3.42051e-08)
(250.995 79.6588 -3.46584e-08)
(260.316 67.7102 -3.50084e-08)
(265.185 63.5583 -3.52774e-08)
(267.593 61.0894 -3.55735e-08)
(272.03 59.6338 -3.60935e-08)
(274.945 55.1726 -3.59166e-08)
(277.792 48.5679 -3.67418e-08)
(278.732 41.195 -3.6246e-08)
(280.055 33.9935 -3.6957e-08)
(278.899 26.4906 -3.65668e-08)
(277.592 20.1403 -3.70903e-08)
(274.455 14.266 -3.682e-08)
(271.703 9.30766 -3.71854e-08)
(267.974 5.10045 -3.69705e-08)
(264.962 1.73823 -3.72274e-08)
(261.556 -1.00203 -3.70482e-08)
(258.987 -3.07319 -3.72218e-08)
(256.461 -4.57346 -3.70721e-08)
(254.88 -5.47511 -3.71751e-08)
(253.926 -5.7758 -3.71001e-08)
(253.569 -5.88514 -3.71123e-08)
(216.939 -4.51597 6.05383e-10)
(216.664 -5.45243 6.61982e-10)
(216.267 -6.37362 6.72225e-10)
(216.008 -7.2928 7.05297e-10)
(215.628 -8.1672 7.03371e-10)
(215.34 -9.02739 7.07033e-10)
(214.925 -9.84942 6.84886e-10)
(214.565 -10.6651 6.52229e-10)
(214.089 -11.4556 5.99278e-10)
(213.654 -12.2356 5.21048e-10)
(213.121 -12.9852 4.23483e-10)
(212.615 -13.7171 2.87658e-10)
(212.025 -14.4178 1.30057e-10)
(211.45 -15.0983 -7.59488e-11)
(210.808 -15.7498 -3.07703e-10)
(210.176 -16.3813 -5.9333e-10)
(209.501 -16.9858 -9.05021e-10)
(208.855 -17.5685 -1.26601e-09)
(208.219 -18.1217 -1.63921e-09)
(207.581 -18.6475 -2.07082e-09)
(206.948 -19.1412 -2.52496e-09)
(206.335 -19.6068 -3.03036e-09)
(205.71 -20.0195 -3.16262e-09)
(205.1 -20.4333 -3.63991e-09)
(204.489 -20.8071 -3.87529e-09)
(203.906 -21.1732 -4.33593e-09)
(203.339 -21.5008 -4.6373e-09)
(202.734 -21.8597 -5.14458e-09)
(202.04 -22.2178 -5.65158e-09)
(201.51 -22.5039 -6.1153e-09)
(200.988 -22.6712 -6.40045e-09)
(200.714 -22.7676 -6.94027e-09)
(200.617 -22.8608 -7.69752e-09)
(201.33 -23.0651 -9.16186e-09)
(202.713 -23.2558 -9.88731e-09)
(205.355 -23.7413 -1.14545e-08)
(209.95 -24.5068 -1.31862e-08)
(217.053 -25.7162 -1.55781e-08)
(229.122 -27.4873 -1.87348e-08)
(242.027 -29.375 -2.15308e-08)
(258.039 -31.3144 -2.50854e-08)
(272.296 -32.6024 -2.75469e-08)
(285.715 -33.2323 -2.99857e-08)
(296.948 -33.4724 -3.14275e-08)
(305.751 -33.1017 -3.28179e-08)
(311.077 -32.9137 -3.30223e-08)
(314.257 -33.523 -3.36101e-08)
(315.307 -35.9817 -3.34075e-08)
(312.887 -41.2709 -3.35873e-08)
(306.175 -50.7483 -3.32215e-08)
(294.205 -61.8915 -3.31041e-08)
(279.335 -67.2207 -3.25875e-08)
(262.274 -65.1721 -3.28006e-08)
(249.867 -65.1663 -3.2254e-08)
(235.469 -59.8277 -3.23999e-08)
(224.748 -57.4532 -3.19032e-08)
(211.732 -51.421 -3.20224e-08)
(201.411 -47.8926 -3.15831e-08)
(189.023 -41.7754 -3.16976e-08)
(179.179 -37.4836 -3.12895e-08)
(168.459 -31.2252 -3.13931e-08)
(160.276 -25.9413 -3.10407e-08)
(154.009 -18.3002 -3.115e-08)
(152.301 -12.9599 -3.08596e-08)
(152.212 -5.03763 -3.10107e-08)
(150.306 0.596229 -3.08153e-08)
(154.921 5.91015 -3.10513e-08)
(154.343 11.8018 -3.09713e-08)
(158.262 16.0943 -3.12285e-08)
(158.94 21.0267 -3.12371e-08)
(162.825 25.4655 -3.15201e-08)
(164.794 30.3337 -3.16124e-08)
(169.395 35.4427 -3.19274e-08)
(173.53 41.0822 -3.21068e-08)
(180.515 47.6157 -3.24703e-08)
(189.029 55.3922 -3.27483e-08)
(202.267 65.3121 -3.31846e-08)
(219.259 76.253 -3.35685e-08)
(237.754 81.7572 -3.40677e-08)
(252.198 74.5073 -3.44098e-08)
(260.429 66.6994 -3.4612e-08)
(265.765 64.327 -3.4813e-08)
(269.16 61.9004 -3.53231e-08)
(272.983 59.8101 -3.54007e-08)
(274.784 54.6561 -3.56318e-08)
(276.835 47.8172 -3.59698e-08)
(277.627 41.2825 -3.58864e-08)
(278.354 34.4166 -3.62016e-08)
(277.297 27.5109 -3.6116e-08)
(275.953 21.1935 -3.63652e-08)
(273.186 15.3352 -3.62362e-08)
(270.511 10.5055 -3.64883e-08)
(267.076 6.3556 -3.63476e-08)
(264.133 3.06836 -3.65219e-08)
(260.949 0.37697 -3.63969e-08)
(258.488 -1.65743 -3.65148e-08)
(256.192 -3.03842 -3.64058e-08)
(254.762 -3.74219 -3.6471e-08)
(253.938 -3.90568 -3.64112e-08)
(253.624 -3.94777 -3.6426e-08)
(212.155 -3.91958 -2.46503e-09)
(211.783 -4.85668 -2.47384e-09)
(211.381 -5.76173 -2.76044e-09)
(211.089 -6.73341 -2.68461e-09)
(210.748 -7.63215 -2.94808e-09)
(210.484 -8.56911 -2.94815e-09)
(210.155 -9.44499 -3.2027e-09)
(209.884 -10.3465 -3.26753e-09)
(209.556 -11.1984 -3.52265e-09)
(209.289 -12.0652 -3.64263e-09)
(208.98 -12.8884 -3.90423e-09)
(208.729 -13.7156 -4.06984e-09)
(208.445 -14.5007 -4.33838e-09)
(208.217 -15.2775 -4.53801e-09)
(207.964 -16.0083 -4.80873e-09)
(207.762 -16.7152 -5.02699e-09)
(207.542 -17.3659 -5.28851e-09)
(207.365 -17.9733 -5.5053e-09)
(207.172 -18.5127 -5.74074e-09)
(207.005 -18.9998 -5.93278e-09)
(206.818 -19.423 -6.11644e-09)
(206.635 -19.8027 -6.24702e-09)
(206.51 -20.1634 -6.73427e-09)
(206.482 -20.488 -7.04492e-09)
(206.548 -20.7975 -7.5096e-09)
(206.751 -21.091 -7.94078e-09)
(207.096 -21.3865 -8.43146e-09)
(207.712 -21.7475 -9.04212e-09)
(208.709 -22.1502 -9.80837e-09)
(210.378 -22.6403 -1.07277e-08)
(212.686 -23.2254 -1.18334e-08)
(216.158 -24.0192 -1.32811e-08)
(220.879 -25.0408 -1.49484e-08)
(227.907 -26.407 -1.70831e-08)
(236.374 -28.0214 -1.91981e-08)
(246.393 -29.9166 -2.18046e-08)
(257.463 -31.8509 -2.41486e-08)
(268.774 -33.6123 -2.65945e-08)
(278.798 -34.7608 -2.83445e-08)
(289.191 -35.8191 -3.02216e-08)
(298.051 -36.403 -3.1568e-08)
(305.607 -36.7812 -3.25727e-08)
(311.612 -36.7863 -3.33036e-08)
(315.955 -36.6585 -3.35894e-08)
(318.796 -36.5523 -3.38428e-08)
(320.295 -37.0867 -3.36784e-08)
(320.669 -38.5041 -3.37616e-08)
(319.099 -41.533 -3.33871e-08)
(314.898 -47.3944 -3.33796e-08)
(307.005 -55.6095 -3.28717e-08)
(295.351 -63.4394 -3.26823e-08)
(281.701 -66.2216 -3.20119e-08)
(266.446 -64.8272 -3.23775e-08)
(254.173 -64.1399 -3.17359e-08)
(241.132 -59.1636 -3.20015e-08)
(230.154 -56.7095 -3.14501e-08)
(218.416 -50.6663 -3.166e-08)
(207.93 -47.1977 -3.1211e-08)
(196.803 -40.9442 -3.1397e-08)
(187.068 -36.6866 -3.10008e-08)
(177.685 -30.2191 -3.11486e-08)
(170.217 -24.9366 -3.08498e-08)
(165.121 -17.4567 -3.10084e-08)
(163.387 -11.6318 -3.07507e-08)
(163.21 -4.12555 -3.09031e-08)
(162.016 1.01011 -3.07901e-08)
(165.116 7.60495 -3.08974e-08)
(164.316 12.9173 -3.08661e-08)
(167.5 18.063 -3.10289e-08)
(167.695 23.0784 -3.106e-08)
(171.112 27.9677 -3.12694e-08)
(172.538 33.0225 -3.13741e-08)
(176.899 38.3654 -3.16396e-08)
(180.616 44.1486 -3.18282e-08)
(187.629 50.8063 -3.21576e-08)
(196.041 58.4526 -3.24394e-08)
(209.38 67.3723 -3.28493e-08)
(225.222 75.0109 -3.32236e-08)
(241.656 76.2748 -3.36396e-08)
(252.95 70.3994 -3.38866e-08)
(260.63 65.5228 -3.40078e-08)
(266.073 62.6766 -3.40808e-08)
(269.842 59.9256 -3.49535e-08)
(273.194 55.7458 -3.4723e-08)
(274.783 49.937 -3.51865e-08)
(276.233 43.6947 -3.53561e-08)
(276.769 37.6641 -3.53507e-08)
(276.969 31.1404 -3.54258e-08)
(275.795 25.2207 -3.54736e-08)
(274.214 19.5076 -3.55888e-08)
(271.655 14.5162 -3.55114e-08)
(269.065 10.0867 -3.56892e-08)
(265.979 6.44387 -3.56051e-08)
(263.178 3.43753 -3.57245e-08)
(260.286 1.14875 -3.56358e-08)
(257.947 -0.526143 -3.57056e-08)
(255.908 -1.57927 -3.5626e-08)
(254.633 -2.11048 -3.5666e-08)
(253.925 -2.2235 -3.56223e-08)
(253.651 -2.25171 -3.56387e-08)
(212.219 -3.32305 -5.77254e-09)
(211.79 -4.30979 -5.80768e-09)
(211.469 -5.3379 -5.79829e-09)
(211.192 -6.35637 -5.96845e-09)
(210.982 -7.37005 -6.05071e-09)
(210.798 -8.36653 -6.21109e-09)
(210.644 -9.33729 -6.3607e-09)
(210.515 -10.2985 -6.53174e-09)
(210.409 -11.2225 -6.7345e-09)
(210.356 -12.1289 -6.92968e-09)
(210.335 -12.9858 -7.17753e-09)
(210.39 -13.8154 -7.40636e-09)
(210.489 -14.5883 -7.69641e-09)
(210.682 -15.3296 -7.96721e-09)
(210.938 -16.0176 -8.3015e-09)
(211.307 -16.6797 -8.62342e-09)
(211.759 -17.3017 -9.00979e-09)
(212.346 -17.9083 -9.39645e-09)
(213.042 -18.4854 -9.85264e-09)
(213.916 -19.0595 -1.03364e-08)
(214.965 -19.627 -1.09105e-08)
(216.288 -20.2146 -1.15576e-08)
(217.889 -20.8256 -1.23135e-08)
(219.853 -21.4753 -1.30769e-08)
(222.264 -22.1795 -1.40035e-08)
(225.248 -22.9598 -1.49852e-08)
(228.951 -23.849 -1.61721e-08)
(234.321 -25.0543 -1.77055e-08)
(239.469 -26.2798 -1.9181e-08)
(246.598 -27.8675 -2.10364e-08)
(253.435 -29.4132 -2.27462e-08)
(261.417 -31.1288 -2.46094e-08)
(268.999 -32.7204 -2.62523e-08)
(276.475 -34.1686 -2.77725e-08)
(283.807 -35.4974 -2.9152e-08)
(291.066 -36.6868 -3.04757e-08)
(297.832 -37.6767 -3.15246e-08)
(303.975 -38.4627 -3.2475e-08)
(309.349 -39.0641 -3.30917e-08)
(314.003 -39.4962 -3.36766e-08)
(317.65 -39.721 -3.38944e-08)
(320.567 -39.799 -3.41056e-08)
(322.601 -39.8213 -3.40563e-08)
(323.956 -39.9847 -3.40001e-08)
(324.643 -40.4559 -3.38312e-08)
(324.611 -41.51 -3.36218e-08)
(323.562 -43.4861 -3.34317e-08)
(320.757 -47.1882 -3.31022e-08)
(315.551 -52.7775 -3.28909e-08)
(307.17 -59.4737 -3.23992e-08)
(296.054 -64.9363 -3.20921e-08)
(283.195 -66.6852 -3.14065e-08)
(269.205 -65.3299 -3.17896e-08)
(257.356 -63.9533 -3.11594e-08)
(245.12 -59.4788 -3.14376e-08)
(234.335 -56.3246 -3.09113e-08)
(223.217 -50.6289 -3.11341e-08)
(212.947 -46.5935 -3.07308e-08)
(202.441 -40.4925 -3.09288e-08)
(193.062 -35.7298 -3.05725e-08)
(184.39 -29.1379 -3.07225e-08)
(177.554 -23.4467 -3.04808e-08)
(173.002 -16.144 -3.0655e-08)
(171.225 -10.0297 -3.04398e-08)
(170.78 -3.05353 -3.05837e-08)
(170.086 1.94695 -3.05246e-08)
(171.929 8.8614 -3.05417e-08)
(171.41 13.8274 -3.05601e-08)
(173.663 19.3879 -3.06393e-08)
(174.019 24.2364 -3.07036e-08)
(176.894 29.2859 -3.08469e-08)
(178.493 34.2403 -3.09789e-08)
(182.679 39.5729 -3.11992e-08)
(186.688 45.274 -3.14057e-08)
(193.906 51.8485 -3.17029e-08)
(202.676 59.2859 -3.19954e-08)
(215.655 67.3319 -3.23704e-08)
(229.616 72.9246 -3.27306e-08)
(243.462 72.4295 -3.30862e-08)
(253.075 67.8682 -3.32811e-08)
(260.509 64.4319 -3.33741e-08)
(265.841 61.2142 -3.33705e-08)
(269.456 58.3606 -3.4141e-08)
(271.889 53.3211 -3.4165e-08)
(273.242 47.8194 -3.43973e-08)
(274.316 41.8415 -3.46459e-08)
(274.81 36.1821 -3.44875e-08)
(274.785 30.1199 -3.46257e-08)
(273.787 24.6457 -3.46485e-08)
(272.263 19.2628 -3.4766e-08)
(270.005 14.7102 -3.47214e-08)
(267.548 10.5605 -3.48306e-08)
(264.763 7.1985 -3.47908e-08)
(262.126 4.3552 -3.48669e-08)
(259.548 2.23241 -3.48075e-08)
(257.419 0.699576 -3.48455e-08)
(255.656 -0.170947 -3.47879e-08)
(254.529 -0.600805 -3.48098e-08)
(253.913 -0.688071 -3.47795e-08)
(253.672 -0.711079 -3.47872e-08)
(218.377 -2.39074 -1.01327e-08)
(217.826 -3.40159 -1.01145e-08)
(217.741 -4.42387 -1.0302e-08)
(217.559 -5.50708 -1.03993e-08)
(217.723 -6.56635 -1.0628e-08)
(217.835 -7.6476 -1.08205e-08)
(218.195 -8.69247 -1.11062e-08)
(218.557 -9.73697 -1.13825e-08)
(219.147 -10.7425 -1.17356e-08)
(219.82 -11.7525 -1.20957e-08)
(220.725 -12.7413 -1.25309e-08)
(221.787 -13.7441 -1.29881e-08)
(223.112 -14.7409 -1.35287e-08)
(224.68 -15.7621 -1.41112e-08)
(226.581 -16.7937 -1.47943e-08)
(228.85 -17.8652 -1.55488e-08)
(231.595 -18.9728 -1.64342e-08)
(234.837 -20.1426 -1.74126e-08)
(238.329 -21.3338 -1.84478e-08)
(242.274 -22.5852 -1.9556e-08)
(246.493 -23.8588 -2.07154e-08)
(251.098 -25.1709 -2.19178e-08)
(255.921 -26.4827 -2.31404e-08)
(261.01 -27.7991 -2.43658e-08)
(266.195 -29.0899 -2.55835e-08)
(271.429 -30.349 -2.67438e-08)
(276.495 -31.5357 -2.78384e-08)
(281.872 -32.7973 -2.89208e-08)
(285.997 -33.8528 -2.9724e-08)
(291.782 -35.1752 -3.07965e-08)
(295.873 -36.175 -3.14799e-08)
(301.101 -37.3516 -3.23413e-08)
(304.791 -38.2308 -3.28416e-08)
(309.207 -39.2079 -3.34568e-08)
(312.465 -39.9357 -3.37936e-08)
(316.085 -40.6619 -3.41851e-08)
(318.646 -41.1463 -3.43257e-08)
(321.343 -41.6148 -3.45042e-08)
(323.153 -41.9231 -3.4468e-08)
(324.985 -42.2219 -3.44788e-08)
(326.058 -42.3782 -3.42974e-08)
(327.086 -42.5998 -3.41991e-08)
(327.594 -42.8716 -3.39253e-08)
(327.884 -43.3565 -3.376e-08)
(327.662 -44.1663 -3.34538e-08)
(326.852 -45.5842 -3.32345e-08)
(324.905 -48.0608 -3.29156e-08)
(321.355 -51.8981 -3.26171e-08)
(315.523 -56.9776 -3.22659e-08)
(307.161 -62.2505 -3.18254e-08)
(296.621 -66.1266 -3.13971e-08)
(284.466 -67.1611 -3.0772e-08)
(271.435 -65.654 -3.11008e-08)
(260.081 -63.7117 -3.05349e-08)
(248.426 -59.3752 -3.07749e-08)
(237.904 -55.8015 -3.03106e-08)
(227.219 -50.1568 -3.05107e-08)
(217.161 -45.7939 -3.01711e-08)
(207.084 -39.635 -3.03614e-08)
(197.995 -34.5527 -3.00523e-08)
(189.819 -27.7669 -3.01907e-08)
(183.399 -21.8492 -3.00011e-08)
(179.156 -14.5953 -3.01752e-08)
(177.254 -8.41462 -3.00006e-08)
(176.594 -1.71458 -3.01314e-08)
(176.13 3.37493 -3.01071e-08)
(177.208 10.2514 -3.00702e-08)
(176.89 15.1669 -3.01144e-08)
(178.457 20.9976 -3.01378e-08)
(179.007 25.8185 -3.02184e-08)
(181.385 31.0636 -3.03121e-08)
(183.2 36.0228 -3.04601e-08)
(187.104 41.428 -3.06438e-08)
(191.373 47.1251 -3.08644e-08)
(198.512 53.5572 -3.11344e-08)
(207.437 60.4397 -3.14373e-08)
(219.772 66.9484 -3.17828e-08)
(232.429 70.3368 -3.21228e-08)
(244.363 69.0948 -3.24091e-08)
(252.934 65.7132 -3.25622e-08)
(260.126 62.6198 -3.26251e-08)
(265.225 58.8997 -3.27757e-08)
(268.566 55.6923 -3.32903e-08)
(270.583 50.187 -3.35478e-08)
(271.735 45.2234 -3.36035e-08)
(272.61 39.4471 -3.38202e-08)
(273.04 34.272 -3.36841e-08)
(272.882 28.5951 -3.38453e-08)
(271.969 23.6548 -3.37857e-08)
(270.49 18.6671 -3.3935e-08)
(268.446 14.5368 -3.38737e-08)
(266.143 10.6729 -3.39728e-08)
(263.631 7.64464 -3.39427e-08)
(261.204 5.06235 -3.3998e-08)
(258.895 3.23522 -3.39541e-08)
(256.975 1.89502 -3.39747e-08)
(255.442 1.17733 -3.39329e-08)
(254.444 0.809604 -3.39401e-08)
(253.9 0.74028 -3.39202e-08)
(253.686 0.720377 -3.39224e-08)
(237.346 -1.0199 -1.73435e-08)
(237.218 -2.14008 -1.74653e-08)
(237.791 -3.32656 -1.77912e-08)
(238.315 -4.63337 -1.80521e-08)
(239.451 -5.97127 -1.84925e-08)
(240.615 -7.3845 -1.88998e-08)
(242.312 -8.8013 -1.94629e-08)
(244.096 -10.2523 -2.00164e-08)
(246.346 -11.7007 -2.07015e-08)
(248.726 -13.1873 -2.13888e-08)
(251.526 -14.6955 -2.21824e-08)
(254.486 -16.2528 -2.29807e-08)
(257.805 -17.8366 -2.38581e-08)
(261.27 -19.4558 -2.47309e-08)
(264.994 -21.0807 -2.56481e-08)
(268.779 -22.7053 -2.65356e-08)
(272.646 -24.2944 -2.74192e-08)
(276.445 -25.8433 -2.82439e-08)
(280.432 -27.3626 -2.9097e-08)
(284.341 -28.8281 -2.98886e-08)
(288.315 -30.2403 -3.06763e-08)
(292.173 -31.5861 -3.13958e-08)
(295.993 -32.8638 -3.20866e-08)
(299.652 -34.0699 -3.27031e-08)
(303.189 -35.203 -3.32746e-08)
(306.527 -36.2652 -3.3768e-08)
(309.689 -37.2548 -3.42098e-08)
(313.01 -38.3084 -3.46231e-08)
(314.429 -38.9683 -3.47028e-08)
(317.5 -39.9328 -3.50296e-08)
(318.997 -40.6044 -3.50421e-08)
(321.394 -41.3659 -3.52276e-08)
(322.615 -41.9439 -3.51425e-08)
(324.49 -42.5527 -3.52165e-08)
(325.482 -43.0421 -3.50545e-08)
(326.904 -43.5122 -3.50376e-08)
(327.641 -43.9003 -3.48069e-08)
(328.64 -44.2418 -3.47183e-08)
(329.138 -44.5511 -3.44321e-08)
(329.774 -44.8108 -3.42953e-08)
(330.041 -45.1159 -3.39653e-08)
(330.353 -45.445 -3.37945e-08)
(330.276 -45.9167 -3.3449e-08)
(330.099 -46.6008 -3.32496e-08)
(329.315 -47.7137 -3.28951e-08)
(327.962 -49.5092 -3.26632e-08)
(325.393 -52.2426 -3.22884e-08)
(321.344 -56.0129 -3.19924e-08)
(315.231 -60.4104 -3.15684e-08)
(307.107 -64.5992 -3.11587e-08)
(297.088 -67.4305 -3.06561e-08)
(285.513 -68.0527 -3.01049e-08)
(273.313 -66.1855 -3.03608e-08)
(262.446 -63.8997 -2.98669e-08)
(251.303 -59.4768 -3.00553e-08)
(241.082 -55.5222 -2.96592e-08)
(230.744 -49.8382 -2.98278e-08)
(220.923 -45.0868 -2.95539e-08)
(211.178 -38.8391 -2.97314e-08)
(202.372 -33.333 -2.94658e-08)
(194.561 -26.3599 -2.95904e-08)
(188.421 -20.1497 -2.94438e-08)
(184.308 -12.9555 -2.9616e-08)
(182.245 -6.74022 -2.94726e-08)
(181.403 -0.235381 -2.9593e-08)
(181.002 4.92906 -2.95917e-08)
(181.619 11.6001 -2.9524e-08)
(181.381 16.5628 -2.95786e-08)
(182.499 22.4551 -2.95679e-08)
(183.138 27.2373 -2.96515e-08)
(185.175 32.5479 -2.97126e-08)
(187.154 37.4158 -2.98677e-08)
(190.904 42.7937 -3.00274e-08)
(195.461 48.3361 -3.02579e-08)
(202.597 54.5003 -3.05096e-08)
(211.553 60.71 -3.08165e-08)
(222.992 65.9066 -3.11338e-08)
(234.305 67.8766 -3.14473e-08)
(244.773 66.5143 -3.16856e-08)
(252.776 63.8005 -3.18286e-08)
(259.642 60.703 -3.18873e-08)
(264.421 56.7394 -3.20559e-08)
(267.37 53.3142 -3.26115e-08)
(269.121 47.8472 -3.25811e-08)
(270.098 43.2519 -3.30021e-08)
(270.897 37.7109 -3.27411e-08)
(271.243 32.923 -3.30289e-08)
(271.06 27.5763 -3.29385e-08)
(270.208 23.0284 -3.30057e-08)
(268.832 18.3666 -3.30784e-08)
(266.969 14.5701 -3.30462e-08)
(264.86 10.9693 -3.31187e-08)
(262.582 8.21681 -3.30994e-08)
(260.377 5.83524 -3.3139e-08)
(258.314 4.22167 -3.31065e-08)
(256.6 3.04658 -3.31073e-08)
(255.255 2.44728 -3.30841e-08)
(254.369 2.12521 -3.30772e-08)
(253.886 2.06956 -3.30673e-08)
(253.693 2.05184 -3.30637e-08)
(268.09 -0.223137 -2.62465e-08)
(268.882 -1.5933 -2.65832e-08)
(270.051 -3.10169 -2.69905e-08)
(271.408 -4.76331 -2.74052e-08)
(273.115 -6.49598 -2.78865e-08)
(274.971 -8.31316 -2.83682e-08)
(277.128 -10.149 -2.89091e-08)
(279.376 -12.013 -2.94401e-08)
(281.856 -13.8599 -3.00161e-08)
(284.365 -15.7023 -3.05701e-08)
(287.04 -17.5206 -3.1152e-08)
(289.706 -19.3377 -3.16998e-08)
(292.488 -21.136 -3.22595e-08)
(295.227 -22.9268 -3.27747e-08)
(298.028 -24.6916 -3.32871e-08)
(300.754 -26.4348 -3.37471e-08)
(303.494 -28.1379 -3.41928e-08)
(306.135 -29.799 -3.45838e-08)
(308.757 -31.3962 -3.49545e-08)
(311.24 -32.9247 -3.52639e-08)
(313.666 -34.3715 -3.55477e-08)
(315.927 -35.7326 -3.57684e-08)
(318.099 -37.0018 -3.59612e-08)
(320.092 -38.1781 -3.60917e-08)
(321.976 -39.2605 -3.61937e-08)
(323.678 -40.2504 -3.62389e-08)
(325.256 -41.1501 -3.62566e-08)
(326.794 -42.0696 -3.6217e-08)
(327.009 -42.5528 -3.60471e-08)
(328.313 -43.2841 -3.59793e-08)
(328.765 -43.8571 -3.57345e-08)
(329.644 -44.3269 -3.56398e-08)
(329.967 -44.8194 -3.53498e-08)
(330.644 -45.1953 -3.52274e-08)
(330.879 -45.6451 -3.49091e-08)
(331.43 -45.9864 -3.47619e-08)
(331.587 -46.3984 -3.44243e-08)
(332.006 -46.6978 -3.42586e-08)
(332.076 -47.0675 -3.39048e-08)
(332.341 -47.3549 -3.37206e-08)
(332.258 -47.748 -3.33635e-08)
(332.275 -48.171 -3.31616e-08)
(331.872 -48.8191 -3.28029e-08)
(331.353 -49.7339 -3.25823e-08)
(330.158 -51.1375 -3.22179e-08)
(328.384 -53.1816 -3.19654e-08)
(325.362 -56.0312 -3.15749e-08)
(321.017 -59.541 -3.12673e-08)
(314.862 -63.3277 -3.08232e-08)
(307.045 -66.7144 -3.04236e-08)
(297.525 -68.8539 -2.9899e-08)
(286.488 -69.164 -2.94033e-08)
(275.047 -66.8607 -2.95976e-08)
(264.64 -64.2934 -2.9161e-08)
(253.98 -59.6652 -2.93042e-08)
(244.06 -55.3762 -2.89644e-08)
(234.041 -49.5431 -2.91056e-08)
(224.451 -44.4373 -2.88888e-08)
(214.999 -38.017 -2.90567e-08)
(206.454 -32.1189 -2.88277e-08)
(198.935 -24.9273 -2.89407e-08)
(192.979 -18.444 -2.88275e-08)
(188.897 -11.2325 -2.89961e-08)
(186.642 -4.95885 -2.88803e-08)
(185.605 1.45407 -2.89919e-08)
(185.163 6.63188 -2.90077e-08)
(185.494 13.1276 -2.89213e-08)
(185.249 18.1801 -2.89799e-08)
(186.056 24.0661 -2.89478e-08)
(186.696 28.8656 -2.90288e-08)
(188.503 34.2121 -2.90691e-08)
(190.567 39.0194 -2.92277e-08)
(194.232 44.3622 -2.93729e-08)
(198.96 49.7068 -2.96099e-08)
(206.019 55.4743 -2.98505e-08)
(214.783 60.7951 -3.01586e-08)
(225.356 64.6672 -3.04506e-08)
(235.623 65.6196 -3.07445e-08)
(245.023 64.3444 -3.09578e-08)
(252.601 61.8379 -3.10969e-08)
(259.062 58.5644 -3.11549e-08)
(263.509 54.3917 -3.13167e-08)
(266.148 50.8361 -3.18326e-08)
(267.724 45.5751 -3.16743e-08)
(268.565 41.2758 -3.23816e-08)
(269.303 36.0338 -3.17751e-08)
(269.563 31.586 -3.23245e-08)
(269.388 26.5825 -3.19585e-08)
(268.574 22.392 -3.23238e-08)
(267.319 18.0625 -3.21388e-08)
(265.606 14.5821 -3.23091e-08)
(263.692 11.263 -3.22394e-08)
(261.622 8.76869 -3.23071e-08)
(259.639 6.61221 -3.22706e-08)
(257.794 5.19044 -3.2293e-08)
(256.274 4.15092 -3.22526e-08)
(255.088 3.64014 -3.22559e-08)
(254.301 3.35389 -3.22404e-08)
(253.869 3.30823 -3.22337e-08)
(253.695 3.29226 -3.22306e-08)
(296.212 0.0229216 -3.31141e-08)
(297.106 -1.45625 -3.34324e-08)
(297.947 -3.11009 -3.37125e-08)
(299.158 -4.9384 -3.40367e-08)
(300.365 -6.86492 -3.43309e-08)
(301.844 -8.88985 -3.46504e-08)
(303.329 -10.9467 -3.49456e-08)
(304.981 -13.0323 -3.52484e-08)
(306.618 -15.0987 -3.55284e-08)
(308.324 -17.1501 -3.58009e-08)
(309.989 -19.1589 -3.60496e-08)
(311.658 -21.145 -3.62788e-08)
(313.293 -23.0982 -3.64833e-08)
(314.907 -25.027 -3.66602e-08)
(316.491 -26.9161 -3.68114e-08)
(318.031 -28.7659 -3.69291e-08)
(319.541 -30.5595 -3.70227e-08)
(320.989 -32.2948 -3.7079e-08)
(322.399 -33.9556 -3.7111e-08)
(323.731 -35.5406 -3.71059e-08)
(325.017 -37.0366 -3.70781e-08)
(326.213 -38.4438 -3.70144e-08)
(327.357 -39.7524 -3.69297e-08)
(328.402 -40.9661 -3.68116e-08)
(329.393 -42.0784 -3.66764e-08)
(330.283 -43.0965 -3.65089e-08)
(331.111 -44.0165 -3.63286e-08)
(331.867 -44.9473 -3.60942e-08)
(331.879 -45.3688 -3.58923e-08)
(332.53 -46.0989 -3.56579e-08)
(332.639 -46.5743 -3.53658e-08)
(333.069 -47.0426 -3.51553e-08)
(333.11 -47.4284 -3.48392e-08)
(333.432 -47.7896 -3.46238e-08)
(333.433 -48.1327 -3.43008e-08)