/*--------------------------------*- C++ -*----------------------------------*\
  =========                 |
  \\      /  F ield         | OpenFOAM: The Open Source CFD Toolbox
   \\    /   O peration     | Website:  https://openfoam.org
    \\  /    A nd           | Version:  7
     \\/     M anipulation  |
\*---------------------------------------------------------------------------*/
FoamFile
{
    version     2.0;
    format      ascii;
    class       volVectorField;
    location    "0.135";
    object      U;
}
// * * * * * * * * * * * * * * * * * * * * * * * * * * * * * * * * * * * * * //

dimensions      [0 1 -1 0 0 0 0];

internalField   nonuniform List<vector> 
48560
(
(221.947 -5.36774 -4.90422e-11)
(221.755 -6.19692 -5.88962e-11)
(221.585 -7.02832 -7.81818e-11)
(221.438 -7.84034 -1.00133e-10)
(221.306 -8.63324 -1.31256e-10)
(221.186 -9.4012 -1.65912e-10)
(221.074 -10.147 -2.09123e-10)
(220.969 -10.8664 -2.55713e-10)
(220.867 -11.5638 -3.09347e-10)
(220.766 -12.2366 -3.65486e-10)
(220.667 -12.8902 -4.25981e-10)
(220.566 -13.5232 -4.87227e-10)
(220.463 -14.1407 -5.49539e-10)
(220.356 -14.7411 -6.09792e-10)
(220.244 -15.3283 -6.66272e-10)
(220.124 -15.9005 -7.17037e-10)
(219.997 -16.4603 -7.58858e-10)
(219.857 -17.0061 -7.89835e-10)
(219.705 -17.5399 -8.06765e-10)
(219.535 -18.0609 -8.07791e-10)
(219.347 -18.5705 -7.89926e-10)
(219.134 -19.0684 -7.5114e-10)
(218.895 -19.5549 -6.89698e-10)
(218.622 -20.0296 -6.0284e-10)
(218.313 -20.4915 -4.92897e-10)
(217.96 -20.9395 -3.56781e-10)
(217.559 -21.3724 -1.98086e-10)
(217.041 -21.8648 1.69803e-11)
(216.287 -22.4137 3.11483e-10)
(215.394 -22.9119 5.96049e-10)
(214.307 -23.3846 8.82189e-10)
(212.964 -23.8068 1.15996e-09)
(211.282 -24.1917 1.37825e-09)
(209.082 -24.5152 1.53875e-09)
(206.059 -24.7615 1.44288e-09)
(202.493 -24.8963 1.19453e-09)
(198.254 -24.8757 5.65361e-10)
(193.604 -24.7461 -1.40074e-10)
(188.789 -24.4532 -1.37792e-09)
(184.856 -24.0505 -2.54067e-09)
(180.812 -23.2555 -4.16559e-09)
(176.735 -22.6199 -4.55048e-09)
(172.879 -21.4532 -5.91365e-09)
(169.149 -20.022 -6.40511e-09)
(165.805 -18.7131 -7.02764e-09)
(165.083 -16.0971 -9.5052e-09)
(171.77 -12.2478 -1.25235e-08)
(191.389 -6.88468 -1.71184e-08)
(221.309 -4.08053 -2.21827e-08)
(250.055 -7.78881 -2.61617e-08)
(271.686 -31.4681 -2.92615e-08)
(263.864 -74.1577 -3.08633e-08)
(229.269 -57.6504 -2.97277e-08)
(214.681 -60.7851 -2.9814e-08)
(195.662 -51.6235 -2.92084e-08)
(183.878 -51.0943 -2.92477e-08)
(165.481 -43.5363 -2.86451e-08)
(153.75 -41.3576 -2.86596e-08)
(133.696 -34.3428 -2.80021e-08)
(121.443 -31.2415 -2.80402e-08)
(99.3228 -24.1237 -2.73113e-08)
(85.6831 -20.417 -2.73069e-08)
(66.0755 -11.0082 -2.64242e-08)
(66.3463 -8.5431 -2.67585e-08)
(55.7814 -5.57968 -2.62869e-08)
(52.6453 1.12769 -2.6073e-08)
(56.5747 2.2247 -2.63171e-08)
(58.8229 4.44237 -2.65347e-08)
(60.5567 6.5087 -2.67403e-08)
(63.5757 8.64363 -2.70246e-08)
(67.9237 11.4707 -2.74342e-08)
(73.4448 14.9745 -2.78831e-08)
(80.3088 19.2409 -2.83866e-08)
(88.7299 24.4694 -2.89273e-08)
(98.9291 30.8338 -2.95103e-08)
(111.36 38.4929 -3.01205e-08)
(127.427 48.2365 -3.07961e-08)
(149.439 61.6848 -3.15075e-08)
(182.285 78.9863 -3.22209e-08)
(220.441 84.7197 -3.28695e-08)
(259.689 66.4919 -3.37732e-08)
(254.786 60.4472 -3.40208e-08)
(246.368 53.3835 -3.43864e-08)
(251.803 56.0634 -3.43955e-08)
(256.211 56.6906 -3.464e-08)
(267.566 53.7093 -3.53857e-08)
(271.759 43.0845 -3.55557e-08)
(275.782 36.6796 -3.59237e-08)
(275.79 26.9355 -3.60915e-08)
(275.43 19.8337 -3.63766e-08)
(273.263 14.3847 -3.64772e-08)
(270.017 8.44321 -3.66545e-08)
(266.521 3.74695 -3.68035e-08)
(263.136 -0.00116443 -3.69437e-08)
(260.008 -3.04811 -3.70502e-08)
(257.305 -5.5127 -3.71555e-08)
(255.074 -7.47894 -3.72355e-08)
(253.411 -8.90356 -3.72989e-08)
(252.353 -9.71777 -3.73446e-08)
(252.112 -9.95824 -3.73683e-08)
(221.192 -5.0879 -5.89734e-10)
(221.009 -5.94573 -6.17958e-10)
(220.841 -6.80029 -6.46874e-10)
(220.706 -7.64509 -6.73444e-10)
(220.578 -8.46257 -6.99069e-10)
(220.467 -9.26019 -7.18644e-10)
(220.356 -10.0283 -7.35813e-10)
(220.251 -10.7748 -7.43079e-10)
(220.141 -11.4973 -7.45613e-10)
(220.027 -12.2043 -7.34507e-10)
(219.908 -12.8957 -7.18481e-10)
(219.783 -13.573 -6.87718e-10)
(219.647 -14.2349 -6.47557e-10)
(219.499 -14.8797 -5.9021e-10)
(219.335 -15.507 -5.19782e-10)
(219.154 -16.114 -4.31269e-10)
(218.953 -16.702 -3.2819e-10)
(218.729 -17.2693 -2.08722e-10)
(218.478 -17.8191 -7.68107e-11)
(218.198 -18.3515 6.60927e-11)
(217.883 -18.8697 2.2222e-10)
(217.529 -19.3711 3.85945e-10)
(217.127 -19.8552 5.59909e-10)
(216.671 -20.3192 7.35453e-10)
(216.147 -20.7628 9.17432e-10)
(215.538 -21.1841 1.09055e-09)
(214.827 -21.5814 1.25748e-09)
(213.849 -22.0214 1.41482e-09)
(212.235 -22.4904 1.51296e-09)
(210.279 -22.9014 1.40485e-09)
(208.02 -23.2593 1.20325e-09)
(205.369 -23.5389 6.85042e-10)
(202.471 -23.7666 1.11525e-10)
(199.346 -23.9087 -9.01346e-10)
(196.472 -23.9689 -1.93636e-09)
(193.656 -23.8485 -3.34156e-09)
(191.147 -23.7678 -3.79532e-09)
(188.658 -23.5227 -5.07361e-09)
(186.653 -23.2636 -5.89825e-09)
(184.846 -22.7268 -6.77033e-09)
(183.407 -22.2537 -7.20706e-09)
(183.042 -21.7386 -8.15492e-09)
(184.917 -20.8173 -1.09414e-08)
(190.627 -20.8877 -1.25645e-08)
(204.548 -21.4823 -1.69168e-08)
(229.835 -22.8104 -2.20609e-08)
(255.637 -23.8669 -2.63484e-08)
(277.807 -24.7595 -2.9625e-08)
(288.944 -26.5143 -3.09993e-08)
(295.841 -34.6627 -3.2392e-08)
(287.449 -53.5422 -3.27531e-08)
(275.13 -72.0739 -3.32447e-08)
(246.997 -67.1274 -3.26836e-08)
(235.294 -67.3322 -3.26003e-08)
(216.33 -61.472 -3.22351e-08)
(206.916 -58.3939 -3.20983e-08)
(189.502 -52.6491 -3.17863e-08)
(179.974 -48.5889 -3.15813e-08)
(162.665 -42.4782 -3.12957e-08)
(152.775 -37.7518 -3.10352e-08)
(136.166 -31.2762 -3.07774e-08)
(125.728 -26.056 -3.03927e-08)
(113.384 -16.8047 -3.00695e-08)
(111.847 -12.2643 -2.98498e-08)
(107.958 -6.68255 -2.9855e-08)
(105.468 1.30449 -2.93708e-08)
(111.121 3.49159 -2.98197e-08)
(113.938 8.65579 -2.99007e-08)
(116.835 11.7532 -3.01483e-08)
(121.023 15.5199 -3.03237e-08)
(124.798 18.9556 -3.06275e-08)
(130.436 23.1842 -3.08744e-08)
(135.909 27.5026 -3.12283e-08)
(143.594 32.9526 -3.15399e-08)
(151.846 39.109 -3.19458e-08)
(163.024 46.951 -3.23259e-08)
(176.868 56.9037 -3.2805e-08)
(197.309 71.4789 -3.32753e-08)
(221.301 90.2732 -3.38523e-08)
(241.908 94.6582 -3.44568e-08)
(258.387 73.9817 -3.50278e-08)
(263.721 63.9366 -3.55054e-08)
(266.057 61.5186 -3.57039e-08)
(270.263 62.6656 -3.616e-08)
(272.857 63.466 -3.59418e-08)
(275.839 59.6065 -3.69396e-08)
(277.533 51.0351 -3.65116e-08)
(279.534 43.4011 -3.72377e-08)
(278.851 33.3396 -3.68516e-08)
(278.004 24.7954 -3.75709e-08)
(274.971 16.7012 -3.7151e-08)
(272.278 10.845 -3.76941e-08)
(268.296 5.71674 -3.73659e-08)
(265.214 1.9854 -3.7759e-08)
(261.551 -1.19583 -3.74892e-08)
(258.961 -3.59794 -3.77624e-08)
(256.277 -5.6709 -3.75487e-08)
(254.712 -7.14224 -3.77088e-08)
(253.724 -7.74748 -3.76e-08)
(253.359 -7.93816 -3.76223e-08)
(219.988 -4.79956 -1.82287e-10)
(219.793 -5.71125 -1.57156e-10)
(219.577 -6.62099 -1.04033e-10)
(219.425 -7.52533 -6.28264e-11)
(219.247 -8.39297 3.79407e-12)
(219.108 -9.24208 6.16629e-11)
(218.939 -10.0544 1.41762e-10)
(218.789 -10.8541 2.16467e-10)
(218.605 -11.6304 3.09279e-10)
(218.424 -12.396 3.98979e-10)
(218.208 -13.1355 5.04637e-10)
(217.982 -13.8554 6.10603e-10)
(217.718 -14.5413 7.26543e-10)
(217.43 -15.1989 8.41049e-10)
(217.094 -15.819 9.56771e-10)
(216.714 -16.4094 1.06477e-09)
(216.263 -16.9672 1.16008e-09)
(215.733 -17.502 1.23299e-09)
(215.088 -18.0149 1.26617e-09)
(214.398 -18.5117 1.28284e-09)
(213.612 -18.9919 1.25243e-09)
(212.77 -19.4574 1.18918e-09)
(211.834 -19.9046 1.06274e-09)
(210.83 -20.3305 9.20443e-10)
(209.73 -20.7366 6.76575e-10)
(208.561 -21.1166 4.14084e-10)
(207.317 -21.4732 2.75179e-11)
(205.834 -21.8559 -4.54928e-10)
(203.894 -22.2597 -1.32123e-09)
(202.31 -22.6013 -2.15638e-09)
(200.521 -22.8638 -3.27218e-09)
(199.025 -23.0901 -3.59838e-09)
(197.415 -23.2614 -4.62352e-09)
(196.138 -23.3987 -5.19796e-09)
(194.946 -23.4174 -5.95173e-09)
(193.889 -23.3378 -6.42714e-09)
(193.274 -23.1709 -7.12857e-09)
(193.117 -22.9855 -8.07624e-09)
(194.531 -22.8286 -1.00615e-08)
(197.555 -23.0408 -1.12224e-08)
(204.156 -23.6031 -1.3761e-08)
(215.884 -24.703 -1.69591e-08)
(233.745 -26.1255 -2.12576e-08)
(253.357 -27.6656 -2.46783e-08)
(273.412 -28.0494 -2.86297e-08)
(287.786 -27.1181 -3.03359e-08)
(299.472 -26.419 -3.21797e-08)
(305.308 -27.0859 -3.26747e-08)
(307.594 -31.1718 -3.32153e-08)
(303.599 -41.4127 -3.3281e-08)
(292.418 -57.7442 -3.32455e-08)
(276.518 -68.0654 -3.30847e-08)
(256.592 -61.9599 -3.29075e-08)
(244.507 -65.3499 -3.26534e-08)
(227.863 -57.5582 -3.24953e-08)
(217.675 -57.0995 -3.22069e-08)
(202.677 -49.8136 -3.2086e-08)
(192.626 -47.5255 -3.17747e-08)
(178.162 -40.712 -3.16917e-08)
(168.183 -37.2399 -3.13588e-08)
(155.111 -30.7833 -3.13094e-08)
(145.973 -26.3742 -3.09577e-08)
(137.71 -18.2056 -3.09171e-08)
(136.059 -13.8374 -3.06459e-08)
(135.387 -5.9047 -3.07403e-08)
(132.908 0.995016 -3.04453e-08)
(138.64 4.57928 -3.07962e-08)
(139.529 10.9696 -3.07381e-08)
(143.233 14.6249 -3.10253e-08)
(145.455 19.6312 -3.10689e-08)
(149.132 23.9291 -3.13797e-08)
(152.45 28.994 -3.15082e-08)
(156.904 34.1491 -3.18506e-08)
(162.028 40.1001 -3.20625e-08)
(168.646 46.7089 -3.24533e-08)
(177.393 54.5428 -3.27595e-08)
(189.893 64.2626 -3.32297e-08)
(208.61 76.2671 -3.36602e-08)
(232.075 84.8543 -3.42142e-08)
(250.996 79.659 -3.46675e-08)
(260.317 67.7103 -3.50176e-08)
(265.186 63.5585 -3.52865e-08)
(267.593 61.0895 -3.55829e-08)
(272.031 59.6339 -3.61029e-08)
(274.946 55.1726 -3.59262e-08)
(277.792 48.568 -3.67514e-08)
(278.733 41.1951 -3.62556e-08)
(280.056 33.9935 -3.69666e-08)
(278.899 26.4906 -3.65765e-08)
(277.593 20.1403 -3.70999e-08)
(274.456 14.266 -3.68296e-08)
(271.703 9.30767 -3.7195e-08)
(267.975 5.10045 -3.69801e-08)
(264.962 1.73823 -3.7237e-08)
(261.557 -1.00204 -3.70578e-08)
(258.988 -3.0732 -3.72314e-08)
(256.461 -4.57348 -3.70817e-08)
(254.881 -5.47512 -3.71847e-08)
(253.926 -5.77581 -3.71097e-08)
(253.57 -5.88516 -3.71219e-08)
(216.944 -4.51606 6.05752e-10)
(216.668 -5.45256 6.62398e-10)
(216.271 -6.37377 6.72625e-10)
(216.012 -7.29297 7.05735e-10)
(215.632 -8.16738 7.03768e-10)
(215.344 -9.02758 7.07396e-10)
(214.929 -9.8496 6.85254e-10)
(214.569 -10.6653 6.5255e-10)
(214.093 -11.4557 5.99589e-10)
(213.658 -12.2357 5.21299e-10)
(213.125 -12.9853 4.23709e-10)
(212.618 -13.7172 2.87839e-10)
(212.029 -14.4179 1.30111e-10)
(211.454 -15.0984 -7.60077e-11)
(210.811 -15.7499 -3.07828e-10)
(210.18 -16.3814 -5.93569e-10)
(209.505 -16.9859 -9.05395e-10)
(208.859 -17.5686 -1.26652e-09)
(208.223 -18.1218 -1.63987e-09)
(207.584 -18.6475 -2.07167e-09)
(206.952 -19.1412 -2.52594e-09)
(206.339 -19.6068 -3.03152e-09)
(205.714 -20.0195 -3.16384e-09)
(205.104 -20.4334 -3.64133e-09)
(204.493 -20.8072 -3.87681e-09)
(203.91 -21.1732 -4.33763e-09)
(203.343 -21.5008 -4.63911e-09)
(202.738 -21.8597 -5.14654e-09)
(202.044 -22.2178 -5.65371e-09)
(201.514 -22.5038 -6.11762e-09)
(200.993 -22.6711 -6.40279e-09)
(200.719 -22.7675 -6.94268e-09)
(200.621 -22.8607 -7.70037e-09)
(201.335 -23.065 -9.16523e-09)
(202.719 -23.2559 -9.89093e-09)
(205.362 -23.7414 -1.14588e-08)
(209.957 -24.507 -1.3191e-08)
(217.061 -25.7166 -1.55839e-08)
(229.13 -27.4875 -1.87414e-08)
(242.035 -29.3752 -2.15382e-08)
(258.046 -31.3144 -2.50937e-08)
(272.302 -32.6021 -2.75555e-08)
(285.72 -33.232 -2.9995e-08)
(296.952 -33.4718 -3.14369e-08)
(305.755 -33.1011 -3.28276e-08)
(311.08 -32.913 -3.30319e-08)
(314.26 -33.5223 -3.36198e-08)
(315.309 -35.9812 -3.3417e-08)
(312.889 -41.2705 -3.35967e-08)
(306.176 -50.7481 -3.32308e-08)
(294.206 -61.8915 -3.31132e-08)
(279.335 -67.2207 -3.25964e-08)
(262.275 -65.1722 -3.28097e-08)
(249.867 -65.1664 -3.22629e-08)
(235.469 -59.8277 -3.24089e-08)
(224.749 -57.4533 -3.1912e-08)
(211.732 -51.4211 -3.20313e-08)
(201.411 -47.8926 -3.15918e-08)
(189.023 -41.7755 -3.17065e-08)
(179.179 -37.4836 -3.12981e-08)
(168.46 -31.2252 -3.14019e-08)
(160.276 -25.9414 -3.10493e-08)
(154.009 -18.3002 -3.11588e-08)
(152.301 -12.9599 -3.08681e-08)
(152.213 -5.0376 -3.10193e-08)
(150.306 0.596222 -3.08238e-08)
(154.922 5.91014 -3.10599e-08)
(154.343 11.8018 -3.09798e-08)
(158.262 16.0943 -3.1237e-08)
(158.94 21.0267 -3.12456e-08)
(162.825 25.4656 -3.15286e-08)
(164.794 30.3338 -3.16209e-08)
(169.395 35.4427 -3.19359e-08)
(173.53 41.0822 -3.21153e-08)
(180.515 47.6158 -3.24789e-08)
(189.03 55.3924 -3.27569e-08)
(202.267 65.3123 -3.31934e-08)
(219.259 76.2532 -3.35772e-08)
(237.754 81.7574 -3.40766e-08)
(252.198 74.5075 -3.44187e-08)
(260.429 66.6996 -3.4621e-08)
(265.766 64.3272 -3.48219e-08)
(269.16 61.9005 -3.53323e-08)
(272.983 59.8103 -3.54099e-08)
(274.784 54.6562 -3.56411e-08)
(276.836 47.8173 -3.59791e-08)
(277.628 41.2826 -3.58958e-08)
(278.355 34.4167 -3.62109e-08)
(277.297 27.511 -3.61253e-08)
(275.953 21.1935 -3.63745e-08)
(273.187 15.3352 -3.62456e-08)
(270.511 10.5055 -3.64976e-08)
(267.077 6.3556 -3.6357e-08)
(264.133 3.06835 -3.65312e-08)
(260.949 0.376963 -3.64063e-08)
(258.489 -1.65744 -3.65241e-08)
(256.192 -3.03843 -3.64151e-08)
(254.762 -3.7422 -3.64803e-08)
(253.938 -3.9057 -3.64205e-08)
(253.624 -3.94779 -3.64353e-08)
(212.159 -3.91963 -2.46609e-09)
(211.787 -4.85683 -2.47458e-09)
(211.385 -5.76185 -2.76159e-09)
(211.093 -6.73358 -2.68546e-09)
(210.752 -7.6323 -2.94926e-09)
(210.488 -8.5693 -2.94918e-09)
(210.159 -9.44516 -3.20394e-09)
(209.888 -10.3467 -3.26868e-09)
(209.56 -11.1986 -3.524e-09)
(209.293 -12.0654 -3.64395e-09)
(208.984 -12.8886 -3.90573e-09)
(208.733 -13.7158 -4.07131e-09)
(208.45 -14.5009 -4.34005e-09)
(208.221 -15.2777 -4.53974e-09)
(207.968 -16.0085 -4.81058e-09)
(207.766 -16.7154 -5.02887e-09)
(207.546 -17.366 -5.29047e-09)
(207.37 -17.9734 -5.50737e-09)
(207.177 -18.5128 -5.7429e-09)
(207.009 -18.9998 -5.935e-09)
(206.822 -19.423 -6.11872e-09)
(206.64 -19.8027 -6.24931e-09)
(206.515 -20.1634 -6.73677e-09)
(206.487 -20.488 -7.04752e-09)
(206.553 -20.7975 -7.51241e-09)
(206.756 -21.0909 -7.94378e-09)
(207.101 -21.3865 -8.43463e-09)
(207.717 -21.7475 -9.04548e-09)
(208.714 -22.1502 -9.81198e-09)
(210.384 -22.6404 -1.07316e-08)
(212.692 -23.2255 -1.18379e-08)
(216.164 -24.0194 -1.3286e-08)
(220.886 -25.0412 -1.49539e-08)
(227.916 -26.4076 -1.70895e-08)
(236.382 -28.0219 -1.92049e-08)
(246.401 -29.9171 -2.18122e-08)
(257.47 -31.8511 -2.41567e-08)
(268.781 -33.6123 -2.6603e-08)
(278.804 -34.7607 -2.83535e-08)
(289.196 -35.8189 -3.0231e-08)
(298.056 -36.4026 -3.15775e-08)
(305.612 -36.7807 -3.25823e-08)
(311.615 -36.7857 -3.33133e-08)
(315.958 -36.6579 -3.3599e-08)
(318.799 -36.5516 -3.38524e-08)
(320.298 -37.086 -3.36879e-08)
(320.671 -38.5035 -3.3771e-08)
(319.102 -41.5325 -3.33964e-08)
(314.899 -47.3941 -3.33888e-08)
(307.007 -55.6094 -3.28807e-08)
(295.352 -63.4394 -3.26912e-08)
(281.701 -66.2217 -3.20205e-08)
(266.447 -64.8273 -3.23864e-08)
(254.173 -64.14 -3.17445e-08)
(241.133 -59.1637 -3.20103e-08)
(230.155 -56.7096 -3.14587e-08)
(218.416 -50.6664 -3.16686e-08)
(207.931 -47.1978 -3.12195e-08)
(196.804 -40.9442 -3.14056e-08)
(187.068 -36.6866 -3.10093e-08)
(177.686 -30.2192 -3.11572e-08)
(170.217 -24.9366 -3.08582e-08)
(165.122 -17.4567 -3.10169e-08)
(163.387 -11.6318 -3.07591e-08)
(163.211 -4.12556 -3.09115e-08)
(162.016 1.01011 -3.07984e-08)
(165.117 7.60495 -3.09057e-08)
(164.316 12.9174 -3.08744e-08)
(167.501 18.063 -3.10372e-08)
(167.696 23.0784 -3.10683e-08)
(171.112 27.9678 -3.12777e-08)
(172.538 33.0226 -3.13824e-08)
(176.9 38.3655 -3.1648e-08)
(180.617 44.1487 -3.18366e-08)
(187.63 50.8065 -3.2166e-08)
(196.042 58.4527 -3.24478e-08)
(209.381 67.3725 -3.28579e-08)
(225.223 75.0111 -3.32322e-08)
(241.657 76.275 -3.36483e-08)
(252.951 70.3996 -3.38952e-08)
(260.631 65.523 -3.40165e-08)
(266.073 62.6768 -3.40895e-08)
(269.843 59.9258 -3.49624e-08)
(273.194 55.7459 -3.4732e-08)
(274.783 49.9371 -3.51955e-08)
(276.234 43.6947 -3.53651e-08)
(276.769 37.6642 -3.53598e-08)
(276.97 31.1405 -3.54348e-08)
(275.795 25.2207 -3.54826e-08)
(274.215 19.5076 -3.55978e-08)
(271.655 14.5163 -3.55204e-08)
(269.066 10.0867 -3.56981e-08)
(265.979 6.44387 -3.5614e-08)
(263.178 3.43752 -3.57334e-08)
(260.286 1.14875 -3.56448e-08)
(257.947 -0.526152 -3.57145e-08)
(255.909 -1.57928 -3.5635e-08)
(254.633 -2.11049 -3.56749e-08)
(253.925 -2.22352 -3.56312e-08)
(253.652 -2.25172 -3.56476e-08)
(212.223 -3.32318 -5.7744e-09)
(211.795 -4.30989 -5.80995e-09)
(211.474 -5.33808 -5.80025e-09)
(211.197 -6.35653 -5.97071e-09)
(210.986 -7.37024 -6.05284e-09)
(210.803 -8.3667 -6.21342e-09)
(210.648 -9.33748 -6.36295e-09)
(210.52 -10.2986 -6.53416e-09)
(210.414 -11.2226 -6.73693e-09)
(210.361 -12.1291 -6.93223e-09)
(210.34 -12.986 -7.18018e-09)
(210.394 -13.8155 -7.4091e-09)
(210.494 -14.5884 -7.69927e-09)
(210.687 -15.3297 -7.97018e-09)
(210.943 -16.0177 -8.30461e-09)
(211.312 -16.6798 -8.62664e-09)
(211.765 -17.3018 -9.01316e-09)
(212.351 -17.9084 -9.39996e-09)
(213.047 -18.4855 -9.85635e-09)
(213.921 -19.0597 -1.03403e-08)
(214.971 -19.6271 -1.09147e-08)
(216.294 -20.2148 -1.15619e-08)
(217.895 -20.8258 -1.23181e-08)
(219.859 -21.4756 -1.30818e-08)
(222.271 -22.1798 -1.40088e-08)
(225.255 -22.9601 -1.49908e-08)
(228.959 -23.8494 -1.61782e-08)
(234.329 -25.0549 -1.77121e-08)
(239.477 -26.2803 -1.9188e-08)
(246.607 -27.8682 -2.10439e-08)
(253.443 -29.4138 -2.27541e-08)
(261.426 -31.1293 -2.46178e-08)
(269.007 -32.7208 -2.6261e-08)
(276.482 -34.1688 -2.77814e-08)
(283.814 -35.4975 -2.91613e-08)
(291.072 -36.6868 -3.04851e-08)
(297.837 -37.6765 -3.15342e-08)
(303.98 -38.4625 -3.24847e-08)
(309.353 -39.0637 -3.31014e-08)
(314.007 -39.4958 -3.36864e-08)
(317.654 -39.7205 -3.39041e-08)
(320.57 -39.7984 -3.41153e-08)
(322.604 -39.8206 -3.40659e-08)
(323.959 -39.984 -3.40096e-08)
(324.646 -40.4553 -3.38406e-08)
(324.613 -41.5094 -3.36311e-08)
(323.564 -43.4856 -3.34409e-08)
(320.759 -47.1878 -3.31112e-08)
(315.552 -52.7773 -3.28999e-08)
(307.171 -59.4736 -3.24079e-08)
(296.055 -64.9363 -3.21006e-08)
(283.196 -66.6852 -3.14148e-08)
(269.206 -65.33 -3.17981e-08)
(257.357 -63.9534 -3.11677e-08)
(245.12 -59.4788 -3.14461e-08)
(234.335 -56.3246 -3.09196e-08)
(223.218 -50.6289 -3.11425e-08)
(212.947 -46.5936 -3.0739e-08)
(202.441 -40.4926 -3.09371e-08)
(193.063 -35.7298 -3.05808e-08)
(184.39 -29.1379 -3.07309e-08)
(177.555 -23.4467 -3.0489e-08)
(173.002 -16.144 -3.06633e-08)
(171.225 -10.0297 -3.0448e-08)
(170.781 -3.05354 -3.05919e-08)
(170.086 1.94695 -3.05328e-08)
(171.929 8.8614 -3.05498e-08)
(171.411 13.8274 -3.05682e-08)
(173.663 19.3879 -3.06475e-08)
(174.019 24.2364 -3.07117e-08)
(176.894 29.286 -3.0855e-08)
(178.493 34.2403 -3.0987e-08)
(182.68 39.573 -3.12074e-08)
(186.689 45.2741 -3.14139e-08)
(193.906 51.8487 -3.17111e-08)
(202.677 59.286 -3.20036e-08)
(215.656 67.3321 -3.23786e-08)
(229.617 72.9249 -3.27389e-08)
(243.463 72.4297 -3.30946e-08)
(253.075 67.8684 -3.32894e-08)
(260.509 64.4321 -3.33825e-08)
(265.842 61.2143 -3.33789e-08)
(269.456 58.3607 -3.41495e-08)
(271.889 53.3212 -3.41735e-08)
(273.242 47.8194 -3.4406e-08)
(274.316 41.8416 -3.46546e-08)
(274.81 36.1822 -3.44962e-08)
(274.786 30.12 -3.46344e-08)
(273.788 24.6458 -3.46572e-08)
(272.263 19.2628 -3.47746e-08)
(270.006 14.7102 -3.473e-08)
(267.549 10.5605 -3.48392e-08)
(264.763 7.1985 -3.47994e-08)
(262.126 4.35519 -3.48755e-08)
(259.548 2.23241 -3.48161e-08)
(257.42 0.699567 -3.4854e-08)
(255.657 -0.170957 -3.47965e-08)
(254.53 -0.600818 -3.48183e-08)
(253.913 -0.688083 -3.4788e-08)
(253.672 -0.711092 -3.47957e-08)
(218.382 -2.39076 -1.01365e-08)
(217.831 -3.40165 -1.01182e-08)
(217.746 -4.42397 -1.03058e-08)
(217.564 -5.5072 -1.04032e-08)
(217.729 -6.5665 -1.06319e-08)
(217.841 -7.64776 -1.08245e-08)
(218.2 -8.69266 -1.11103e-08)
(218.563 -9.73718 -1.13867e-08)
(219.153 -10.7427 -1.17399e-08)
(219.826 -11.7528 -1.21002e-08)
(220.731 -12.7416 -1.25356e-08)
(221.793 -13.7444 -1.2993e-08)
(223.119 -14.7413 -1.35338e-08)
(224.687 -15.7625 -1.41165e-08)
(226.588 -16.7941 -1.47999e-08)
(228.858 -17.8656 -1.55547e-08)
(231.603 -18.9733 -1.64405e-08)
(234.845 -20.1431 -1.74191e-08)
(238.337 -21.3344 -1.84547e-08)
(242.282 -22.5858 -1.95632e-08)
(246.502 -23.8595 -2.07229e-08)
(251.107 -25.1715 -2.19256e-08)
(255.93 -26.4832 -2.31487e-08)
(261.019 -27.7997 -2.43743e-08)
(266.204 -29.0904 -2.55923e-08)
(271.437 -30.3495 -2.67527e-08)
(276.502 -31.5361 -2.78476e-08)
(281.878 -32.7976 -2.89301e-08)
(286.004 -33.8531 -2.97335e-08)
(291.788 -35.1754 -3.08061e-08)
(295.879 -36.1751 -3.14897e-08)
(301.107 -37.3516 -3.2351e-08)
(304.797 -38.2308 -3.28515e-08)
(309.212 -39.2078 -3.34667e-08)
(312.47 -39.9356 -3.38036e-08)
(316.089 -40.6616 -3.4195e-08)
(318.65 -41.1459 -3.43355e-08)
(321.347 -41.6144 -3.45139e-08)
(323.156 -41.9227 -3.44777e-08)
(324.988 -42.2214 -3.44885e-08)
(326.062 -42.3777 -3.43069e-08)
(327.089 -42.5992 -3.42085e-08)
(327.597 -42.871 -3.39346e-08)
(327.886 -43.3558 -3.37692e-08)
(327.665 -44.1657 -3.34629e-08)
(326.854 -45.5836 -3.32435e-08)
(324.907 -48.0603 -3.29244e-08)
(321.357 -51.8978 -3.26259e-08)
(315.524 -56.9775 -3.22744e-08)
(307.162 -62.2505 -3.18338e-08)
(296.622 -66.1267 -3.14054e-08)
(284.467 -67.1612 -3.078e-08)
(271.436 -65.6541 -3.11089e-08)
(260.081 -63.7118 -3.05429e-08)
(248.427 -59.3753 -3.0783e-08)
(237.904 -55.8015 -3.03186e-08)
(227.22 -50.1569 -3.05188e-08)
(217.162 -45.7939 -3.01791e-08)
(207.084 -39.6351 -3.03694e-08)
(197.995 -34.5527 -3.00602e-08)
(189.819 -27.767 -3.01988e-08)
(183.4 -21.8492 -3.00091e-08)
(179.157 -14.5953 -3.01832e-08)
(177.254 -8.41463 -3.00085e-08)
(176.595 -1.71458 -3.01393e-08)
(176.131 3.37493 -3.01151e-08)
(177.208 10.2514 -3.00781e-08)
(176.89 15.167 -3.01223e-08)
(178.458 20.9976 -3.01456e-08)
(179.008 25.8186 -3.02262e-08)
(181.385 31.0636 -3.03199e-08)
(183.2 36.0229 -3.0468e-08)
(187.104 41.4281 -3.06517e-08)
(191.374 47.1252 -3.08723e-08)
(198.513 53.5573 -3.11423e-08)
(207.438 60.4399 -3.14453e-08)
(219.773 66.9487 -3.17908e-08)
(232.43 70.337 -3.21308e-08)
(244.364 69.095 -3.24172e-08)
(252.935 65.7134 -3.25703e-08)
(260.127 62.6199 -3.26331e-08)
(265.226 58.8998 -3.27837e-08)
(268.567 55.6924 -3.32985e-08)
(270.583 50.1871 -3.3556e-08)
(271.736 45.2235 -3.36118e-08)
(272.61 39.4472 -3.38285e-08)
(273.04 34.272 -3.36924e-08)
(272.883 28.5952 -3.38536e-08)
(271.97 23.6549 -3.3794e-08)
(270.491 18.6672 -3.39432e-08)
(268.447 14.5368 -3.3882e-08)
(266.144 10.6729 -3.3981e-08)
(263.632 7.64464 -3.39509e-08)
(261.204 5.06234 -3.40062e-08)
(258.896 3.23521 -3.39623e-08)
(256.976 1.89501 -3.39829e-08)
(255.442 1.17732 -3.39411e-08)
(254.444 0.809591 -3.39483e-08)
(253.901 0.740268 -3.39284e-08)
(253.686 0.720365 -3.39306e-08)
(237.353 -1.01993 -1.73499e-08)
(237.225 -2.14018 -1.74716e-08)
(237.798 -3.32671 -1.77977e-08)
(238.322 -4.63359 -1.80587e-08)
(239.458 -5.97154 -1.84993e-08)
(240.622 -7.38483 -1.89067e-08)
(242.32 -8.80169 -1.947e-08)
(244.104 -10.2527 -2.00237e-08)
(246.354 -11.7012 -2.0709e-08)
(248.734 -13.1878 -2.13965e-08)
(251.534 -14.6961 -2.21903e-08)
(254.494 -16.2534 -2.29888e-08)
(257.813 -17.8372 -2.38664e-08)
(261.278 -19.4565 -2.47395e-08)
(265.002 -21.0813 -2.56569e-08)
(268.786 -22.7059 -2.65446e-08)
(272.654 -24.295 -2.74283e-08)
(276.453 -25.8438 -2.82532e-08)
(280.44 -27.363 -2.91064e-08)
(284.348 -28.8286 -2.98982e-08)
(288.322 -30.2406 -3.06861e-08)
(292.18 -31.5864 -3.14057e-08)
(296 -32.8641 -3.20966e-08)
(299.658 -34.0701 -3.27131e-08)
(303.195 -35.2032 -3.32847e-08)
(306.533 -36.2652 -3.37781e-08)
(309.694 -37.2548 -3.422e-08)
(313.015 -38.3084 -3.46332e-08)
(314.434 -38.9682 -3.4713e-08)
(317.505 -39.9327 -3.50397e-08)
(319.002 -40.6042 -3.50522e-08)
(321.399 -41.3657 -3.52376e-08)
(322.619 -41.9437 -3.51524e-08)
(324.494 -42.5524 -3.52263e-08)
(325.485 -43.0418 -3.50643e-08)
(326.908 -43.5118 -3.50473e-08)
(327.644 -43.8999 -3.48165e-08)
(328.643 -44.2413 -3.47278e-08)
(329.141 -44.5506 -3.44415e-08)
(329.777 -44.8103 -3.43046e-08)
(330.044 -45.1153 -3.39745e-08)
(330.355 -45.4444 -3.38035e-08)
(330.279 -45.9161 -3.34579e-08)
(330.102 -46.6002 -3.32584e-08)
(329.317 -47.7132 -3.29038e-08)
(327.964 -49.5087 -3.26718e-08)
(325.395 -52.2422 -3.22969e-08)
(321.346 -56.0127 -3.20008e-08)
(315.232 -60.4103 -3.15766e-08)
(307.109 -64.5993 -3.11668e-08)
(297.09 -67.4306 -3.0664e-08)
(285.514 -68.0528 -3.01125e-08)
(273.314 -66.1856 -3.03686e-08)
(262.447 -63.8998 -2.98746e-08)
(251.303 -59.4769 -3.00631e-08)
(241.082 -55.5223 -2.96669e-08)
(230.744 -49.8383 -2.98356e-08)
(220.924 -45.0869 -2.95616e-08)
(211.178 -38.8391 -2.97391e-08)
(202.373 -33.333 -2.94735e-08)
(194.561 -26.3599 -2.95982e-08)
(188.422 -20.1497 -2.94515e-08)
(184.309 -12.9555 -2.96237e-08)
(182.246 -6.74022 -2.94803e-08)
(181.403 -0.235383 -2.96008e-08)
(181.002 4.92907 -2.95994e-08)
(181.619 11.6002 -2.95316e-08)
(181.381 16.5628 -2.95863e-08)
(182.5 22.4551 -2.95755e-08)
(183.138 27.2373 -2.96591e-08)
(185.175 32.5479 -2.97201e-08)
(187.154 37.4159 -2.98752e-08)
(190.904 42.7938 -3.00349e-08)
(195.461 48.3362 -3.02654e-08)
(202.598 54.5004 -3.05172e-08)
(211.553 60.7102 -3.08241e-08)
(222.993 65.9068 -3.11415e-08)
(234.306 67.8768 -3.1455e-08)
(244.774 66.5145 -3.16933e-08)
(252.777 63.8007 -3.18363e-08)
(259.642 60.7032 -3.1895e-08)
(264.421 56.7395 -3.20635e-08)
(267.37 53.3143 -3.26193e-08)
(269.122 47.8473 -3.25889e-08)
(270.099 43.252 -3.301e-08)
(270.898 37.7109 -3.2749e-08)
(271.244 32.9231 -3.30368e-08)
(271.061 27.5763 -3.29464e-08)
(270.209 23.0285 -3.30136e-08)
(268.832 18.3666 -3.30863e-08)
(266.97 14.5701 -3.30541e-08)
(264.86 10.9693 -3.31266e-08)
(262.582 8.21681 -3.31073e-08)
(260.377 5.83523 -3.31468e-08)
(258.314 4.22167 -3.31143e-08)
(256.6 3.04657 -3.31151e-08)
(255.255 2.44727 -3.30919e-08)
(254.37 2.1252 -3.3085e-08)
(253.886 2.06955 -3.30751e-08)
(253.694 2.05183 -3.30715e-08)
(268.097 -0.223209 -2.62554e-08)
(268.889 -1.59345 -2.65921e-08)
(270.058 -3.1019 -2.69995e-08)
(271.415 -4.76358 -2.74143e-08)
(273.122 -6.49629 -2.78958e-08)
(274.978 -8.31351 -2.83776e-08)
(277.135 -10.1494 -2.89186e-08)
(279.383 -12.0134 -2.94497e-08)
(281.863 -13.8603 -3.00259e-08)
(284.372 -15.7027 -3.058e-08)
(287.047 -17.5211 -3.11619e-08)
(289.713 -19.3382 -3.17099e-08)
(292.495 -21.1364 -3.22696e-08)
(295.233 -22.9272 -3.27849e-08)
(298.034 -24.692 -3.32974e-08)
(300.76 -26.4352 -3.37574e-08)
(303.5 -28.1383 -3.42032e-08)
(306.141 -29.7993 -3.45942e-08)
(308.762 -31.3965 -3.49648e-08)
(311.245 -32.925 -3.52743e-08)
(313.671 -34.3717 -3.55581e-08)
(315.932 -35.7328 -3.57787e-08)
(318.104 -37.0019 -3.59715e-08)
(320.097 -38.1782 -3.6102e-08)
(321.98 -39.2605 -3.62039e-08)
(323.682 -40.2504 -3.62491e-08)
(325.26 -41.15 -3.62667e-08)
(326.798 -42.0694 -3.62269e-08)
(327.012 -42.5526 -3.6057e-08)
(328.317 -43.2838 -3.59891e-08)
(328.768 -43.8568 -3.57442e-08)
(329.647 -44.3266 -3.56495e-08)
(329.97 -44.819 -3.53593e-08)
(330.647 -45.1949 -3.52368e-08)
(330.882 -45.6447 -3.49185e-08)
(331.434 -45.9861 -3.47712e-08)
(331.59 -46.398 -3.44335e-08)
(332.009 -46.6974 -3.42676e-08)
(332.079 -47.067 -3.39137e-08)
(332.343 -47.3544 -3.37294e-08)
(332.261 -47.7474 -3.33723e-08)
(332.278 -48.1705 -3.31702e-08)
(331.875 -48.8185 -3.28115e-08)
(331.356 -49.7334 -3.25908e-08)
(330.161 -51.137 -3.22263e-08)
(328.386 -53.1812 -3.19737e-08)
(325.364 -56.0309 -3.1583e-08)
(321.019 -59.5409 -3.12753e-08)
(314.863 -63.3277 -3.08311e-08)
(307.046 -66.7144 -3.04313e-08)
(297.526 -68.854 -2.99065e-08)
(286.489 -69.1642 -2.94107e-08)
(275.048 -66.8608 -2.96051e-08)
(264.64 -64.2935 -2.91683e-08)
(253.98 -59.6653 -2.93117e-08)
(244.061 -55.3763 -2.89718e-08)
(234.041 -49.5432 -2.91131e-08)
(224.451 -44.4373 -2.88962e-08)
(214.999 -38.0171 -2.90642e-08)
(206.454 -32.1189 -2.88351e-08)
(198.935 -24.9273 -2.89481e-08)
(192.979 -18.444 -2.88348e-08)
(188.898 -11.2325 -2.90035e-08)
(186.642 -4.95885 -2.88877e-08)
(185.606 1.45407 -2.89993e-08)
(185.163 6.63189 -2.90152e-08)
(185.494 13.1276 -2.89287e-08)
(185.25 18.1802 -2.89873e-08)
(186.057 24.0662 -2.89551e-08)
(186.696 28.8656 -2.90361e-08)
(188.504 34.2122 -2.90763e-08)
(190.567 39.0195 -2.92349e-08)
(194.232 44.3623 -2.93801e-08)
(198.961 49.7069 -2.96172e-08)
(206.02 55.4745 -2.98578e-08)
(214.783 60.7953 -3.0166e-08)
(225.356 64.6674 -3.0458e-08)
(235.624 65.6198 -3.07519e-08)
(245.023 64.3446 -3.09652e-08)
(252.602 61.838 -3.11043e-08)
(259.063 58.5645 -3.11623e-08)
(263.509 54.3918 -3.13241e-08)
(266.148 50.8362 -3.18402e-08)
(267.724 45.5752 -3.16818e-08)
(268.565 41.2759 -3.23892e-08)
(269.303 36.0339 -3.17826e-08)
(269.564 31.5861 -3.23321e-08)
(269.388 26.5826 -3.1966e-08)
(268.574 22.392 -3.23314e-08)
(267.32 18.0625 -3.21463e-08)
(265.606 14.5821 -3.23166e-08)
(263.692 11.263 -3.22469e-08)
(261.622 8.76869 -3.23147e-08)
(259.639 6.61221 -3.22781e-08)
(257.794 5.19043 -3.23005e-08)
(256.275 4.15091 -3.22601e-08)
(255.088 3.64013 -3.22634e-08)
(254.301 3.35388 -3.22479e-08)
(253.869 3.30822 -3.22412e-08)
(253.696 3.29225 -3.22381e-08)
(296.218 0.0228992 -3.31245e-08)
(297.112 -1.45634 -3.34428e-08)
(297.953 -3.11024 -3.3723e-08)
(299.164 -4.93861 -3.40472e-08)
(300.371 -6.86517 -3.43414e-08)
(301.85 -8.89014 -3.46609e-08)
(303.335 -10.947 -3.49562e-08)
(304.986 -13.0326 -3.5259e-08)
(306.624 -15.0991 -3.55391e-08)
(308.33 -17.1504 -3.58116e-08)
(309.994 -19.1592 -3.60603e-08)
(311.663 -21.1453 -3.62895e-08)
(313.298 -23.0986 -3.64939e-08)
(314.911 -25.0273 -3.66709e-08)
(316.495 -26.9164 -3.6822e-08)
(318.036 -28.7662 -3.69397e-08)
(319.546 -30.5598 -3.70333e-08)
(320.993 -32.295 -3.70894e-08)
(322.403 -33.9558 -3.71214e-08)
(323.735 -35.5408 -3.71162e-08)
(325.021 -37.0367 -3.70884e-08)
(326.216 -38.4439 -3.70246e-08)
(327.361 -39.7524 -3.69397e-08)
(328.406 -40.9661 -3.68216e-08)
(329.396 -42.0784 -3.66863e-08)
(330.286 -43.0964 -3.65186e-08)
(331.114 -44.0164 -3.63382e-08)
(331.871 -44.9472 -3.61036e-08)
(331.882 -45.3686 -3.59017e-08)
(332.533 -46.0987 -3.56672e-08)
(332.642 -46.574 -3.53751e-08)
(333.072 -47.0423 -3.51645e-08)
(333.113 -47.4281 -3.48482e-08)
(333.435 -47.7892 -3.46328e-08)
(333.436 -48.1323 -3.43097e-08)