/*--------------------------------*- C++ -*----------------------------------*\
  =========                 |
  \\      /  F ield         | OpenFOAM: The Open Source CFD Toolbox
   \\    /   O peration     | Website:  https://openfoam.org
    \\  /    A nd           | Version:  7
     \\/     M anipulation  |
\*---------------------------------------------------------------------------*/
FoamFile
{
    version     2.0;
    format      ascii;
    class       volVectorField;
    location    "0.1075";
    object      U;
}
// * * * * * * * * * * * * * * * * * * * * * * * * * * * * * * * * * * * * * //

dimensions      [0 1 -1 0 0 0 0];

internalField   nonuniform List<vector> 
48560
(
(221.942 -5.36769 -4.90992e-11)
(221.75 -6.19686 -5.89363e-11)
(221.58 -7.02825 -7.82002e-11)
(221.433 -7.84026 -1.00111e-10)
(221.301 -8.63317 -1.31228e-10)
(221.181 -9.40113 -1.65892e-10)
(221.07 -10.1469 -2.09055e-10)
(220.964 -10.8664 -2.55608e-10)
(220.862 -11.5638 -3.09211e-10)
(220.762 -12.2365 -3.65339e-10)
(220.662 -12.8901 -4.25849e-10)
(220.561 -13.5231 -4.87067e-10)
(220.458 -14.1406 -5.49294e-10)
(220.351 -14.741 -6.09603e-10)
(220.239 -15.3282 -6.66023e-10)
(220.12 -15.9004 -7.16782e-10)
(219.992 -16.4601 -7.58606e-10)
(219.853 -17.0059 -7.89555e-10)
(219.7 -17.5397 -8.06517e-10)
(219.531 -18.0607 -8.07508e-10)
(219.342 -18.5704 -7.8971e-10)
(219.13 -19.0682 -7.50943e-10)
(218.891 -19.5548 -6.89503e-10)
(218.617 -20.0295 -6.02735e-10)
(218.309 -20.4913 -4.92818e-10)
(217.955 -20.9394 -3.56817e-10)
(217.555 -21.3723 -1.98145e-10)
(217.037 -21.8647 1.68029e-11)
(216.283 -22.4137 3.11165e-10)
(215.39 -22.9119 5.95625e-10)
(214.303 -23.3846 8.8168e-10)
(212.96 -23.8068 1.15932e-09)
(211.279 -24.1917 1.37753e-09)
(209.078 -24.5153 1.538e-09)
(206.055 -24.7617 1.44229e-09)
(202.489 -24.8965 1.19402e-09)
(198.251 -24.8759 5.65198e-10)
(193.601 -24.7463 -1.39932e-10)
(188.786 -24.4535 -1.37721e-09)
(184.852 -24.0508 -2.53955e-09)
(180.808 -23.2559 -4.16376e-09)
(176.731 -22.6202 -4.54849e-09)
(172.874 -21.4537 -5.91114e-09)
(169.145 -20.0225 -6.4024e-09)
(165.801 -18.7136 -7.02474e-09)
(165.078 -16.0977 -9.50123e-09)
(171.765 -12.2483 -1.25184e-08)
(191.383 -6.88516 -1.71115e-08)
(221.305 -4.08102 -2.21741e-08)
(250.052 -7.78915 -2.61518e-08)
(271.684 -31.468 -2.92506e-08)
(263.863 -74.1593 -3.08521e-08)
(229.269 -57.6497 -2.97167e-08)
(214.68 -60.7853 -2.9803e-08)
(195.662 -51.6233 -2.91975e-08)
(183.877 -51.0944 -2.92369e-08)
(165.482 -43.5363 -2.86345e-08)
(153.749 -41.3575 -2.8649e-08)
(133.696 -34.3429 -2.79917e-08)
(121.443 -31.2415 -2.80299e-08)
(99.3233 -24.1238 -2.73011e-08)
(85.6829 -20.4169 -2.72968e-08)
(66.0761 -11.0083 -2.64143e-08)
(66.3462 -8.54302 -2.67487e-08)
(55.7817 -5.57974 -2.62771e-08)
(52.6456 1.12772 -2.60635e-08)
(56.575 2.22471 -2.63074e-08)
(58.8231 4.44239 -2.65251e-08)
(60.557 6.50874 -2.67307e-08)
(63.5758 8.64367 -2.70149e-08)
(67.9238 11.4707 -2.74245e-08)
(73.4449 14.9745 -2.78733e-08)
(80.3088 19.2409 -2.83766e-08)
(88.7298 24.4694 -2.89173e-08)
(98.9289 30.8337 -2.95001e-08)
(111.36 38.4928 -3.01101e-08)
(127.426 48.2364 -3.07856e-08)
(149.438 61.6845 -3.14968e-08)
(182.284 78.9861 -3.221e-08)
(220.44 84.7194 -3.28584e-08)
(259.688 66.4918 -3.37618e-08)
(254.785 60.4471 -3.40094e-08)
(246.368 53.3834 -3.43748e-08)
(251.803 56.0632 -3.43839e-08)
(256.211 56.6904 -3.46283e-08)
(267.565 53.7092 -3.53738e-08)
(271.758 43.0844 -3.55437e-08)
(275.782 36.6796 -3.59116e-08)
(275.789 26.9354 -3.60793e-08)
(275.429 19.8337 -3.63643e-08)
(273.263 14.3846 -3.64649e-08)
(270.017 8.44321 -3.66422e-08)
(266.52 3.74695 -3.67911e-08)
(263.136 -0.00115908 -3.69313e-08)
(260.007 -3.0481 -3.70378e-08)
(257.305 -5.51269 -3.71431e-08)
(255.074 -7.47893 -3.7223e-08)
(253.41 -8.90354 -3.72864e-08)
(252.353 -9.71775 -3.73321e-08)
(252.112 -9.95822 -3.73558e-08)
(221.187 -5.08786 -5.8953e-10)
(221.004 -5.94567 -6.17765e-10)
(220.836 -6.80022 -6.4664e-10)
(220.701 -7.64501 -6.73209e-10)
(220.573 -8.46247 -6.98821e-10)
(220.462 -9.26007 -7.18406e-10)
(220.351 -10.0282 -7.35536e-10)
(220.246 -10.7747 -7.42811e-10)
(220.136 -11.4971 -7.4538e-10)
(220.023 -12.2041 -7.34285e-10)
(219.904 -12.8956 -7.18296e-10)
(219.778 -13.5729 -6.87573e-10)
(219.642 -14.2348 -6.47414e-10)
(219.494 -14.8796 -5.90083e-10)
(219.331 -15.5069 -5.19739e-10)
(219.15 -16.1139 -4.31263e-10)
(218.949 -16.702 -3.28237e-10)
(218.724 -17.2692 -2.08821e-10)
(218.473 -17.819 -7.70063e-11)
(218.193 -18.3514 6.58856e-11)
(217.878 -18.8696 2.21917e-10)
(217.525 -19.371 3.85579e-10)
(217.123 -19.8551 5.59483e-10)
(216.667 -20.3191 7.34942e-10)
(216.143 -20.7627 9.16865e-10)
(215.534 -21.184 1.0899e-09)
(214.823 -21.5813 1.25679e-09)
(213.845 -22.0214 1.4141e-09)
(212.231 -22.4904 1.51223e-09)
(210.276 -22.9014 1.4042e-09)
(208.016 -23.2594 1.20275e-09)
(205.365 -23.539 6.84799e-10)
(202.468 -23.7667 1.11576e-10)
(199.343 -23.9088 -9.00836e-10)
(196.469 -23.969 -1.9354e-09)
(193.653 -23.8487 -3.34002e-09)
(191.143 -23.768 -3.79357e-09)
(188.653 -23.5229 -5.07134e-09)
(186.649 -23.2638 -5.89566e-09)
(184.842 -22.7271 -6.76739e-09)
(183.402 -22.254 -7.20402e-09)
(183.037 -21.7389 -8.15142e-09)
(184.912 -20.8176 -1.09367e-08)
(190.62 -20.8879 -1.25591e-08)
(204.54 -21.4824 -1.69095e-08)
(229.828 -22.8107 -2.20521e-08)
(255.631 -23.8674 -2.63382e-08)
(277.803 -24.7602 -2.9614e-08)
(288.941 -26.5148 -3.0988e-08)
(295.839 -34.663 -3.23803e-08)
(287.448 -53.5421 -3.27414e-08)
(275.13 -72.0734 -3.32329e-08)
(246.996 -67.1274 -3.26719e-08)
(235.293 -67.3318 -3.25887e-08)
(216.33 -61.472 -3.22235e-08)
(206.915 -58.3937 -3.20869e-08)
(189.502 -52.6491 -3.1775e-08)
(179.974 -48.5888 -3.15701e-08)
(162.664 -42.4783 -3.12845e-08)
(152.775 -37.7517 -3.10241e-08)
(136.166 -31.2762 -3.07663e-08)
(125.728 -26.0559 -3.03819e-08)
(113.384 -16.8047 -3.00587e-08)
(111.847 -12.2643 -2.98392e-08)
(107.957 -6.68264 -2.98444e-08)
(105.468 1.30449 -2.93604e-08)
(111.121 3.49159 -2.98092e-08)
(113.938 8.65579 -2.98903e-08)
(116.835 11.7532 -3.01378e-08)
(121.023 15.5199 -3.03133e-08)
(124.798 18.9556 -3.0617e-08)
(130.436 23.1842 -3.08638e-08)
(135.908 27.5026 -3.12176e-08)
(143.594 32.9526 -3.15292e-08)
(151.845 39.109 -3.19351e-08)
(163.024 46.9509 -3.2315e-08)
(176.867 56.9036 -3.2794e-08)
(197.309 71.4786 -3.32642e-08)
(221.3 90.2729 -3.3841e-08)
(241.907 94.6579 -3.44454e-08)
(258.387 73.9816 -3.50162e-08)
(263.721 63.9364 -3.54938e-08)
(266.056 61.5184 -3.5692e-08)
(270.263 62.6654 -3.61482e-08)
(272.856 63.4658 -3.59297e-08)
(275.839 59.6064 -3.69276e-08)
(277.532 51.035 -3.64994e-08)
(279.533 43.401 -3.72256e-08)
(278.85 33.3396 -3.68394e-08)
(278.004 24.7954 -3.75587e-08)
(274.97 16.7012 -3.71387e-08)
(272.278 10.8449 -3.76818e-08)
(268.296 5.71673 -3.73535e-08)
(265.214 1.9854 -3.77467e-08)
(261.551 -1.19582 -3.74768e-08)
(258.96 -3.59793 -3.775e-08)
(256.277 -5.67089 -3.75363e-08)
(254.711 -7.14223 -3.76965e-08)
(253.724 -7.74747 -3.75877e-08)
(253.359 -7.93814 -3.761e-08)
(219.984 -4.79949 -1.82385e-10)
(219.788 -5.71116 -1.57281e-10)
(219.572 -6.62085 -1.04149e-10)
(219.42 -7.52516 -6.29955e-11)
(219.242 -8.39278 3.59537e-12)
(219.103 -9.24186 6.14528e-11)
(218.934 -10.0542 1.41445e-10)
(218.784 -10.8539 2.16157e-10)
(218.6 -11.6302 3.0893e-10)
(218.42 -12.3958 3.98578e-10)
(218.203 -13.1354 5.04178e-10)
(217.978 -13.8553 6.10075e-10)
(217.714 -14.5412 7.25991e-10)
(217.426 -15.1989 8.40477e-10)
(217.09 -15.819 9.56116e-10)
(216.71 -16.4094 1.06407e-09)
(216.259 -16.9672 1.15937e-09)
(215.729 -17.502 1.2323e-09)
(215.084 -18.0149 1.26548e-09)
(214.394 -18.5117 1.28217e-09)
(213.608 -18.9918 1.2518e-09)
(212.766 -19.4574 1.18856e-09)
(211.831 -19.9045 1.06222e-09)
(210.826 -20.3305 9.20001e-10)
(209.727 -20.7365 6.76275e-10)
(208.557 -21.1165 4.13912e-10)
(207.313 -21.4731 2.75837e-11)
(205.83 -21.8558 -4.54658e-10)
(203.89 -22.2597 -1.32059e-09)
(202.306 -22.6013 -2.15532e-09)
(200.517 -22.8639 -3.27065e-09)
(199.021 -23.0902 -3.59671e-09)
(197.411 -23.2615 -4.62139e-09)
(196.133 -23.3988 -5.19562e-09)
(194.941 -23.4176 -5.94906e-09)
(193.885 -23.338 -6.42431e-09)
(193.269 -23.1711 -7.12556e-09)
(193.112 -22.9857 -8.07271e-09)
(194.526 -22.8287 -1.00572e-08)
(197.549 -23.0409 -1.12175e-08)
(204.149 -23.6032 -1.37551e-08)
(215.876 -24.703 -1.69517e-08)
(233.737 -26.1255 -2.12489e-08)
(253.35 -27.6658 -2.46685e-08)
(273.407 -28.05 -2.86189e-08)
(287.781 -27.1188 -3.03246e-08)
(299.469 -26.4198 -3.2168e-08)
(305.305 -27.0867 -3.26629e-08)
(307.591 -31.1725 -3.32035e-08)
(303.597 -41.4131 -3.32693e-08)
(292.417 -57.7443 -3.32339e-08)
(276.517 -68.0655 -3.30733e-08)
(256.591 -61.9596 -3.2896e-08)
(244.506 -65.35 -3.26421e-08)
(227.862 -57.5579 -3.24839e-08)
(217.675 -57.0995 -3.21957e-08)
(202.676 -49.8135 -3.20747e-08)
(192.625 -47.5255 -3.17636e-08)
(178.162 -40.7119 -3.16805e-08)
(168.183 -37.2399 -3.13478e-08)
(155.111 -30.7832 -3.12984e-08)
(145.973 -26.3742 -3.0947e-08)
(137.71 -18.2056 -3.09063e-08)
(136.059 -13.8374 -3.06352e-08)
(135.386 -5.90474 -3.07296e-08)
(132.908 0.995021 -3.04348e-08)
(138.64 4.5793 -3.07855e-08)
(139.529 10.9696 -3.07275e-08)
(143.233 14.6249 -3.10146e-08)
(145.455 19.6312 -3.10583e-08)
(149.132 23.9291 -3.13691e-08)
(152.45 28.994 -3.14976e-08)
(156.904 34.149 -3.18399e-08)
(162.028 40.1 -3.20518e-08)
(168.645 46.7088 -3.24425e-08)
(177.393 54.5427 -3.27487e-08)
(189.892 64.2624 -3.32188e-08)
(208.609 76.2668 -3.36491e-08)
(232.074 84.854 -3.4203e-08)
(250.995 79.6588 -3.46561e-08)
(260.316 67.7101 -3.50062e-08)
(265.185 63.5583 -3.52752e-08)
(267.593 61.0894 -3.55713e-08)
(272.03 59.6338 -3.60912e-08)
(274.945 55.1726 -3.59143e-08)
(277.792 48.5679 -3.67395e-08)
(278.732 41.195 -3.62436e-08)
(280.055 33.9935 -3.69547e-08)
(278.899 26.4905 -3.65645e-08)
(277.592 20.1403 -3.7088e-08)
(274.455 14.266 -3.68176e-08)
(271.703 9.30766 -3.7183e-08)
(267.974 5.10045 -3.69681e-08)
(264.962 1.73823 -3.72251e-08)
(261.556 -1.00203 -3.70458e-08)
(258.987 -3.07319 -3.72195e-08)
(256.461 -4.57346 -3.70697e-08)
(254.88 -5.47511 -3.71727e-08)
(253.926 -5.77579 -3.70977e-08)
(253.569 -5.88514 -3.71099e-08)
(216.939 -4.516 6.05309e-10)
(216.663 -5.45245 6.61933e-10)
(216.267 -6.37364 6.72148e-10)
(216.008 -7.29281 7.05233e-10)
(215.628 -8.16721 7.03313e-10)
(215.339 -9.0274 7.0696e-10)
(214.925 -9.84943 6.84808e-10)
(214.565 -10.6651 6.52121e-10)
(214.089 -11.4556 5.99169e-10)
(213.654 -12.2356 5.20989e-10)
(213.12 -12.9852 4.23449e-10)
(212.614 -13.7172 2.87625e-10)
(212.025 -14.4178 1.30016e-10)
(211.45 -15.0984 -7.5947e-11)
(210.807 -15.7499 -3.0766e-10)
(210.176 -16.3814 -5.93279e-10)
(209.501 -16.9858 -9.04936e-10)
(208.855 -17.5685 -1.2659e-09)
(208.219 -18.1218 -1.63908e-09)
(207.58 -18.6475 -2.07067e-09)
(206.948 -19.1412 -2.52475e-09)
(206.335 -19.6068 -3.0301e-09)
(205.709 -20.0195 -3.16236e-09)
(205.099 -20.4334 -3.63964e-09)
(204.489 -20.8072 -3.875e-09)
(203.905 -21.1732 -4.33562e-09)
(203.339 -21.5008 -4.63696e-09)
(202.733 -21.8597 -5.14421e-09)
(202.04 -22.2178 -5.65114e-09)
(201.51 -22.5039 -6.11487e-09)
(200.988 -22.6712 -6.40001e-09)
(200.714 -22.7677 -6.93976e-09)
(200.616 -22.8608 -7.69695e-09)
(201.33 -23.0651 -9.16117e-09)
(202.713 -23.2559 -9.88655e-09)
(205.355 -23.7413 -1.14537e-08)
(209.949 -24.5068 -1.31852e-08)
(217.053 -25.7162 -1.55769e-08)
(229.122 -27.4872 -1.87334e-08)
(242.026 -29.375 -2.15292e-08)
(258.038 -31.3144 -2.50836e-08)
(272.295 -32.6024 -2.75449e-08)
(285.714 -33.2324 -2.99836e-08)
(296.948 -33.4724 -3.14253e-08)
(305.751 -33.1017 -3.28157e-08)
(311.077 -32.9137 -3.30201e-08)
(314.257 -33.523 -3.36079e-08)
(315.306 -35.9817 -3.34053e-08)
(312.887 -41.2709 -3.3585e-08)
(306.174 -50.7483 -3.32194e-08)
(294.205 -61.8915 -3.31019e-08)
(279.334 -67.2206 -3.25854e-08)
(262.274 -65.1721 -3.27985e-08)
(249.867 -65.1663 -3.22519e-08)
(235.469 -59.8277 -3.23978e-08)
(224.748 -57.4532 -3.19011e-08)
(211.732 -51.421 -3.20202e-08)
(201.411 -47.8926 -3.1581e-08)
(189.023 -41.7754 -3.16956e-08)
(179.179 -37.4836 -3.12874e-08)
(168.459 -31.2252 -3.1391e-08)
(160.276 -25.9413 -3.10387e-08)
(154.009 -18.3002 -3.1148e-08)
(152.301 -12.9599 -3.08575e-08)
(152.212 -5.03763 -3.10087e-08)
(150.306 0.596228 -3.08133e-08)
(154.921 5.91015 -3.10493e-08)
(154.343 11.8018 -3.09693e-08)
(158.262 16.0943 -3.12265e-08)
(158.94 21.0267 -3.12351e-08)
(162.825 25.4655 -3.1518e-08)
(164.794 30.3337 -3.16104e-08)
(169.395 35.4427 -3.19253e-08)
(173.53 41.0822 -3.21047e-08)
(180.515 47.6157 -3.24682e-08)
(189.029 55.3922 -3.27462e-08)
(202.267 65.3121 -3.31825e-08)
(219.259 76.2529 -3.35663e-08)
(237.754 81.7572 -3.40656e-08)
(252.198 74.5073 -3.44076e-08)
(260.428 66.6994 -3.46098e-08)
(265.765 64.327 -3.48108e-08)
(269.159 61.9004 -3.53209e-08)
(272.983 59.8101 -3.53985e-08)
(274.783 54.6561 -3.56296e-08)
(276.835 47.8172 -3.59676e-08)
(277.627 41.2825 -3.58841e-08)
(278.354 34.4166 -3.61993e-08)
(277.297 27.5109 -3.61137e-08)
(275.953 21.1935 -3.63629e-08)
(273.186 15.3352 -3.62339e-08)
(270.511 10.5055 -3.6486e-08)
(267.076 6.3556 -3.63453e-08)
(264.133 3.06836 -3.65197e-08)
(260.949 0.37697 -3.63947e-08)
(258.488 -1.65743 -3.65125e-08)
(256.192 -3.03842 -3.64035e-08)
(254.762 -3.74219 -3.64688e-08)
(253.938 -3.90568 -3.64089e-08)
(253.624 -3.94777 -3.64237e-08)
(212.154 -3.91961 -2.46483e-09)
(211.783 -4.8567 -2.47365e-09)
(211.381 -5.76175 -2.76022e-09)
(211.088 -6.73342 -2.68439e-09)
(210.748 -7.63216 -2.94783e-09)
(210.484 -8.56912 -2.94792e-09)
(210.155 -9.445 -3.20243e-09)
(209.883 -10.3466 -3.26728e-09)
(209.556 -11.1984 -3.52237e-09)
(209.289 -12.0652 -3.64233e-09)
(208.979 -12.8885 -3.90392e-09)
(208.728 -13.7156 -4.06951e-09)
(208.445 -14.5007 -4.33806e-09)
(208.216 -15.2775 -4.53767e-09)
(207.964 -16.0083 -4.80837e-09)
(207.761 -16.7153 -5.02662e-09)
(207.542 -17.3659 -5.28806e-09)
(207.365 -17.9733 -5.50488e-09)
(207.172 -18.5128 -5.7403e-09)
(207.005 -18.9998 -5.93235e-09)
(206.817 -19.423 -6.11596e-09)
(206.635 -19.8027 -6.24654e-09)
(206.51 -20.1634 -6.73376e-09)
(206.482 -20.488 -7.04438e-09)
(206.548 -20.7976 -7.50903e-09)
(206.751 -21.091 -7.94018e-09)
(207.096 -21.3865 -8.43085e-09)
(207.711 -21.7475 -9.04145e-09)
(208.708 -22.1502 -9.80761e-09)
(210.378 -22.6403 -1.07269e-08)
(212.685 -23.2254 -1.18326e-08)
(216.157 -24.0192 -1.32801e-08)
(220.879 -25.0408 -1.49472e-08)
(227.907 -26.407 -1.70818e-08)
(236.373 -28.0214 -1.91966e-08)
(246.392 -29.9166 -2.1803e-08)
(257.462 -31.8508 -2.41469e-08)
(268.773 -33.6123 -2.65925e-08)
(278.797 -34.7608 -2.83425e-08)
(289.19 -35.8191 -3.02195e-08)
(298.051 -36.403 -3.15658e-08)
(305.607 -36.7812 -3.25705e-08)
(311.611 -36.7863 -3.33014e-08)
(315.954 -36.6586 -3.35871e-08)
(318.796 -36.5523 -3.38406e-08)
(320.295 -37.0868 -3.36762e-08)
(320.669 -38.5041 -3.37594e-08)
(319.099 -41.533 -3.33849e-08)
(314.897 -47.3944 -3.33774e-08)
(307.005 -55.6095 -3.28695e-08)
(295.351 -63.4394 -3.26802e-08)
(281.7 -66.2216 -3.20099e-08)
(266.446 -64.8272 -3.23755e-08)
(254.173 -64.1399 -3.17339e-08)
(241.132 -59.1635 -3.19995e-08)
(230.154 -56.7095 -3.14481e-08)
(218.416 -50.6663 -3.16579e-08)
(207.93 -47.1977 -3.1209e-08)
(196.803 -40.9442 -3.13949e-08)
(187.068 -36.6866 -3.09988e-08)
(177.685 -30.2191 -3.11466e-08)
(170.217 -24.9366 -3.08478e-08)
(165.121 -17.4567 -3.10064e-08)
(163.387 -11.6318 -3.07487e-08)
(163.21 -4.12555 -3.09011e-08)
(162.016 1.01011 -3.07881e-08)
(165.116 7.60495 -3.08954e-08)
(164.316 12.9173 -3.08641e-08)
(167.5 18.063 -3.10269e-08)
(167.695 23.0784 -3.1058e-08)
(171.111 27.9677 -3.12674e-08)
(172.538 33.0225 -3.13721e-08)
(176.899 38.3654 -3.16376e-08)
(180.616 44.1486 -3.18263e-08)
(187.629 50.8063 -3.21556e-08)
(196.041 58.4526 -3.24373e-08)
(209.38 67.3722 -3.28473e-08)
(225.222 75.0108 -3.32216e-08)
(241.656 76.2748 -3.36375e-08)
(252.95 70.3994 -3.38845e-08)
(260.63 65.5228 -3.40057e-08)
(266.073 62.6766 -3.40787e-08)
(269.842 59.9256 -3.49513e-08)
(273.194 55.7458 -3.47209e-08)
(274.783 49.937 -3.51843e-08)
(276.233 43.6947 -3.5354e-08)
(276.769 37.6641 -3.53486e-08)
(276.969 31.1404 -3.54237e-08)
(275.795 25.2207 -3.54714e-08)
(274.214 19.5076 -3.55867e-08)
(271.655 14.5162 -3.55092e-08)
(269.065 10.0867 -3.5687e-08)
(265.979 6.44387 -3.56029e-08)
(263.178 3.43753 -3.57223e-08)
(260.286 1.14875 -3.56336e-08)
(257.947 -0.526142 -3.57034e-08)
(255.908 -1.57927 -3.56238e-08)
(254.633 -2.11047 -3.56638e-08)
(253.925 -2.2235 -3.56201e-08)
(253.651 -2.25171 -3.56365e-08)
(212.218 -3.32307 -5.77211e-09)
(211.79 -4.30982 -5.8072e-09)
(211.469 -5.33791 -5.79785e-09)
(211.192 -6.35639 -5.96797e-09)
(210.981 -7.37006 -6.05024e-09)
(210.798 -8.36654 -6.21059e-09)
(210.643 -9.3373 -6.36018e-09)
(210.515 -10.2985 -6.53124e-09)
(210.409 -11.2225 -6.73396e-09)
(210.356 -12.1289 -6.92913e-09)
(210.335 -12.9858 -7.17696e-09)
(210.389 -13.8154 -7.40578e-09)
(210.489 -14.5883 -7.69582e-09)
(210.682 -15.3296 -7.9666e-09)
(210.937 -16.0176 -8.30086e-09)
(211.306 -16.6797 -8.62275e-09)
(211.759 -17.3017 -9.00908e-09)
(212.346 -17.9083 -9.39573e-09)
(213.041 -18.4854 -9.85189e-09)
(213.915 -19.0595 -1.03357e-08)
(214.965 -19.627 -1.09097e-08)
(216.287 -20.2147 -1.15567e-08)
(217.889 -20.8256 -1.23126e-08)
(219.852 -21.4753 -1.3076e-08)
(222.263 -22.1795 -1.40025e-08)
(225.248 -22.9598 -1.4984e-08)
(228.95 -23.849 -1.61709e-08)
(234.32 -25.0543 -1.77042e-08)
(239.469 -26.2797 -1.91796e-08)
(246.598 -27.8675 -2.10348e-08)
(253.434 -29.4132 -2.27445e-08)
(261.417 -31.1288 -2.46077e-08)
(268.998 -32.7204 -2.62504e-08)
(276.475 -34.1686 -2.77705e-08)
(283.807 -35.4974 -2.915e-08)
(291.065 -36.6868 -3.04736e-08)
(297.831 -37.6767 -3.15225e-08)
(303.975 -38.4627 -3.24728e-08)
(309.348 -39.0641 -3.30894e-08)
(314.003 -39.4963 -3.36743e-08)
(317.65 -39.721 -3.38921e-08)
(320.567 -39.799 -3.41034e-08)
(322.6 -39.8213 -3.40541e-08)
(323.956 -39.9847 -3.39979e-08)
(324.643 -40.4559 -3.38291e-08)
(324.611 -41.5101 -3.36196e-08)
(323.562 -43.4861 -3.34296e-08)
(320.757 -47.1883 -3.31e-08)
(315.551 -52.7775 -3.28888e-08)
(307.17 -59.4737 -3.23971e-08)
(296.054 -64.9363 -3.20901e-08)
(283.195 -66.6852 -3.14046e-08)
(269.205 -65.3299 -3.17876e-08)
(257.356 -63.9533 -3.11575e-08)
(245.12 -59.4787 -3.14356e-08)
(234.335 -56.3246 -3.09094e-08)
(223.217 -50.6288 -3.11321e-08)
(212.947 -46.5935 -3.07288e-08)
(202.441 -40.4925 -3.09269e-08)
(193.062 -35.7298 -3.05706e-08)
(184.39 -29.1379 -3.07206e-08)
(177.554 -23.4467 -3.04789e-08)
(173.002 -16.144 -3.0653e-08)
(171.225 -10.0297 -3.04379e-08)
(170.78 -3.05353 -3.05817e-08)
(170.086 1.94695 -3.05227e-08)
(171.929 8.8614 -3.05397e-08)
(171.41 13.8274 -3.05581e-08)
(173.662 19.3879 -3.06374e-08)
(174.019 24.2364 -3.07017e-08)
(176.894 29.2859 -3.0845e-08)
(178.493 34.2403 -3.09769e-08)
(182.679 39.5729 -3.11973e-08)
(186.688 45.274 -3.14038e-08)
(193.906 51.8485 -3.1701e-08)
(202.676 59.2859 -3.19934e-08)
(215.655 67.3319 -3.23684e-08)
(229.616 72.9246 -3.27286e-08)
(243.462 72.4295 -3.30842e-08)
(253.075 67.8682 -3.3279e-08)
(260.509 64.4319 -3.33721e-08)
(265.841 61.2142 -3.33685e-08)
(269.456 58.3606 -3.41389e-08)
(271.889 53.3211 -3.41629e-08)
(273.242 47.8194 -3.43952e-08)
(274.316 41.8415 -3.46439e-08)
(274.81 36.1821 -3.44854e-08)
(274.785 30.1199 -3.46237e-08)
(273.787 24.6457 -3.46464e-08)
(272.263 19.2628 -3.47639e-08)
(270.005 14.7102 -3.47193e-08)
(267.548 10.5605 -3.48286e-08)
(264.763 7.1985 -3.47887e-08)
(262.126 4.3552 -3.48649e-08)
(259.548 2.23241 -3.48055e-08)
(257.419 0.699576 -3.48434e-08)
(255.656 -0.170946 -3.47859e-08)
(254.529 -0.600804 -3.48077e-08)
(253.913 -0.68807 -3.47775e-08)
(253.672 -0.711078 -3.47851e-08)
(218.376 -2.39077 -1.01319e-08)
(217.825 -3.40162 -1.01137e-08)
(217.74 -4.42389 -1.03011e-08)
(217.559 -5.5071 -1.03985e-08)
(217.723 -6.56637 -1.06272e-08)
(217.835 -7.64761 -1.08196e-08)
(218.194 -8.69248 -1.11054e-08)
(218.557 -9.73698 -1.13816e-08)
(219.147 -10.7425 -1.17347e-08)
(219.819 -11.7525 -1.20948e-08)
(220.724 -12.7413 -1.25299e-08)
(221.787 -13.7441 -1.29871e-08)
(223.112 -14.7409 -1.35277e-08)
(224.68 -15.7621 -1.41101e-08)
(226.58 -16.7937 -1.47931e-08)
(228.85 -17.8651 -1.55476e-08)
(231.595 -18.9728 -1.64329e-08)
(234.836 -20.1425 -1.74113e-08)
(238.328 -21.3338 -1.84464e-08)
(242.273 -22.5852 -1.95546e-08)
(246.493 -23.8588 -2.07138e-08)
(251.098 -25.1709 -2.19162e-08)
(255.92 -26.4826 -2.31388e-08)
(261.01 -27.7991 -2.4364e-08)
(266.195 -29.0899 -2.55817e-08)
(271.428 -30.349 -2.67419e-08)
(276.494 -31.5357 -2.78364e-08)
(281.871 -32.7973 -2.89188e-08)
(285.997 -33.8528 -2.97219e-08)
(291.781 -35.1752 -3.07944e-08)
(295.873 -36.175 -3.14777e-08)
(301.101 -37.3516 -3.23391e-08)
(304.791 -38.2308 -3.28394e-08)
(309.207 -39.2079 -3.34545e-08)
(312.465 -39.9358 -3.37914e-08)
(316.084 -40.6619 -3.41828e-08)
(318.646 -41.1463 -3.43234e-08)
(321.343 -41.6148 -3.45019e-08)
(323.153 -41.9231 -3.44657e-08)
(324.985 -42.2219 -3.44766e-08)
(326.058 -42.3783 -3.42952e-08)
(327.085 -42.5999 -3.41969e-08)
(327.594 -42.8717 -3.39231e-08)
(327.883 -43.3565 -3.37578e-08)
(327.662 -44.1663 -3.34516e-08)
(326.852 -45.5842 -3.32324e-08)
(324.905 -48.0608 -3.29135e-08)
(321.355 -51.8982 -3.26151e-08)
(315.523 -56.9777 -3.22639e-08)
(307.161 -62.2505 -3.18234e-08)
(296.621 -66.1266 -3.13952e-08)
(284.466 -67.1611 -3.07701e-08)
(271.435 -65.654 -3.10988e-08)
(260.08 -63.7117 -3.0533e-08)
(248.426 -59.3752 -3.0773e-08)
(237.904 -55.8015 -3.03088e-08)
(227.219 -50.1568 -3.05089e-08)
(217.161 -45.7939 -3.01692e-08)
(207.084 -39.635 -3.03595e-08)
(197.995 -34.5527 -3.00504e-08)
(189.819 -27.7669 -3.01889e-08)
(183.399 -21.8492 -2.99993e-08)
(179.156 -14.5953 -3.01733e-08)
(177.254 -8.41462 -2.99988e-08)
(176.594 -1.71458 -3.01295e-08)
(176.13 3.37492 -3.01052e-08)
(177.208 10.2514 -3.00684e-08)
(176.89 15.1669 -3.01125e-08)
(178.457 20.9976 -3.01359e-08)
(179.007 25.8185 -3.02165e-08)
(181.385 31.0636 -3.03102e-08)
(183.2 36.0228 -3.04583e-08)
(187.104 41.428 -3.0642e-08)
(191.373 47.1251 -3.08625e-08)
(198.512 53.5572 -3.11325e-08)
(207.437 60.4397 -3.14354e-08)
(219.772 66.9484 -3.17809e-08)
(232.429 70.3368 -3.21209e-08)
(244.363 69.0948 -3.24072e-08)
(252.934 65.7132 -3.25603e-08)
(260.126 62.6198 -3.26231e-08)
(265.225 58.8997 -3.27738e-08)
(268.566 55.6923 -3.32883e-08)
(270.583 50.187 -3.35458e-08)
(271.735 45.2234 -3.36015e-08)
(272.61 39.4471 -3.38183e-08)
(273.04 34.272 -3.36822e-08)
(272.882 28.5951 -3.38434e-08)
(271.969 23.6548 -3.37837e-08)
(270.49 18.6671 -3.39331e-08)
(268.446 14.5368 -3.38718e-08)
(266.143 10.6729 -3.39708e-08)
(263.631 7.64464 -3.39407e-08)
(261.204 5.06235 -3.3996e-08)
(258.895 3.23522 -3.39522e-08)
(256.975 1.89502 -3.39727e-08)
(255.442 1.17733 -3.3931e-08)
(254.444 0.809604 -3.39382e-08)
(253.9 0.740281 -3.39182e-08)
(253.686 0.720378 -3.39205e-08)
(237.345 -1.01993 -1.73422e-08)
(237.217 -2.14011 -1.74639e-08)
(237.79 -3.32658 -1.77898e-08)
(238.314 -4.63339 -1.80507e-08)
(239.45 -5.97128 -1.84911e-08)
(240.614 -7.38451 -1.88984e-08)
(242.312 -8.8013 -1.94614e-08)
(244.096 -10.2523 -2.00149e-08)
(246.346 -11.7007 -2.06999e-08)
(248.726 -13.1873 -2.13872e-08)
(251.525 -14.6955 -2.21807e-08)
(254.485 -16.2528 -2.2979e-08)
(257.804 -17.8365 -2.38563e-08)
(261.269 -19.4558 -2.47291e-08)
(264.993 -21.0806 -2.56462e-08)
(268.778 -22.7053 -2.65337e-08)
(272.645 -24.2944 -2.74172e-08)
(276.445 -25.8433 -2.82418e-08)
(280.432 -27.3626 -2.90949e-08)
(284.34 -28.8281 -2.98864e-08)
(288.314 -30.2403 -3.06742e-08)
(292.173 -31.5861 -3.13936e-08)
(295.993 -32.8638 -3.20844e-08)
(299.652 -34.0699 -3.27008e-08)
(303.189 -35.203 -3.32723e-08)
(306.527 -36.2652 -3.37657e-08)
(309.689 -37.2548 -3.42075e-08)
(313.009 -38.3084 -3.46207e-08)
(314.428 -38.9683 -3.47005e-08)
(317.5 -39.9329 -3.50272e-08)
(318.997 -40.6044 -3.50398e-08)
(321.394 -41.3659 -3.52253e-08)
(322.615 -41.944 -3.51402e-08)
(324.49 -42.5527 -3.52142e-08)
(325.482 -43.0422 -3.50522e-08)
(326.904 -43.5122 -3.50353e-08)
(327.641 -43.9004 -3.48047e-08)
(328.64 -44.2418 -3.47161e-08)
(329.137 -44.5511 -3.44299e-08)
(329.774 -44.8109 -3.42931e-08)
(330.041 -45.1159 -3.39632e-08)
(330.352 -45.445 -3.37923e-08)
(330.276 -45.9167 -3.34468e-08)
(330.099 -46.6008 -3.32475e-08)
(329.315 -47.7138 -3.2893e-08)
(327.962 -49.5092 -3.26611e-08)
(325.393 -52.2426 -3.22864e-08)
(321.344 -56.0129 -3.19904e-08)
(315.23 -60.4104 -3.15664e-08)
(307.107 -64.5993 -3.11568e-08)
(297.088 -67.4305 -3.06543e-08)
(285.513 -68.0527 -3.01031e-08)
(273.313 -66.1855 -3.03589e-08)
(262.446 -63.8997 -2.98652e-08)
(251.303 -59.4768 -3.00535e-08)
(241.082 -55.5222 -2.96575e-08)
(230.744 -49.8382 -2.9826e-08)
(220.923 -45.0868 -2.95522e-08)
(211.178 -38.8391 -2.97296e-08)
(202.372 -33.333 -2.9464e-08)
(194.561 -26.3599 -2.95886e-08)
(188.421 -20.1497 -2.9442e-08)
(184.308 -12.9555 -2.96142e-08)
(182.245 -6.74022 -2.94708e-08)
(181.403 -0.23538 -2.95912e-08)
(181.002 4.92906 -2.95899e-08)
(181.619 11.6001 -2.95222e-08)
(181.381 16.5628 -2.95769e-08)
(182.499 22.4551 -2.95661e-08)
(183.138 27.2373 -2.96497e-08)
(185.175 32.5479 -2.97108e-08)
(187.154 37.4158 -2.98659e-08)
(190.904 42.7937 -3.00256e-08)
(195.461 48.3361 -3.02561e-08)
(202.597 54.5003 -3.05078e-08)
(211.553 60.71 -3.08147e-08)
(222.992 65.9065 -3.1132e-08)
(234.305 67.8766 -3.14454e-08)
(244.773 66.5143 -3.16838e-08)
(252.776 63.8005 -3.18267e-08)
(259.642 60.703 -3.18855e-08)
(264.421 56.7394 -3.2054e-08)
(267.37 53.3142 -3.26096e-08)
(269.121 47.8472 -3.25793e-08)
(270.098 43.2519 -3.30002e-08)
(270.897 37.7109 -3.27393e-08)
(271.243 32.923 -3.3027e-08)
(271.06 27.5763 -3.29367e-08)
(270.208 23.0284 -3.30038e-08)
(268.832 18.3666 -3.30766e-08)
(266.969 14.5701 -3.30444e-08)
(264.859 10.9693 -3.31169e-08)
(262.582 8.21681 -3.30975e-08)
(260.377 5.83524 -3.31371e-08)
(258.314 4.22167 -3.31046e-08)
(256.6 3.04658 -3.31054e-08)
(255.255 2.44728 -3.30822e-08)
(254.369 2.12522 -3.30754e-08)
(253.886 2.06956 -3.30655e-08)
(253.693 2.05184 -3.30619e-08)
(268.089 -0.22317 -2.62446e-08)
(268.881 -1.59333 -2.65812e-08)
(270.051 -3.10171 -2.69885e-08)
(271.407 -4.76333 -2.74031e-08)
(273.115 -6.49599 -2.78845e-08)
(274.97 -8.31316 -2.83661e-08)
(277.128 -10.149 -2.8907e-08)
(279.376 -12.013 -2.9438e-08)
(281.856 -13.8599 -3.0014e-08)
(284.365 -15.7023 -3.05679e-08)
(287.04 -17.5206 -3.11498e-08)
(289.706 -19.3377 -3.16976e-08)
(292.488 -21.136 -3.22572e-08)
(295.226 -22.9268 -3.27724e-08)
(298.028 -24.6916 -3.32848e-08)
(300.753 -26.4348 -3.37448e-08)
(303.494 -28.1379 -3.41905e-08)
(306.135 -29.799 -3.45814e-08)
(308.757 -31.3962 -3.49521e-08)
(311.24 -32.9247 -3.52615e-08)
(313.666 -34.3715 -3.55454e-08)
(315.926 -35.7326 -3.5766e-08)
(318.099 -37.0018 -3.59588e-08)
(320.092 -38.1781 -3.60893e-08)
(321.976 -39.2605 -3.61913e-08)
(323.678 -40.2505 -3.62365e-08)
(325.256 -41.1501 -3.62542e-08)
(326.794 -42.0696 -3.62146e-08)
(327.008 -42.5529 -3.60448e-08)
(328.313 -43.2841 -3.5977e-08)
(328.764 -43.8571 -3.57322e-08)
(329.643 -44.327 -3.56375e-08)
(329.966 -44.8194 -3.53475e-08)
(330.643 -45.1953 -3.52251e-08)
(330.879 -45.6451 -3.49069e-08)
(331.43 -45.9865 -3.47597e-08)
(331.586 -46.3984 -3.44222e-08)
(332.006 -46.6978 -3.42565e-08)
(332.076 -47.0675 -3.39026e-08)
(332.34 -47.3549 -3.37184e-08)
(332.258 -47.748 -3.33614e-08)
(332.275 -48.1711 -3.31595e-08)
(331.872 -48.8192 -3.28009e-08)
(331.353 -49.734 -3.25803e-08)
(330.158 -51.1375 -3.22159e-08)
(328.384 -53.1816 -3.19635e-08)
(325.362 -56.0312 -3.15729e-08)
(321.017 -59.5411 -3.12654e-08)
(314.862 -63.3277 -3.08214e-08)
(307.045 -66.7144 -3.04218e-08)
(297.525 -68.8539 -2.98972e-08)
(286.488 -69.164 -2.94016e-08)
(275.047 -66.8607 -2.95958e-08)
(264.64 -64.2934 -2.91593e-08)
(253.98 -59.6652 -2.93025e-08)
(244.06 -55.3762 -2.89627e-08)
(234.041 -49.5431 -2.91039e-08)
(224.451 -44.4373 -2.88871e-08)
(214.999 -38.017 -2.9055e-08)
(206.454 -32.1189 -2.8826e-08)
(198.935 -24.9273 -2.89389e-08)
(192.979 -18.444 -2.88257e-08)
(188.897 -11.2325 -2.89943e-08)
(186.642 -4.95885 -2.88786e-08)
(185.605 1.45407 -2.89901e-08)
(185.163 6.63188 -2.9006e-08)
(185.494 13.1276 -2.89196e-08)
(185.249 18.1801 -2.89782e-08)
(186.056 24.0661 -2.89461e-08)
(186.696 28.8656 -2.90271e-08)
(188.503 34.2121 -2.90674e-08)
(190.567 39.0194 -2.9226e-08)
(194.232 44.3622 -2.93711e-08)
(198.96 49.7068 -2.96082e-08)
(206.019 55.4743 -2.98488e-08)
(214.783 60.7951 -3.01569e-08)
(225.356 64.6672 -3.04489e-08)
(235.623 65.6196 -3.07428e-08)
(245.022 64.3444 -3.09561e-08)
(252.601 61.8378 -3.10952e-08)
(259.062 58.5644 -3.11532e-08)
(263.509 54.3917 -3.13149e-08)
(266.148 50.8361 -3.18309e-08)
(267.724 45.5751 -3.16726e-08)
(268.565 41.2758 -3.23798e-08)
(269.303 36.0338 -3.17733e-08)
(269.563 31.586 -3.23228e-08)
(269.388 26.5825 -3.19567e-08)
(268.574 22.3919 -3.23221e-08)
(267.319 18.0625 -3.2137e-08)
(265.606 14.5821 -3.23073e-08)
(263.692 11.263 -3.22376e-08)
(261.622 8.76869 -3.23054e-08)
(259.639 6.61221 -3.22688e-08)
(257.794 5.19044 -3.22912e-08)
(256.274 4.15092 -3.22508e-08)
(255.088 3.64014 -3.22541e-08)
(254.301 3.35389 -3.22387e-08)
(253.869 3.30823 -3.22319e-08)
(253.695 3.29227 -3.22288e-08)
(296.212 0.0228839 -3.31118e-08)
(297.105 -1.45629 -3.343e-08)
(297.947 -3.11011 -3.37102e-08)
(299.158 -4.93843 -3.40343e-08)
(300.365 -6.86494 -3.43285e-08)
(301.844 -8.88986 -3.4648e-08)
(303.329 -10.9467 -3.49431e-08)
(304.98 -13.0323 -3.5246e-08)
(306.618 -15.0987 -3.5526e-08)
(308.324 -17.1501 -3.57985e-08)
(309.988 -19.1589 -3.60472e-08)
(311.658 -21.145 -3.62764e-08)
(313.293 -23.0983 -3.64808e-08)
(314.906 -25.0271 -3.66578e-08)
(316.49 -26.9161 -3.6809e-08)
(318.031 -28.7659 -3.69267e-08)
(319.541 -30.5595 -3.70203e-08)
(320.989 -32.2948 -3.70766e-08)
(322.399 -33.9556 -3.71086e-08)
(323.731 -35.5406 -3.71036e-08)
(325.017 -37.0366 -3.70758e-08)
(326.212 -38.4438 -3.70121e-08)
(327.357 -39.7524 -3.69274e-08)
(328.402 -40.9662 -3.68093e-08)
(329.393 -42.0784 -3.66742e-08)
(330.283 -43.0965 -3.65066e-08)
(331.11 -44.0165 -3.63263e-08)
(331.867 -44.9473 -3.60919e-08)
(331.879 -45.3689 -3.589e-08)
(332.529 -46.0989 -3.56557e-08)
(332.639 -46.5743 -3.53636e-08)
(333.069 -47.0426 -3.51532e-08)
(333.11 -47.4285 -3.4837e-08)
(333.431 -47.7896 -3.46217e-08)
(333.433 -48.1327 -3.42987e-08)