/*--------------------------------*- C++ -*----------------------------------*\
  =========                 |
  \\      /  F ield         | OpenFOAM: The Open Source CFD Toolbox
   \\    /   O peration     | Website:  https://openfoam.org
    \\  /    A nd           | Version:  7
     \\/     M anipulation  |
\*---------------------------------------------------------------------------*/
FoamFile
{
    version     2.0;
    format      ascii;
    class       labelField;
    location    "0.1225/lagrangian/reactingCloud1";
    object      cellId;
}
// * * * * * * * * * * * * * * * * * * * * * * * * * * * * * * * * * * * * * //


952
(
18
15
87
48
121
50
116
152
226
185
262
219
219
254
293
290
366
325
364
323
364
358
398
392
397
425
431
541
535
575
538
536
530
607
602
642
640
643
715
746
740
777
812
817
829
870
894
896
926
922
948
999
1001
1029
1030
1053
1053
660
420
1031
1037
1002
985
968
950
944
931
910
881
882
874
853
827
835
823
806
782
773
762
743
721
701
688
664
659
632
612
607
585
564
549
522
530
521
502
483
486
470
445
425
401
402
387
363
341
353
326
304
291
262
242
249
224
205
183
80
140
147
123
130
108
98
97
40
49
21
27
12
1015
895
796
998
957
957
958
959
960
918
963
986
837
948
901
903
906
757
818
846
869
799
575
846
737
717
806
785
656
761
761
724
678
677
703
704
658
688
617
666
644
475
624
621
606
577
558
565
559
573
544
504
520
477
484
501
460
440
416
393
401
600
983
1028
990
905
927
891
280
784
812
728
710
713
645
673
648
582
625
674
562
590
100
442
490
496
404
405
406
409
140
342
393
353
330
305
275
226
182
255
233
164
191
121
151
153
135
82
112
20
43
0
468
439
437
436
434
491
514
542
540
564
570
570
596
623
681
673
704
764
757
786
782
840
893
895
917
945
1024
399
378
379
327
326
303
307
304
288
258
262
239
199
1
20
16
31
15
112
76
282
151
242
233
324
236
148
234
147
140
142
272
142
147
320
145
143
191
185
275
182
186
182
273
276
231
226
315
272
270
267
268
272
264
268
264
265
523
268
354
266
308
566
566
355
306
479
349
305
307
350
392
391
389
432
387
433
429
472
473
472
428
470
469
511
512
470
511
512
510
726
552
504
550
550
547
551
549
551
588
586
585
589
590
584
631
625
675
673
806
664
844
668
664
671
888
711
707
706
752
747
751
924
785
832
834
829
828
832
831
829
824
830
869
875
864
873
904
913
985
951
952
948
954
29
11
103
10
25
9
24
9
4
7
9
5
131
20
6
7
6
37
94
35
34
36
57
34
58
129
234
55
126
161
199
89
125
232
121
122
122
161
160
120
195
235
229
185
341
226
337
299
253
333
291
296
404
291
332
367
292
331
328
473
435
363
435
360
548
398
399
396
432
426
433
466
465
429
579
462
504
464
466
466
495
499
496
531
535
530
525
605
567
603
594
603
629
597
663
628
657
658
658
691
722
684
720
715
750
748
743
769
777
775
774
838
803
832
833
899
830
898
896
862
862
892
892
891
924
921
953
947
983
983
980
982
971
979
977
982
1005
1002
1005
1033
1045
1058
226
849
25
24
20
23
129
111
80
52
24
19
49
15
108
15
47
15
44
106
105
44
79
44
108
171
44
136
50
164
104
74
113
74
73
75
228
135
164
253
103
105
145
165
108
131
226
46
168
132
192
252
235
163
131
191
131
131
193
194
191
229
189
256
281
295
195
217
260
217
249
305
247
245
273
229
306
246
277
365
274
275
302
339
337
245
305
306
274
276
336
275
334
332
411
362
396
301
304
331
357
329
357
431
329
418
359
386
387
413
449
415
388
415
413
446
413
456
442
443
443
444
441
441
471
474
427
469
561
471
469
491
530
560
532
587
527
510
507
497
590
590
525
529
546
525
506
589
585
556
585
554
556
616
588
615
581
615
537
616
645
582
532
610
613
564
613
618
568
533
609
609
563
672
642
637
620
666
697
669
666
669
667
698
726
665
619
727
695
727
654
693
693
721
726
721
648
648
675
785
755
756
723
674
784
753
647
785
706
813
782
778
783
675
704
778
842
805
811
811
733
865
867
862
898
861
868
793
896
866
898
861
893
898
785
830
925
890
894
926
891
924
918
917
815
950
920
948
818
815
949
978
945
945
980
980
879
1009
879
975
1006
1003
1007
1020
1002
874
908
1016
902
1018
1029
1039
1038
955
1038
1032
932
929
1047
983
1051
1045
1051
1043
1043
1047
997
1060
1059
986
600
624
649
624
653
624
624
657
650
673
672
672
672
696
695
695
724
718
697
718
748
718
745
741
741
741
742
718
764
820
741
766
766
770
770
764
768
787
787
791
790
788
787
811
813
844
816
839
842
866
834
866
833
860
860
859
858
862
882
900
880
878
906
881
878
878
883
878
878
900
903
922
927
957
922
950
953
922
944
949
944
948
948
977
947
968
985
999
992
988
997
998
992
989
993
1019
1016
1015
1010
1011
1011
1010
1039
1010
1037
1034
1037
1035
1032
)


// ************************************************************************* //
