/*--------------------------------*- C++ -*----------------------------------*\
  =========                 |
  \\      /  F ield         | OpenFOAM: The Open Source CFD Toolbox
   \\    /   O peration     | Website:  https://openfoam.org
    \\  /    A nd           | Version:  7
     \\/     M anipulation  |
\*---------------------------------------------------------------------------*/
FoamFile
{
    version     2.0;
    format      ascii;
    class       vectorField;
    location    "0.1225/lagrangian/reactingCloud1";
    object      coordinates;
}
// * * * * * * * * * * * * * * * * * * * * * * * * * * * * * * * * * * * * * //


952
(
(1.8199 0.048445 1.31236e-07)
(1.80242 0.0293677 1.25896e-13)
(1.75965 0.086011 4.38352e-07)
(1.78726 0.0349838 -9.48146e-15)
(1.72165 0.0949434 -3.38777e-07)
(1.77888 0.0507215 6.36131e-07)
(1.72033 0.0591688 7.18919e-08)
(1.71095 0.0715931 5.23428e-07)
(1.64833 0.0918541 -2.48783e-07)
(1.69083 0.0514675 -3.2966e-08)
(1.64116 0.0989327 -6.08157e-07)
(1.66512 0.047503 -1.32997e-12)
(1.65762 0.0465404 -5.35698e-08)
(1.63514 0.0463209 -6.64896e-13)
(1.60231 0.0782289 -2.193e-07)
(1.60545 0.0533148 -2.55953e-07)
(1.57179 0.0946472 1.25619e-07)
(1.59191 0.0532047 2.16917e-07)
(1.57336 0.0828537 1.39691e-08)
(1.58263 0.0393624 -2.42996e-14)
(1.5526 0.0831821 -8.53581e-08)
(1.55198 0.0380277 1.04365e-15)
(1.53257 0.0767163 1.96571e-07)
(1.53457 0.0334807 3.17486e-14)
(1.53119 0.0705783 -5.77755e-08)
(1.52138 0.021821 -6.50111e-13)
(1.50979 0.0571716 -1.02802e-07)
(1.45514 0.0904945 -4.92806e-08)
(1.45846 0.0513578 4.69823e-07)
(1.44646 0.0860817 5.73924e-08)
(1.46632 0.0702466 -3.72807e-07)
(1.45422 0.0573152 -1.74942e-07)
(1.45043 0.0177547 -9.07217e-13)
(1.42508 0.0646257 1.00577e-07)
(1.41222 0.0290489 -9.832e-13)
(1.39805 0.067323 3.40745e-07)
(1.39428 0.0529162 -1.98177e-13)
(1.39067 0.0742752 -9.5931e-09)
(1.36831 0.096248 2.68534e-08)
(1.34646 0.0771536 5.86106e-08)
(1.34229 0.0371612 -4.88966e-14)
(1.33229 0.0549015 -3.26095e-07)
(1.31099 0.0619 1.56799e-09)
(1.30397 0.0939926 4.50479e-08)
(1.28433 0.00744971 -4.61398e-13)
(1.27968 0.0911307 -9.82545e-08)
(1.2648 0.069549 -1.4549e-09)
(1.26093 0.0813675 2.07995e-08)
(1.24696 0.0996081 1.54911e-08)
(1.24323 0.08073 -1.08436e-08)
(1.23195 0.0689871 -2.38613e-07)
(1.19969 0.0490693 -1.60159e-12)
(1.19301 0.0665987 -8.40681e-09)
(1.18983 0.0682954 -4.53541e-08)
(1.1842 0.0797738 -3.90025e-07)
(1.17469 0.0518523 -2.12629e-13)
(1.16559 0.0508774 -4.21618e-13)
(0.347799 0.130528 2.35348e-07)
(0.289716 0.129077 -1.86066e-07)
(0.424333 0.062872 1.57712e-11)
(0.420995 0.0217927 5.26205e-13)
(0.419708 0.133592 -4.56036e-11)
(0.417541 0.112937 3.59963e-11)
(0.413274 0.0856042 -9.17723e-11)
(0.408756 0.0676229 -1.092e-11)
(0.408637 0.110869 5.37517e-11)
(0.402157 0.0587094 1.65331e-11)
(0.399384 0.0673236 3.2064e-13)
(0.397674 0.134744 2.47353e-12)
(0.396226 0.122712 6.41887e-12)
(0.388346 0.0355236 -1.83902e-12)
(0.384719 0.0475712 -3.63229e-12)
(0.384251 0.0908331 -1.06314e-11)
(0.380684 0.0293488 -5.41552e-12)
(0.382898 0.116559 -2.94463e-11)
(0.376653 0.0917478 -1.41702e-11)
(0.375487 0.122591 -9.72103e-12)
(0.367496 0.0473141 -2.91542e-11)
(0.368577 0.121946 -2.52416e-11)
(0.363973 0.112218 -5.78435e-11)
(0.360238 0.126466 -2.06604e-11)
(0.356238 0.1251 -2.62519e-11)
(0.350323 0.0755226 -2.58196e-12)
(0.347673 0.103823 -4.15765e-11)
(0.341169 0.00552837 -3.80257e-14)
(0.338099 0.0520331 -1.89299e-11)
(0.333565 0.0497086 -3.25865e-12)
(0.331705 0.0820545 -3.54058e-12)
(0.328143 0.0958784 -3.09501e-11)
(0.324011 0.103177 -1.47486e-10)
(0.319342 0.0680935 6.99442e-13)
(0.317024 0.114216 -2.43442e-11)
(0.315451 0.0625722 1.42222e-12)
(0.313207 0.116709 -9.55677e-12)
(0.308646 0.112524 5.0731e-11)
(0.304476 0.105251 2.91529e-12)
(0.303671 0.0887756 2.64974e-12)
(0.29932 0.0610707 1.12494e-12)
(0.295901 0.0937081 3.57967e-12)
(0.292715 0.0964791 -1.21277e-11)
(0.288213 0.118501 8.84793e-11)
(0.284051 0.110963 3.62109e-11)
(0.279973 0.0819303 -3.68229e-12)
(0.275898 0.103747 -4.81443e-11)
(0.271742 0.118735 -4.78256e-12)
(0.268232 0.0448022 -1.85208e-12)
(0.263767 0.0902078 -2.92071e-12)
(0.260135 0.101713 -4.66581e-12)
(0.256433 0.0553367 2.67894e-12)
(0.252288 0.112343 1.83485e-11)
(0.248045 0.114339 2.1187e-11)
(0.243702 0.0675943 8.981e-12)
(0.240869 0.0997094 5.8215e-13)
(0.236729 0.0943291 1.19483e-11)
(0.232598 0.105281 2.52644e-11)
(0.203827 0.128555 1.71589e-13)
(0.22084 0.124669 -1.58071e-12)
(0.220945 0.0817487 6.44511e-12)
(0.216557 0.106065 2.89651e-11)
(0.21199 0.0584742 -1.41614e-12)
(0.208588 0.0724585 -2.17496e-12)
(0.204098 0.00938743 5.5351e-13)
(0.200232 0.0182216 8.0219e-14)
(0.194354 0.125564 -7.93758e-12)
(0.192848 0.0661424 -1.42982e-13)
(0.188962 0.116987 6.12577e-12)
(0.184368 0.0787888 8.11444e-13)
(0.180734 0.0497023 -2.96818e-14)
(0.561983 0.152041 -1.67066e-07)
(0.535447 0.150424 1.04939e-08)
(0.516927 0.148898 -1.69494e-07)
(0.55668 0.129651 2.71722e-11)
(0.550038 0.131833 2.71887e-07)
(0.547937 0.132193 -9.30875e-08)
(0.551494 0.123886 -5.43841e-12)
(0.54953 0.122607 1.30141e-10)
(0.550911 0.113901 -9.54328e-12)
(0.542907 0.125774 -9.31652e-12)
(0.550555 0.0852974 6.76816e-12)
(0.550511 0.0639788 -2.22285e-12)
(0.526114 0.135541 2.68171e-07)
(0.54364 0.0531816 5.31181e-11)
(0.536983 0.108977 1.14332e-10)
(0.535642 0.088844 9.43395e-12)
(0.536804 0.063446 3.78501e-11)
(0.509189 0.144366 7.17284e-08)
(0.520066 0.128598 1.39292e-10)
(0.524679 0.06764 2.50448e-12)
(0.526503 0.0464345 3.65002e-11)
(0.516705 0.125321 4.18505e-12)
(0.472177 0.15953 -1.59849e-09)
(0.52188 0.0649037 2.50415e-12)
(0.502291 0.14149 -1.20882e-07)
(0.49883 0.139903 -2.97048e-07)
(0.516667 0.0679329 5.7806e-12)
(0.512804 0.0754113 8.16606e-12)
(0.488527 0.151835 -3.75124e-07)
(0.506266 0.109367 3.07149e-11)
(0.505802 0.110722 3.01163e-11)
(0.500647 0.0871373 1.00837e-11)
(0.491821 0.138953 1.61732e-10)
(0.489812 0.144293 -2.0608e-07)
(0.495132 0.0946069 4.23777e-12)
(0.492994 0.0865267 1.13377e-11)
(0.485651 0.13913 -5.55992e-07)
(0.488976 0.05181 2.07981e-15)
(0.479682 0.140172 -1.42239e-09)
(0.485374 0.0698886 9.1911e-13)
(0.482494 0.0872024 8.93725e-13)
(0.451144 0.159577 -1.43439e-07)
(0.476869 0.0851321 4.21412e-13)
(0.4775 0.110995 1.1341e-11)
(0.47422 0.0683944 2.7513e-12)
(0.468757 0.141916 2.6045e-07)
(0.466311 0.134754 2.55019e-12)
(0.465604 0.0780799 -1.67289e-12)
(0.465475 0.126968 5.82547e-12)
(0.463313 0.00934515 4.32356e-12)
(0.459997 0.0831626 2.96285e-11)
(0.454658 0.0894567 1.48353e-11)
(0.456303 0.117592 -3.70886e-12)
(0.449703 0.141766 -4.77565e-07)
(0.44928 0.0829546 1.7173e-11)
(0.451183 0.106969 -7.87088e-12)
(0.442881 0.119095 -9.29189e-12)
(0.440686 0.112642 1.72786e-10)
(0.434981 0.143466 2.52657e-08)
(0.426806 0.0103096 3.82347e-12)
(0.431596 0.105034 -2.42924e-11)
(0.703177 0.111888 7.97254e-07)
(0.801856 0.0872695 -2.05681e-08)
(0.817584 0.059897 2.75641e-11)
(0.804946 0.0456763 -7.52089e-11)
(0.778768 0.0747657 -8.91365e-08)
(0.784078 0.0657438 4.04445e-07)
(0.775345 0.0447282 -1.08046e-10)
(0.63159 0.133687 -1.45692e-07)
(0.744411 0.0775687 -2.46238e-08)
(0.752673 0.0371829 1.53699e-11)
(0.730557 0.0575169 -6.91333e-11)
(0.724475 0.0510597 -6.54659e-12)
(0.725215 0.0316061 -4.38941e-11)
(0.711255 0.0803698 3.39211e-11)
(0.71678 0.0350558 1.75908e-11)
(0.710468 0.062863 6.1516e-12)
(0.696026 0.0979367 -3.0296e-08)
(0.70379 0.0792676 4.821e-11)
(0.713901 0.0288348 5.68285e-12)
(0.692491 0.10156 -4.07054e-07)
(0.697036 0.0548126 9.06887e-12)
(0.593931 0.145099 -2.20965e-07)
(0.666393 0.108907 1.6519e-07)
(0.672504 0.0580017 5.764e-12)
(0.674001 0.0228746 1.07337e-11)
(0.654538 0.0993435 6.25315e-12)
(0.653818 0.0937938 -6.36636e-11)
(0.654286 0.0828078 3.08151e-11)
(0.656039 0.0650298 2.68285e-11)
(0.600345 0.143202 1.08083e-07)
(0.643829 0.113767 -3.19185e-08)
(0.651496 0.0443033 7.0961e-11)
(0.640881 0.0421496 -2.64575e-13)
(0.639114 0.0594386 3.92385e-11)
(0.633786 0.097955 -7.41717e-07)
(0.624125 0.0287839 3.13132e-11)
(0.618216 0.0943353 1.00882e-12)
(0.610224 0.122011 -6.91142e-08)
(0.619218 0.0318032 -1.62755e-13)
(0.61377 0.0468015 -1.35706e-12)
(0.604416 0.111909 1.29077e-10)
(0.606233 0.0633137 5.06332e-11)
(0.596854 0.131403 -1.71064e-07)
(0.600526 0.06258 -1.0523e-12)
(0.596904 0.0434499 9.57575e-12)
(0.59514 0.029818 1.42341e-11)
(0.587538 0.127923 1.37725e-08)
(0.588588 0.0550575 -3.38257e-12)
(0.573808 0.149127 2.23458e-09)
(0.577845 0.12376 -8.66002e-11)
(0.569385 0.150318 1.67117e-07)
(1.14163 0.0966347 -1.09508e-07)
(1.16254 0.0913644 -4.573e-07)
(1.16118 0.074002 -5.57178e-07)
(1.15235 0.0697186 9.25347e-08)
(1.14929 0.0534922 -2.93921e-13)
(1.12227 0.0749841 3.27351e-08)
(1.12152 0.046379 -2.60532e-14)
(1.10079 0.053923 4.19266e-07)
(1.10191 0.0451987 2.74239e-12)
(1.09072 0.0260399 3.49711e-12)
(1.09289 0.0612868 -5.60199e-07)
(1.08632 0.0662869 1.25427e-08)
(1.07984 0.0564096 -1.32328e-07)
(1.06116 0.0581743 -1.10475e-08)
(1.03783 0.0789857 -5.42918e-09)
(1.03743 0.0265653 8.07725e-14)
(1.02919 0.0569658 2.89596e-13)
(1.00552 0.0903894 -2.78356e-07)
(1.00722 0.0459745 5.54212e-12)
(1.00109 0.0632637 6.52841e-07)
(0.999409 0.0367388 1.63742e-11)
(0.982024 0.0631004 2.13389e-07)
(0.964441 0.0537127 6.71795e-12)
(0.961999 0.0654152 -1.12117e-07)
(0.949881 0.037248 1.36047e-11)
(0.938023 0.0396865 -3.26777e-12)
(0.917075 0.0291069 -8.0947e-12)
(0.909181 0.0841951 2.18661e-08)
(0.897395 0.0908723 -1.00211e-07)
(0.899957 0.0873397 -3.18515e-07)
(0.87674 0.0343613 -3.30262e-12)
(0.875082 0.0438628 -1.86751e-11)
(0.872069 0.0589397 -2.32721e-07)
(0.866536 0.0350801 2.97383e-11)
(0.866297 0.0564956 -2.35241e-12)
(0.860465 0.0318467 -1.07496e-11)
(0.855106 0.08621 -3.76987e-10)
(0.852722 0.0673291 6.93647e-08)
(0.847707 0.080901 8.6435e-08)
(0.834052 0.0847208 1.83317e-07)
(4.70413 0.101403 2.54877e-07)
(4.66038 0.138296 -8.44717e-07)
(4.64059 0.103275 -4.34384e-07)
(4.53881 0.105719 3.3086e-07)
(4.60434 0.0923565 -1.21054e-07)
(4.38378 0.121574 2.80759e-07)
(4.44113 0.0853914 1.0078e-06)
(4.14574 0.141602 1.05163e-08)
(4.31728 0.0896932 -8.47211e-08)
(4.19664 0.140089 8.42309e-07)
(4.22155 0.0718536 1.38055e-07)
(4.08024 0.149054 2.20851e-07)
(4.21105 0.0993799 -9.74266e-08)
(4.29898 0.0640973 2.13118e-07)
(4.2157 0.0823573 8.27081e-09)
(4.32402 0.0519083 -3.36118e-07)
(4.34123 6.61633e-12 -2.24095e-14)
(4.347 0.0129847 -1.81511e-07)
(4.16372 0.0617646 -1.3261e-07)
(4.30774 0.0192322 -4.62782e-07)
(4.2898 0.0576833 1.89645e-08)
(4.07073 0.127013 7.42511e-07)
(4.29576 0.0353654 -4.95192e-08)
(4.29675 0.0215725 3.87282e-08)
(4.22951 0.0722901 -9.9043e-08)
(4.25572 0.0220262 -1.3246e-07)
(4.16414 0.0887856 4.20673e-07)
(4.24883 0.00136081 -6.40438e-08)
(4.2274 0.0309125 1.31009e-07)
(4.23833 1.63885e-07 4.78654e-10)
(4.15608 0.0712277 -1.36225e-07)
(4.13503 0.0970271 -1.68255e-07)
(4.17331 0.0566513 -1.53669e-07)
(4.20558 0.0158988 -1.37905e-07)
(4.10446 0.0905174 -1.18429e-06)
(4.14033 0.0627117 -3.46596e-07)
(4.1638 0.0465565 2.42084e-07)
(4.15835 0.021109 -5.76239e-07)
(4.14859 0.0284626 3.57652e-07)
(4.10886 0.0628001 -1.07587e-08)
(4.1573 1.36673e-08 -1.09618e-10)
(4.13759 0.0294215 3.36028e-08)
(4.13258 0.000956112 -3.68383e-08)
(4.13677 0.0117026 4.16432e-09)
(3.77148 0.13903 -3.15339e-07)
(4.11295 0.0270631 3.1478e-07)
(4.03865 0.0785764 1.13034e-06)
(4.14396 0.0141121 2.87854e-07)
(4.08613 0.0271807 -6.34892e-08)
(3.72455 0.152851 -9.98458e-08)
(3.73193 0.152475 -1.75778e-07)
(4.00291 0.0909435 -8.91957e-08)
(4.06153 0.0164176 1.34093e-08)
(3.84367 0.12173 2.5993e-07)
(4.04353 0.041324 -1.27753e-08)
(4.07834 0.0124135 1.67353e-07)
(4.04731 0.0236809 7.26048e-08)
(4.03163 0.0422818 2.76658e-08)
(3.95982 0.0597817 -3.78223e-08)
(3.95389 0.0570561 -2.01673e-07)
(3.96694 0.0343944 -4.30304e-08)
(3.90358 0.0610682 -3.45338e-07)
(3.9438 0.019734 1.40119e-07)
(3.87753 0.0677615 -1.72752e-09)
(3.91322 0.036157 8.86743e-08)
(3.86736 0.0643543 -5.54131e-08)
(3.8366 0.074481 -5.7788e-09)
(3.84615 0.0609213 3.63742e-08)
(3.87878 0.0312069 2.88662e-07)
(3.83896 0.0430284 9.6337e-09)
(3.83142 0.0395852 -3.35999e-07)
(3.8107 0.0526187 1.23374e-07)
(3.78771 0.0597727 -1.39558e-07)
(3.81333 0.0429901 4.46246e-08)
(3.79496 0.0501719 -4.74219e-08)
(3.76871 0.0631248 -1.94824e-07)
(3.79025 0.0467677 -1.07086e-08)
(3.5171 0.15151 2.03712e-07)
(3.72776 0.0597609 -2.8594e-08)
(3.76823 0.00153114 -7.9902e-08)
(3.75423 0.042458 -9.37504e-08)
(3.75501 0.0412821 1.51972e-07)
(3.73395 0.0227695 2.11758e-07)
(3.71142 0.0563057 1.06764e-08)
(3.71167 0.0369214 -1.06565e-08)
(3.70107 0.0514681 7.92346e-08)
(3.69071 0.0272311 4.28438e-07)
(3.6716 0.0145463 4.87857e-07)
(3.65413 0.0091028 6.6598e-07)
(3.64606 0.0372999 9.2813e-08)
(3.64974 0.0429216 4.1593e-07)
(3.65072 0.00079321 -4.59998e-15)
(3.63323 0.0557987 -6.09094e-08)
(3.62935 0.00665953 -6.57067e-14)
(3.56063 0.0885441 -1.0805e-06)
(3.57014 0.0721104 1.75039e-07)
(3.38071 0.147753 3.40878e-07)
(3.57957 7.7493e-05 -7.88962e-09)
(3.33542 0.139866 -6.30872e-07)
(3.55361 0.0310536 1.04082e-08)
(3.56068 1.27097e-09 8.15952e-12)
(3.54146 0.0493103 -4.4334e-08)
(3.30246 0.160633 -2.51582e-08)
(3.50946 0.0472217 -1.0662e-07)
(3.51191 0.0203193 -5.79184e-08)
(3.51898 0.0152531 2.22419e-07)
(3.48248 0.0576265 -8.34883e-08)
(3.46853 0.0214585 7.68736e-08)
(3.4447 0.0542826 5.96425e-08)
(3.23095 0.136404 1.79491e-07)
(3.4265 0.00972323 8.60478e-14)
(3.36601 0.060872 7.01318e-08)
(3.33753 0.0750714 -2.53135e-07)
(3.34851 0.0318209 -4.21865e-08)
(3.35308 0.0282463 -3.68861e-07)
(3.34051 0.0583883 1.22174e-09)
(3.33894 0.0525591 1.43525e-08)
(3.33379 0.0354135 -1.004e-07)
(3.33371 1.17462e-11 6.40774e-14)
(3.32676 0.0407388 -1.58821e-07)
(3.31937 0.0314987 1.81267e-07)
(3.3003 0.0870167 1.16968e-07)
(3.31678 0.00375428 -1.01966e-07)
(3.27666 0.0666507 -7.70285e-08)
(3.26447 0.00102034 4.67175e-08)
(3.25602 0.0678533 4.22541e-09)
(3.17156 0.105414 -2.40787e-07)
(3.22449 0.0486125 -4.83927e-09)
(3.22067 0.0548836 3.74039e-07)
(3.21724 0.0283796 -3.38442e-09)
(3.19132 0.0756959 2.62056e-07)
(3.09828 0.11581 8.638e-08)
(3.13149 0.0811608 7.34379e-07)
(2.96005 0.132372 1.60929e-07)
(3.14207 0.0770278 -3.06602e-07)
(3.10697 0.0869189 -1.90478e-07)
(3.15563 0.0612641 -4.01921e-08)
(3.12062 0.0804558 -4.93302e-07)
(3.13724 0.0662195 2.6363e-07)
(3.14026 0.0238154 6.80907e-07)
(3.16039 0.0499534 -7.10712e-09)
(3.12894 0.0617501 -3.35969e-08)
(3.16546 0.0352272 8.03886e-08)
(2.91361 0.105849 -1.09516e-07)
(3.12711 0.0448653 -4.53986e-08)
(3.15345 0.0420845 2.07837e-07)
(3.14131 0.0465639 -3.96741e-07)
(3.12841 0.0430488 -2.53631e-08)
(3.07767 0.0425076 1.44294e-07)
(2.98324 0.0832267 -4.52338e-08)
(3.0632 0.0281968 1.33443e-07)
(3.06131 0.0200619 -2.25425e-13)
(3.05538 0.0319169 8.56509e-08)
(2.99159 0.0571357 -7.1441e-08)
(3.0427 0.0169787 -2.36996e-13)
(3.01205 0.0623569 5.54024e-08)
(2.90735 0.0846335 3.35549e-07)
(2.78876 0.107371 2.00424e-07)
(2.99559 0.0378909 1.19266e-07)
(2.9062 0.0666094 -6.5276e-08)
(2.85808 0.0742514 8.65614e-08)
(2.84325 0.101242 2.14253e-07)
(2.9418 0.0418252 2.88276e-07)
(2.89802 0.0588325 2.32504e-07)
(2.80232 0.0949834 1.54069e-08)
(2.90692 0.0264015 4.83732e-07)
(2.903 0.0303082 -1.08142e-07)
(2.90765 0.0353675 3.20707e-07)
(2.86221 0.0742484 -7.08403e-07)
(2.85386 0.0643599 -1.63378e-07)
(2.92247 0.0167682 2.00246e-07)
(2.84325 0.0717288 -7.9415e-08)
(2.79517 0.112917 -3.79285e-07)
(2.79554 0.0746307 6.54089e-07)
(2.84521 2.82542e-11 -4.59703e-14)
(2.65529 0.130323 1.36366e-07)
(2.79186 0.0469878 -4.06837e-09)
(2.63515 0.113824 7.17683e-07)
(2.70995 0.0871816 1.79954e-07)
(2.7576 8.77569e-11 2.78579e-13)
(2.66357 0.0871847 -7.841e-07)
(2.71058 0.0263841 -8.49716e-08)
(2.69086 0.0585751 -5.76036e-07)
(2.58767 0.10436 3.62713e-07)
(2.6959 0.0276266 -3.02277e-13)
(2.64285 0.0779155 -6.46059e-08)
(2.61459 0.0812034 -1.60969e-08)
(2.67683 0.0346209 4.74046e-08)
(2.65368 0.071246 -4.20574e-07)
(2.65762 0.0431637 -1.038e-07)
(2.50118 0.110745 -1.58178e-07)
(2.54565 0.0859227 -8.01792e-07)
(2.62218 0.0517653 3.99459e-08)
(2.54341 0.0864398 -3.66265e-08)
(2.60693 0.030811 -1.01137e-12)
(2.40639 0.138683 -1.06691e-06)
(2.57844 0.0595212 5.52205e-08)
(2.55517 0.0712944 3.34588e-07)
(2.56543 0.0456573 -1.83451e-07)
(2.55254 0.059672 1.23717e-07)
(2.55105 0.0184255 -4.40135e-13)
(2.52136 0.0645615 1.62106e-07)
(2.5022 0.0590945 -2.2037e-07)
(2.50897 0.0546395 -2.12004e-07)
(2.52571 0.0343865 1.58334e-07)
(2.38873 0.127434 -4.31719e-07)
(2.51242 0.0292691 -1.30744e-12)
(2.43771 0.08742 -1.60931e-07)
(2.50553 0.0484007 7.88249e-08)
(2.5008 0.0591638 4.5898e-07)
(2.4769 0.0620484 -5.47932e-07)
(2.45252 0.0257606 -1.26007e-13)
(2.44535 0.0511613 1.33176e-07)
(2.45536 0.0280117 1.90653e-07)
(2.43258 0.0366826 -4.0839e-12)
(2.40943 0.0709854 2.74886e-07)
(2.41574 0.0327434 8.74051e-15)
(2.40778 0.00271906 -9.81832e-15)
(2.35656 0.0836123 2.24082e-07)
(2.37721 0.0532128 2.06704e-09)
(2.34014 0.0649593 4.21937e-08)
(2.3446 0.00733914 -2.76596e-14)
(2.33367 0.0632924 -9.47433e-07)
(2.32089 0.0429069 9.52717e-08)
(2.33804 0.0212281 3.01317e-07)
(2.27802 0.0842496 3.34742e-07)
(2.29262 0.0383612 -3.39506e-13)
(2.28709 0.0338444 -2.88107e-13)
(2.26756 0.0453922 -1.55227e-07)
(2.26421 0.0426687 -4.41139e-07)
(2.22319 0.0747997 3.70818e-07)
(2.20973 0.0856699 2.73629e-08)
(2.24474 0.0232436 -3.43114e-07)
(2.21741 0.0699603 4.5784e-07)
(2.21136 0.0360218 -7.24034e-13)
(2.15705 0.0830303 2.21225e-07)
(2.17001 0.0670226 6.74688e-08)
(2.15478 0.0260089 -6.97168e-15)
(2.15114 0.0140749 -2.62838e-14)
(2.14344 0.066606 -1.19869e-07)
(2.14311 0.0524357 -6.67482e-09)
(2.12329 0.0458323 -1.01196e-07)
(2.08352 0.0849905 2.742e-07)
(2.1018 0.0419165 -5.67016e-07)
(2.07932 0.0397033 -1.59962e-13)
(2.07511 0.0488449 1.97217e-08)
(2.01236 0.106206 1.81385e-07)
(2.05561 0.0314391 -2.84173e-14)
(2.0091 0.0970169 8.27807e-08)
(2.01555 0.0854717 -1.05935e-06)
(2.02556 0.0479724 -2.51706e-07)
(2.02689 0.0452335 5.66105e-09)
(2.0191 0.0586377 1.29317e-07)
(2.01456 0.0563079 8.16286e-07)
(2.00275 0.0492607 -3.27476e-07)
(1.98562 0.0780941 1.58598e-07)
(1.97891 0.0542051 6.44421e-07)
(1.94664 0.079392 1.05743e-07)
(1.94686 0.0354139 4.44276e-13)
(1.92427 0.0882927 7.13638e-08)
(1.9231 0.0872345 1.04869e-06)
(1.93057 0.061207 -8.1774e-08)
(1.92263 0.0799013 2.50604e-08)
(1.92987 0.00601407 -3.14226e-14)
(1.9258 0.0530439 5.58921e-07)
(1.91973 0.0396581 6.13339e-13)
(1.91124 0.0812069 4.20382e-07)
(1.89611 0.0496415 -3.31253e-08)
(1.88756 0.0280919 -7.50653e-14)
(1.88339 0.0466704 1.41398e-07)
(1.8662 0.0591724 -4.67251e-07)
(1.84403 0.00797439 -1.7351e-14)
(1.82316 0.0877935 2.16564e-07)
(5.24815 0.413881 4.40195e-08)
(5.32926 0.221364 -2.82193e-07)
(7.18456 0.107325 3.17301e-07)
(7.16292 0.0979077 -3.08882e-07)
(7.15618 0.0547413 -1.3584e-06)
(7.16397 0.082164 2.2234e-07)
(6.94703 0.244808 -1.24304e-06)
(6.94521 0.093026 -1.91036e-06)
(7.02203 0.0723726 2.71333e-08)
(7.05928 0.0886062 2.49857e-07)
(7.15371 0.100788 7.08976e-08)
(7.13228 0.0424545 -1.04024e-08)
(7.10509 0.0489418 5.21743e-08)
(7.1867 0.00148926 3.01364e-07)
(6.92616 0.0667987 -1.1538e-06)
(7.18512 0.000475996 1.77686e-07)
(7.0666 0.0324212 -1.91763e-07)
(7.14499 1.54782e-09 8.11436e-12)
(7.12171 0.00601736 -1.15295e-06)
(6.9245 0.0435485 5.91381e-07)
(6.95843 0.0301798 1.20295e-06)
(7.09718 0.00220332 2.75884e-07)
(6.98164 0.0563517 -5.88587e-07)
(7.10839 2.02152e-10 8.7191e-13)
(6.95411 0.0645746 3.18829e-07)
(6.83473 0.11529 -9.04156e-07)
(7.11199 0.00290316 -3.98198e-08)
(6.90399 0.0553228 7.4693e-08)
(7.1096 0.0573995 2.96982e-07)
(6.82966 0.0354586 3.01543e-07)
(6.95415 0.022047 2.42243e-07)
(7.01943 0.0123949 -2.36944e-08)
(6.94993 0.119745 -4.98378e-09)
(7.00698 0.0110891 1.24808e-08)
(7.00883 0.00644919 -1.03729e-07)
(7.00375 0.018452 -3.5777e-07)
(6.66313 0.119276 3.2728e-08)
(6.83879 0.0382048 3.30604e-07)
(6.79174 0.034943 7.07311e-07)
(6.60931 0.0783669 -7.52848e-07)
(6.94372 0.0118649 1.1279e-08)
(6.96329 0.0286905 -3.2623e-07)
(6.86888 0.147113 5.37377e-08)
(6.77735 0.0455891 9.98187e-08)
(6.92689 0.0659544 -3.17276e-07)
(6.87033 0.00673165 -5.73649e-10)
(6.69032 0.090445 -2.71401e-07)
(7.07171 0.0235724 -5.57876e-07)
(6.78194 0.0823618 4.36618e-07)
(6.87063 0.0149312 6.71304e-08)
(6.70494 0.0315395 2.72251e-07)
(6.60526 0.0757117 -6.27415e-08)
(6.64086 0.170399 -7.67979e-07)
(6.76523 0.0282502 -3.86433e-07)
(6.84807 0.00437953 -1.5099e-07)
(6.74719 0.0169704 -8.71859e-07)
(6.84573 1.64635e-10 4.75924e-13)
(6.84281 7.77929e-10 -3.77327e-12)
(6.71494 0.0398479 1.81982e-08)
(6.74448 0.0530973 2.36992e-07)
(6.75075 0.0239115 -1.53392e-08)
(6.66943 0.129914 6.80193e-08)
(6.72703 9.88512e-10 -5.93229e-12)
(6.60725 0.116962 -3.71969e-07)
(6.53058 0.0822658 -1.14074e-07)
(6.48907 0.191163 3.30425e-07)
(6.74183 0.0623309 -3.52624e-07)
(6.62466 0.00441353 -9.35343e-07)
(6.59732 0.153333 -4.52233e-07)
(6.67127 0.0009654 -1.88582e-07)
(6.59762 0.0402875 -1.52337e-07)
(6.45591 0.0358801 -3.76288e-07)
(6.61619 0.0202386 9.48186e-08)
(6.61888 0.00291938 -5.52104e-08)
(6.54552 4.11404e-11 1.77819e-13)
(6.64172 0.122733 -1.13391e-06)
(6.47158 0.0488971 -1.81148e-07)
(6.56072 0.0118316 -3.65902e-07)
(6.54462 0.0378129 -1.39209e-07)
(6.30969 0.0824326 4.99399e-07)
(6.50922 0.0100974 -1.14231e-06)
(6.51279 0.0244177 -9.42476e-08)
(6.46862 0.0101159 6.94381e-07)
(6.34826 0.0968247 3.23e-08)
(6.39655 0.0784454 -2.43328e-07)
(6.57131 0.00133618 3.01147e-07)
(6.45686 0.0376828 -7.74589e-08)
(6.44259 0.0461973 -4.43539e-08)
(6.50185 0.00960779 5.07785e-07)
(6.4996 0.0337645 1.47563e-06)
(6.34647 0.0651664 8.89122e-08)
(6.51021 0.0214972 -3.46796e-07)
(6.38667 0.0446964 -4.5151e-08)
(6.37999 0.0319037 -1.47491e-08)
(6.21511 0.217184 -2.61922e-07)
(6.29833 0.0428481 2.86763e-07)
(6.19817 0.112016 -1.11601e-07)
(6.40406 2.82927e-11 1.67879e-13)
(6.408 0.0247977 8.13434e-07)
(6.37678 0.0180313 4.22461e-08)
(6.31881 0.00152793 3.57417e-08)
(6.38108 5.57619e-05 1.99326e-08)
(6.32406 0.00152391 -1.09698e-07)
(6.1848 0.16703 -1.61042e-07)
(6.34314 0.00204554 -8.2885e-08)
(6.1811 0.0490258 -2.19668e-09)
(6.27951 0.0226268 -3.54083e-07)
(6.20978 0.0102301 9.41429e-08)
(6.24718 0.0173126 2.73813e-07)
(6.16966 0.00278629 -3.12744e-07)
(6.05925 0.0762228 -5.41914e-07)
(6.18366 0.0159471 -1.59816e-09)
(6.19747 0.0311685 -4.31876e-07)
(6.17307 0.0169834 6.08771e-07)
(6.14852 1.03609e-10 -4.37485e-13)
(6.06787 0.0473034 -1.96214e-07)
(6.11894 1.75695e-09 7.61099e-12)
(6.05803 0.145812 1.09201e-07)
(6.09767 0.0101379 -1.4304e-07)
(6.0705 0.0159931 -4.13002e-07)
(6.07884 0.0176834 -7.30029e-07)
(6.05102 0.0283282 -4.17552e-10)
(6.10383 3.61019e-10 -2.4593e-12)
(6.09836 0.00123678 4.00204e-07)
(6.00489 0.0211117 -1.49469e-07)
(5.97604 0.042949 -3.03475e-08)
(6.14677 0.136219 -1.05598e-07)
(6.02007 9.37121e-11 -8.02607e-13)
(5.80541 0.0789828 5.7279e-08)
(6.00554 0.0169717 -1.84822e-07)
(5.99446 0.00137813 9.67179e-09)
(5.98088 0.184031 -2.53255e-08)
(5.86844 0.0502995 1.18664e-07)
(5.82748 0.062529 -3.90668e-09)
(5.83374 0.0647908 -1.16365e-06)
(5.75123 0.0601202 -5.99333e-08)
(5.88285 0.0151369 1.8292e-07)
(5.94836 0.128092 8.17958e-08)
(5.9634 0.0981939 2.1468e-07)
(5.90475 9.51129e-10 -3.27921e-12)
(5.69951 0.0834049 -8.1372e-08)
(5.72106 0.0841006 1.6737e-08)
(5.87412 0.00539567 -3.74258e-08)
(5.83103 0.0396051 9.60045e-08)
(5.86214 0.178997 1.38255e-06)
(5.85029 0.000202413 1.42043e-08)
(5.96399 0.0908997 -1.62783e-07)
(5.73695 0.0705404 5.53675e-07)
(5.72744 0.0368769 8.08931e-07)
(5.79031 0.0279295 3.71514e-08)
(5.75118 0.0379308 7.08114e-09)
(5.7884 0.00878046 -6.33125e-08)
(5.78427 0.0230669 -4.63557e-07)
(5.65372 0.066886 4.51758e-08)
(5.71418 0.0700342 7.8093e-07)
(5.67408 0.0572112 -2.41566e-07)
(5.74106 0.00485089 3.72042e-07)
(5.67432 0.0519015 -2.61863e-07)
(5.83153 0.121473 1.78424e-06)
(5.62517 0.0641548 -2.95197e-07)
(5.61377 0.0742296 7.54533e-08)
(5.70925 0.0126498 1.0128e-07)
(5.85811 0.0682021 -1.87846e-07)
(5.68561 0.0145421 6.16747e-08)
(5.63573 0.0388871 4.71721e-07)
(5.82406 0.111086 1.61848e-07)
(5.63422 0.038014 3.97799e-07)
(5.63055 0.0843125 1.15346e-07)
(5.75942 0.138904 5.59331e-08)
(5.83238 0.0791478 1.61865e-06)
(5.64971 0.00397551 -4.58472e-08)
(5.6448 0.00427399 1.53729e-07)
(5.79203 0.0990087 -9.22904e-08)
(5.48443 0.0616939 7.41764e-09)
(5.55218 0.041423 -3.13486e-09)
(5.57834 0.00184129 -1.42101e-07)
(5.6851 0.106667 2.19404e-07)
(5.50695 0.0105886 -2.12656e-07)
(5.46378 0.0356266 -2.95904e-07)
(5.51355 0.0325713 -1.10896e-08)
(5.54418 0.0125316 2.2398e-07)
(5.49741 0.0307375 -3.15967e-07)
(5.51394 0.0216056 -8.13185e-08)
(5.43593 0.0452507 -7.12282e-08)
(5.40555 0.0483176 -5.2797e-08)
(5.49246 4.51454e-11 2.8509e-13)
(5.65398 0.099718 5.63299e-08)
(5.36342 0.0552837 -7.118e-08)
(5.42664 0.0208102 -1.3133e-08)
(5.3547 0.0500449 5.64434e-07)
(5.56385 0.15323 -6.37541e-07)
(5.42691 1.95231e-10 -9.96124e-13)
(5.41182 0.00155228 -1.06761e-07)
(5.40225 0.00138596 7.96628e-08)
(5.37774 0.0397234 -8.48906e-08)
(5.39102 2.95691e-11 5.86206e-14)
(5.58844 0.10841 1.64724e-08)
(5.56845 0.109511 2.0517e-07)
(5.51691 0.0986442 3.95135e-07)
(5.24685 0.0749215 -2.55333e-07)
(5.28375 0.0552734 9.02868e-08)
(5.28401 0.0611102 2.10663e-07)
(5.33778 0.0197752 9.78573e-08)
(5.52502 0.0888924 6.98366e-08)
(5.25992 0.0662244 8.38022e-08)
(5.30152 0.0383592 1.01638e-07)
(5.55518 0.0954312 9.54785e-08)
(5.2029 0.0731972 -2.14086e-07)
(5.47221 0.125538 6.69963e-07)
(5.18156 0.0717678 -1.45053e-07)
(5.2295 0.0422509 7.80159e-08)
(5.2649 0.0100956 -5.91213e-07)
(5.22372 0.0475256 -6.57869e-08)
(5.48631 0.0892176 -4.96242e-08)
(5.46053 0.103052 6.97326e-08)
(5.21146 0.0133063 2.76664e-07)
(5.11832 0.0772949 -9.27388e-08)
(5.19201 0.00441108 1.34567e-08)
(5.18163 0.0541791 8.14978e-07)
(5.13971 0.0481303 -6.9536e-07)
(5.3959 0.108433 -7.90573e-08)
(5.05843 0.0342925 -2.51073e-07)
(5.0403 0.0503233 -6.04897e-08)
(5.05657 0.00786743 2.77848e-07)
(4.98462 0.076277 3.25246e-08)
(5.05426 0.000952732 9.51477e-08)
(5.01572 0.0628132 1.25413e-06)
(5.26156 0.14325 1.71658e-07)
(4.98922 0.0617312 1.63054e-07)
(5.00777 0.0414221 7.33884e-08)
(4.95592 0.0789225 -2.24302e-07)
(5.02176 0.00101764 7.18721e-07)
(4.9931 0.0324067 6.24284e-07)
(4.94087 0.0794443 -2.03929e-07)
(5.22857 0.0761508 -9.61197e-08)
(5.18324 0.193637 4.17224e-08)
(4.91552 0.0703892 3.77819e-08)
(4.97001 0.00977233 -1.74028e-07)
(4.93189 0.0429784 -1.10839e-08)
(4.87629 0.0799167 1.1644e-07)
(4.9405 0.0180503 -2.18359e-08)
(4.90015 0.055853 6.33763e-08)
(4.91722 0.0122278 -1.32565e-06)
(4.90745 6.51316e-12 -5.56992e-14)
(5.14817 0.0884081 -1.51999e-08)
(4.8561 0.0409446 -1.69973e-08)
(4.86679 0.0233973 1.15497e-08)
(4.84617 0.0282327 -1.19349e-07)
(5.13876 0.120988 -2.39873e-07)
(5.13808 0.0889511 3.26125e-07)
(4.81046 0.0297641 -1.93136e-08)
(4.79621 0.0431053 -1.43652e-08)
(4.80895 0.00182871 -1.16998e-07)
(4.80002 0.000169405 -7.91817e-09)
(4.75506 0.057458 -1.44541e-07)
(4.77295 0.0603757 -5.48344e-07)
(5.01939 0.151658 -3.33074e-07)
(4.69813 0.066442 1.61155e-07)
(5.01919 0.151568 -8.49159e-08)
(4.73179 0.0139447 -1.45478e-07)
(4.68407 0.0382232 6.34372e-07)
(4.69718 0.0161826 -6.10903e-08)
(4.68033 0.0455781 4.59665e-08)
(4.63317 0.0635108 9.62455e-07)
(4.67927 0.0125541 -9.35484e-08)
(4.99788 0.113191 3.51781e-08)
(4.96628 0.154198 -4.30399e-07)
(4.62891 0.0346443 2.73321e-07)
(4.97063 0.115626 -8.57733e-07)
(4.61636 0.0523089 -1.21553e-07)
(4.55742 0.0545026 -1.11709e-08)
(4.52556 0.0598948 -1.2941e-07)
(4.53255 0.0495655 6.41023e-08)
(4.8229 0.0891477 -6.77321e-08)
(4.52323 0.0462045 -4.68735e-07)
(4.52271 0.00350058 1.77205e-07)
(4.86428 0.128617 -2.21392e-07)
(4.86349 0.106782 -1.84478e-08)
(4.45368 0.0407125 6.52244e-08)
(4.75486 0.0888846 5.06087e-07)
(4.43432 0.0728025 1.40523e-07)
(4.43964 0.0267171 -1.91366e-07)
(4.42796 0.0755535 2.31854e-07)
(4.43314 0.00852022 1.21426e-06)
(4.43184 0.0122659 -4.74758e-07)
(4.42257 0.0362274 -5.52742e-07)
(4.77726 0.180016 -1.27135e-07)
(4.37633 0.0693304 3.86521e-09)
(4.35748 0.0519874 7.93397e-07)
(4.73723 0.111596 -3.97688e-08)
(8.54589 3.73353e-08 -1.60611e-10)
(8.48741 2.11293e-09 -1.17768e-11)
(8.43055 0.0113697 -7.19721e-07)
(8.45047 3.43112e-09 -1.28573e-11)
(8.37709 0.055272 -1.80879e-06)
(8.44913 8.20618e-09 4.04741e-11)
(8.45306 6.67965e-07 7.93252e-10)
(8.41158 0.104431 7.24647e-07)
(8.42452 0.0268695 3.08359e-08)
(8.34492 0.0181632 -1.47142e-07)
(8.3436 0.00262866 1.08871e-07)
(8.36174 0.000386556 -3.67626e-08)
(8.36081 0.000380989 -8.73995e-09)
(8.28183 0.0118211 1.27399e-06)
(8.27875 0.00079374 -3.69819e-10)
(8.25782 7.20449e-09 -3.04442e-11)
(8.22906 0.0654494 1.79064e-07)
(8.22147 1.03067e-09 -4.01261e-12)
(8.26308 0.025753 -3.57149e-07)
(8.19378 2.9231e-09 -1.12268e-11)
(8.1556 0.080623 1.47189e-07)
(8.18348 0.00448736 -3.96828e-07)
(8.14512 0.0432185 1.28524e-06)
(8.17168 0.00874149 7.51639e-08)
(8.13884 7.6306e-06 -1.1062e-08)
(8.14552 6.43392e-09 2.3845e-11)
(8.14479 0.0124548 6.16027e-07)
(8.18018 2.02628e-08 4.35055e-11)
(8.0997 0.0054272 1.02534e-06)
(7.96581 0.119458 5.05088e-07)
(8.11307 2.67817e-09 -6.78082e-12)
(8.09937 0.0212517 -2.57221e-08)
(8.0925 0.0208874 1.36056e-07)
(8.06725 0.0651226 -2.91794e-07)
(8.04958 0.0670667 -2.53891e-07)
(8.08572 2.25954e-09 -1.44208e-11)
(8.04581 0.0498048 3.80396e-07)
(8.02007 0.00724892 -4.99056e-07)
(7.99402 3.82778e-09 -1.03083e-11)
(7.99255 0.0451928 1.27542e-07)
(7.97902 0.027973 -1.96549e-07)
(7.97887 0.0114219 -4.84889e-07)
(7.97105 0.00771185 4.56997e-07)
(7.94613 0.0134194 2.05541e-08)
(7.95285 0.028217 4.01696e-07)
(7.87621 0.122713 2.52172e-07)
(7.95529 0.0669253 -5.70985e-07)
(7.89951 0.069267 -3.03789e-07)
(7.89909 0.108449 -1.30558e-06)
(7.82429 0.10973 3.66752e-09)
(7.88191 0.0157599 -2.99414e-09)
(7.77454 0.110543 -1.35404e-07)
(7.86635 3.04236e-09 -2.57555e-11)
(7.82327 0.0393412 9.32548e-07)
(7.82314 0.0465203 2.65713e-07)
(7.79034 0.0368559 3.37988e-07)
(7.80999 0.0188366 -1.14859e-07)
(7.78315 0.0667746 -2.77144e-07)
(7.73859 0.0391091 1.59448e-07)
(7.67796 1.34493e-10 1.4464e-13)
(7.73699 0.025422 6.52885e-07)
(7.7183 7.68415e-08 -6.27777e-11)