/*--------------------------------*- C++ -*----------------------------------*\
  =========                 |
  \\      /  F ield         | OpenFOAM: The Open Source CFD Toolbox
   \\    /   O peration     | Website:  https://openfoam.org
    \\  /    A nd           | Version:  7
     \\/     M anipulation  |
\*---------------------------------------------------------------------------*/
FoamFile
{
    version     2.0;
    format      ascii;
    class       scalarField;
    location    "0.1225/lagrangian/reactingCloud1";
    object      d;
}
// * * * * * * * * * * * * * * * * * * * * * * * * * * * * * * * * * * * * * //


952
(
2e-07
2e-07
2e-07
2e-07
2e-07
2e-07
2e-07
2e-07
2e-07
2e-07
7.79944e-07
2e-07
2e-07
2e-07
2e-07
2e-07
2e-07
2e-07
2e-07
2e-07
2e-07
2e-07
2e-07
2e-07
2e-07
2e-07
2e-07
2e-07
2e-07
2e-07
2e-07
2e-07
2e-07
2e-07
2e-07
2e-07
2e-07
2e-07
2e-07
2e-07
2e-07
2e-07
2e-07
2e-07
2e-07
2e-07
2e-07
2e-07
9.1723e-07
2e-07
2e-07
2e-07
2e-07
2e-07
2e-07
2e-07
2e-07
2e-07
2e-07
2e-07
2e-07
2e-07
2e-07
2e-07
2e-07
2e-07
2e-07
2e-07
2e-07
2e-07
2e-07
2e-07
2e-07
2e-07
2e-07
2e-07
2e-07
2e-07
2e-07
2e-07
2e-07
2e-07
2e-07
2e-07
2e-07
2e-07
2e-07
2e-07
2e-07
2e-07
2e-07
2e-07
2e-07
2e-07
2e-07
2e-07
2e-07
2e-07
2e-07
2e-07
2e-07
2e-07
2e-07
2e-07
2e-07
2e-07
2e-07
2e-07
2e-07
2e-07
2e-07
2e-07
2e-07
2e-07
2e-07
2e-07
2e-07
2e-07
2e-07
2e-07
2e-07
2e-07
2e-07
2e-07
2e-07
2e-07
2e-07
2e-07
2e-07
2e-07
2e-07
2e-07
2e-07
2e-07
2e-07
2e-07
2e-07
2e-07
2e-07
2e-07
2e-07
2e-07
2e-07
2e-07
2e-07
2e-07
2e-07
2e-07
2e-07
2e-07
2e-07
2e-07
2e-07
2e-07
2e-07
2e-07
2e-07
2e-07
2e-07
2e-07
2e-07
2e-07
2e-07
2e-07
2e-07
2e-07
2e-07
2e-07
2e-07
2e-07
2e-07
2e-07
2e-07
2e-07
2e-07
2e-07
2e-07
2e-07
2e-07
2e-07
2e-07
2e-07
2e-07
2e-07
2e-07
2e-07
2e-07
2e-07
2e-07
2e-07
2e-07
2e-07
2e-07
2e-07
2e-07
2e-07
2e-07
2e-07
2e-07
2e-07
2e-07
2e-07
2e-07
2e-07
2e-07
2e-07
2e-07
2e-07
2e-07
2e-07
2e-07
2e-07
2e-07
2e-07
2e-07
2e-07
2e-07
2e-07
2e-07
2e-07
2e-07
2e-07
2e-07
2e-07
2e-07
2e-07
2e-07
2e-07
2e-07
2e-07
2e-07
2e-07
2e-07
2e-07
2e-07
2e-07
2e-07
2e-07
2e-07
2e-07
6.9869e-07
2e-07
2e-07
2e-07
2e-07
2e-07
2e-07
2e-07
2e-07
2e-07
2e-07
2e-07
2e-07
2e-07
2e-07
2e-07
2e-07
2e-07
2e-07
2e-07
2e-07
2e-07
2e-07
2e-07
2e-07
2e-07
2e-07
2e-07
2e-07
2e-07
2e-07
2e-07
2e-07
2e-07
2e-07
2e-07
2e-07
2e-07
2e-07
2e-07
2.02965e-06
1.48146e-06
1.52978e-06
3.83861e-06
8.06925e-07
1.5546e-06
1.58107e-06
8.75037e-07
1.30266e-06
1.16223e-06
2.0888e-06
1.02364e-06
2.2539e-06
2e-07
1.96241e-06
2e-07
2e-07
2e-07
2e-07
2e-07
2e-07
1.65886e-06
2e-07
2e-07
2e-07
2e-07
5.44948e-07
2e-07
2e-07
5.09878e-06
2e-07
1.02593e-06
2e-07
2e-07
8.46048e-07
2e-07
2e-07
2e-07
2e-07
2e-07
2e-07
2e-07
2e-07
2e-07
6.70371e-07
2e-07
2e-07
2e-07
2e-07
9.16972e-07
1.09614e-06
8.29653e-07
2e-07
2.05532e-06
2e-07
2e-07
2e-07
2e-07
2e-07
2e-07
2e-07
2e-07
2e-07
2e-07
2e-07
2e-07
2e-07
2e-07
2e-07
2e-07
2e-07
2e-07
2e-07
2e-07
2e-07
2e-07
2e-07
1.80243e-06
2e-07
2e-07
2e-07
2e-07
2e-07
2e-07
2e-07
2e-07
2e-07
2e-07
2e-07
2e-07
2e-07
2e-07
2e-07
2e-07
2e-07
2e-07
1.0761e-06
2e-07
9.28308e-07
2e-07
2e-07
2e-07
8.22937e-07
2e-07
2e-07
2e-07
2e-07
2e-07
2e-07
1.1118e-06
2e-07
2e-07
2e-07
2e-07
2e-07
2e-07
2e-07
2e-07
2e-07
2e-07
2e-07
2e-07
2e-07
2e-07
2e-07
2e-07
1.81981e-06
2e-07
2e-07
2e-07
2e-07
1.76723e-06
2e-07
1.03204e-06
2e-07
2e-07
2e-07
2e-07
2e-07
2e-07
2e-07
2e-07
2e-07
2.13051e-06
2e-07
2e-07
2e-07
2e-07
2e-07
2e-07
2e-07
2e-07
2e-07
2e-07
2e-07
2e-07
2e-07
1.86475e-06
2e-07
2e-07
2e-07
6.32649e-07
2e-07
2e-07
1.45006e-06
2e-07
2e-07
2e-07
2e-07
2e-07
2e-07
2e-07
6.99033e-07
2e-07
2e-07
1.13077e-06
2e-07
1.31875e-06
2e-07
2e-07
2e-07
2e-07
2e-07
1.02318e-06
2e-07
2e-07
2e-07
2e-07
2e-07
2e-07
1.44799e-06
2e-07
2e-07
1.74473e-06
2e-07
1.02452e-06
2e-07
2e-07
2e-07
2e-07
2e-07
2e-07
2e-07
2e-07
2e-07
9.56937e-07
2e-07
2e-07
2e-07
2e-07
2e-07
2e-07
2e-07
2e-07
2e-07
2e-07
2e-07
2e-07
2e-07
2e-07
2e-07
2e-07
2e-07
2e-07
2e-07
2e-07
2e-07
2e-07
2e-07
2e-07
2e-07
2e-07
2e-07
2e-07
2e-07
2e-07
2e-07
2e-07
2e-07
2e-07
2e-07
2e-07
2e-07
2e-07
2e-07
2e-07
1.79556e-06
2e-07
8.72976e-07
2e-07
2e-07
2e-07
2e-07
2e-07
2e-07
2e-07
2e-07
2e-07
2e-07
2e-07
2e-07
2e-07
2e-07
2e-07
2e-07
2e-07
2e-07
2e-07
2e-07
2e-07
2e-07
2e-07
2e-07
7.10298e-07
1.00831e-06
2.15485e-06
2.38609e-06
1.01726e-06
1.81238e-06
1.11336e-06
2.07733e-06
2.22545e-06
1.72034e-06
2.39565e-06
2e-07
4.70304e-06
2e-07
2.16717e-06
2e-07
2e-07
2e-07
2e-07
2e-07
2e-07
2e-07
5.46319e-07
2e-07
1.18995e-06
1.79707e-06
2e-07
1.13367e-06
3.2434e-06
2.75693e-06
2e-07
2e-07
2.52089e-06
2e-07
2e-07
2e-07
1.94034e-06
2e-07
2e-07
2.31251e-06
2e-07
2e-07
1.95895e-06
2e-07
4.31656e-06
2e-07
1.65583e-06
3.41383e-06
2.80488e-06
2e-07
2e-07
1.84979e-06
2.74399e-06
2e-07
2e-07
2e-07
2e-07
2e-07
2e-07
2e-07
2e-07
2.09206e-06
2e-07
2.78456e-06
1.59884e-06
1.26812e-06
2.97024e-06
2e-07
1.86807e-06
2e-07
2e-07
2e-07
2e-07
2e-07
2e-07
2.2584e-06
2e-07
2e-07
2e-07
2.17112e-06
2e-07
2e-07
2e-07
1.55048e-06
1.05164e-06
2e-07
2e-07
2e-07
2e-07
2e-07
1.03752e-06
2e-07
2e-07
2e-07
2.93684e-06
2e-07
1.7832e-06
2e-07
2e-07
2e-07
3.70759e-06
2e-07
2e-07
1.80926e-06
2e-07
2e-07
2e-07
2e-07
2e-07
2e-07
5.97961e-07
2e-07
2e-07
2e-07
2e-07
2e-07
2e-07
1.52072e-06
2e-07
2e-07
2e-07
2e-07
2e-07
2e-07
2e-07
2e-07
1.86433e-06
2e-07
1.69293e-06
2e-07
2e-07
2.07243e-06
2e-07
2e-07
2e-07
2e-07
2e-07
1.67811e-06
2.5764e-06
2e-07
8.71519e-07
1.53156e-06
2e-07
2e-07
1.51128e-06
2e-07
2.24519e-06
2.5717e-07
2e-07
2e-07
2e-07
2e-07
2e-07
2e-07
2e-07
2e-07
2e-07
2e-07
1.81701e-06
2e-07
5.26873e-07
2e-07
3.04914e-06
2e-07
2e-07
3.07649e-06
2e-07
2.08935e-06
1.69129e-06
2.73092e-06
2e-07
2e-07
2.34214e-06
2e-07
2e-07
2e-07
2.3565e-06
2e-07
2e-07
2e-07
2e-07
2e-07
2e-07
2e-07
2e-07
2e-07
2.58353e-06
2e-07
2e-07
2e-07
2.2016e-06
2e-07
2e-07
2e-07
2e-07
2e-07
2.58422e-06
1.84976e-06
1.88812e-06
9.93435e-07
2e-07
2e-07
2e-07
2.32767e-06
2e-07
2e-07
2.86261e-06
2e-07
2.95538e-06
2e-07
2e-07
2e-07
2e-07
2.73158e-06
2.72918e-06
2e-07
6.76336e-07
2e-07
2e-07
2e-07
1.94981e-06
2e-07
2e-07
2e-07
2e-07
2e-07
2e-07
1.7652e-06
2e-07
2e-07
2e-07
2e-07
2e-07
2e-07
2.47451e-06
8.9161e-07
2e-07
2e-07
2e-07
2e-07
2e-07
2e-07
2e-07
2e-07
2.08423e-06
2e-07
2e-07
2e-07
2.15652e-06
2.44763e-06
2e-07
2e-07
2e-07
2e-07
2e-07
2e-07
1.27607e-06
2e-07
7.4951e-07
2e-07
2e-07
2e-07
2e-07
2e-07
2e-07
2.26488e-06
1.28384e-06
2e-07
1.1622e-06
2e-07
2e-07
2e-07
2e-07
1.19637e-06
2e-07
2e-07
1.51099e-06
1.08973e-06
2e-07
9.42988e-07
2e-07
2e-07
2e-07
4.02952e-06
2e-07
2e-07
2.09925e-06
2e-07
2e-07
1.54434e-06
1.6742e-06
1.61843e-06
1.57916e-06
1.57994e-06
1.95373e-06
1.56766e-06
1.56695e-06
1.7896e-06
1.50216e-06
1.61578e-06
1.47724e-06
1.48201e-06
1.47985e-06
1.46461e-06
1.39991e-06
1.38065e-06
1.55296e-06
1.33462e-06
1.49499e-06
1.30788e-06
1.71622e-06
1.28759e-06
1.53611e-06
1.27462e-06
1.24863e-06
1.24676e-06
1.23979e-06
1.27127e-06
1.19662e-06
1.94243e-06
1.20171e-06
1.36227e-06
1.35904e-06
1.88495e-06
2.14046e-06
1.16236e-06
1.65699e-06
1.096e-06
1.05249e-06
1.38756e-06
1.38039e-06
1.00051e-06
9.97778e-07
9.52144e-07
1.16877e-06
2.14599e-06
2.28079e-06
1.55068e-06
1.63043e-06
2.49251e-06
8.28553e-07
2.91914e-06
7.95894e-07
2.51684e-06
1.33476e-06
1.74806e-06
1.17645e-06
1.58416e-06
1.08309e-06
2e-07
8.1814e-07
3.66846e-07
1.44637e-06
7.76279e-07
3.95209e-07
3.08773e-07
2.65014e-06
3.08773e-07
4.07456e-07
2e-07
8.48688e-07
2e-07
9.89695e-07
2.23261e-06
2e-07
1.42075e-06
2.37373e-06
4.29797e-06
2e-07
1.44602e-06
2e-07
3.71041e-06
2.19732e-06
2.66701e-06
5.89036e-07
2e-07
1.09932e-06
2.48887e-06
8.62548e-07
2e-07
2.31237e-06
1.50043e-06
2.31485e-06
2e-07
1.6828e-06
3.25173e-06
2.99484e-06
1.22491e-06
2e-07
2e-07
2.70464e-06
2e-07
1.48807e-06
2e-07
5.42072e-07
2e-07
1.08363e-06
2e-07
2e-07
)


// ************************************************************************* //
