/*--------------------------------*- C++ -*----------------------------------*\
  =========                 |
  \\      /  F ield         | OpenFOAM: The Open Source CFD Toolbox
   \\    /   O peration     | Website:  https://openfoam.org
    \\  /    A nd           | Version:  7
     \\/     M anipulation  |
\*---------------------------------------------------------------------------*/
FoamFile
{
    version     2.0;
    format      ascii;
    class       labelField;
    location    "0.1225/lagrangian/reactingCloud1";
    object      origId;
}
// * * * * * * * * * * * * * * * * * * * * * * * * * * * * * * * * * * * * * //


952
(
679
683
665
684
581
682
686
687
685
691
681
695
689
698
688
700
667
701
696
704
690
707
694
709
702
711
708
693
705
678
697
710
718
713
721
692
720
714
706
717
727
715
726
699
734
716
728
725
712
723
731
739
736
735
722
741
742
879
880
883
884
885
886
887
888
889
890
891
892
893
894
895
896
897
898
899
900
901
902
903
904
905
906
907
908
909
910
911
912
913
914
915
916
917
918
919
920
921
922
923
924
925
926
927
928
929
930
931
932
933
934
935
936
937
938
939
940
941
942
943
944
945
946
947
948
949
950
951
751
815
800
827
829
830
831
832
833
834
836
837
838
840
839
841
842
835
843
846
847
845
828
848
809
822
850
851
849
852
853
856
855
854
858
859
857
861
860
862
863
806
865
864
866
826
867
869
868
870
871
873
872
844
875
874
877
878
876
882
881
591
768
776
780
777
779
784
762
782
789
790
792
794
788
795
793
785
791
796
781
797
677
786
802
804
799
801
803
805
783
798
808
811
810
787
816
812
778
817
818
813
819
807
821
823
824
814
825
676
820
630
703
719
730
740
743
738
747
745
749
752
748
746
733
750
744
757
754
732
758
755
760
756
761
759
765
766
769
753
737
729
773
772
764
774
771
775
724
770
763
767
357
364
377
183
400
388
389
320
402
381
420
421
405
422
403
439
365
443
415
435
444
418
446
442
432
425
429
326
450
350
423
438
436
393
449
452
457
451
424
445
431
458
437
462
397
456
407
461
465
460
447
433
448
427
466
469
470
468
464
474
475
473
481
455
482
476
467
440
485
487
453
471
488
490
489
463
491
246
477
479
494
495
500
493
498
501
486
506
492
505
484
508
499
510
497
480
472
441
454
516
502
514
396
509
521
518
517
526
513
478
530
520
522
536
535
532
511
525
524
537
527
503
529
528
541
345
483
545
544
549
534
504
512
507
459
539
533
523
543
519
551
546
553
416
552
554
550
556
540
531
555
564
561
426
566
515
542
496
558
560
538
559
573
557
563
575
578
577
572
571
570
567
568
569
579
548
587
565
580
583
586
590
592
585
598
589
574
593
597
596
562
584
599
576
606
547
594
600
595
607
612
605
608
603
610
588
615
582
613
609
604
621
619
620
622
616
624
627
618
625
623
633
614
629
602
628
636
637
631
638
617
626
635
634
644
601
632
650
651
643
648
647
646
645
656
655
611
659
639
642
657
660
658
652
662
640
664
661
669
653
649
663
654
672
668
671
666
670
675
673
674
680
641
234
187
85
78
116
119
53
128
127
129
19
143
106
152
103
144
148
147
140
151
139
130
137
166
154
161
158
156
100
160
135
159
121
149
142
172
167
163
138
141
177
176
125
169
99
157
186
108
132
188
171
184
113
185
195
178
164
162
191
192
196
111
181
112
198
86
92
170
150
209
203
189
180
206
205
165
216
221
168
174
182
218
197
210
219
217
175
222
124
233
220
202
231
226
61
229
201
200
237
225
204
244
235
146
248
247
238
208
257
256
252
259
249
227
245
215
264
9
263
267
271
270
253
213
236
269
194
278
190
279
266
173
250
268
275
262
289
153
214
282
284
265
283
290
228
293
241
285
286
297
287
211
240
258
292
280
301
296
109
273
294
307
224
310
306
212
303
255
261
207
281
295
223
288
316
312
243
317
302
324
315
318
328
304
314
329
193
308
334
313
232
325
309
336
337
305
254
272
251
327
323
333
344
260
330
347
239
338
242
298
351
352
356
199
179
335
332
340
322
355
63
371
354
339
359
319
370
276
358
362
346
274
342
373
277
321
372
383
382
343
369
379
368
384
311
374
394
376
48
299
395
380
390
386
349
360
291
387
230
406
392
375
404
378
391
331
341
413
363
409
414
399
410
361
417
419
348
353
430
367
385
411
401
398
434
428
300
408
412
366
0
4
3
12
1
17
7
11
16
8
22
20
31
26
35
33
24
32
56
38
42
10
40
37
23
46
39
47
15
30
62
45
49
44
29
43
34
52
6
60
36
72
68
74
69
41
2
66
64
5
80
25
76
55
57
21
82
81
79
67
73
97
91
83
96
54
70
88
87
89
77
51
117
14
123
65
28
50
120
84
101
18
75
27
110
114
94
71
90
93
58
122
102
107
105
13
59
98
145
134
104
136
95
155
118
133
126
115
131
)


// ************************************************************************* //
