/*--------------------------------*- C++ -*----------------------------------*\
  =========                 |
  \\      /  F ield         | OpenFOAM: The Open Source CFD Toolbox
   \\    /   O peration     | Website:  https://openfoam.org
    \\  /    A nd           | Version:  7
     \\/     M anipulation  |
\*---------------------------------------------------------------------------*/
FoamFile
{
    version     2.0;
    format      ascii;
    class       scalarField;
    location    "0.1225/lagrangian/reactingCloud1";
    object      tTurb;
}
// * * * * * * * * * * * * * * * * * * * * * * * * * * * * * * * * * * * * * //


952
(
0.00052635
0.006277
0.00083155
0.006253
0.00076435
0.00203555
0.00226781
0.00224065
0.001157
0.00184355
0.0014832
0.006013
0.0022727
0.005941
0.00044855
4.635e-05
0.00071432
2.235e-05
0.00068955
0.005797
0.00062235
0.005725
0.0017785
0.005677
0.00196524
0.005629
0.000589
0.000858
0.002038
0.00078335
0.00176008
0.00174158
0.005461
0.00167127
0.005389
0.00165501
0.005413
0.00166864
0.00072905
0.0017285
0.005245
0.00142835
0.001002
0.00057985
0.005077
0.0006617
0.0012995
7.605e-05
0.00043985
0.0008922
0.00123108
0.004957
0.00107628
0.00118233
0.00043655
0.004909
0.004885
0.0003845
5.88449e-05
0.001573
0.001549
0.001525
0.001501
0.001477
0.001453
0.001429
0.001405
0.001381
0.001357
0.001333
0.001309
0.001285
0.001261
0.00126062
0.001237
0.001213
0.001189
0.001165
0.001141
0.001117
0.001093
0.001069
0.001045
0.001021
0.000997
0.000973
0.000949
0.000925
0.000901
0.000877
0.000853
0.000829
0.000828625
0.000805
0.000781
0.000757
0.000756625
0.000733
0.000709
0.000685
0.000661
0.000637
0.000613
0.000589
0.000565
0.000541
0.000517
0.000493
0.000469
0.000445
0.000421
0.000397
0.000373
0.000349
0.000325
0.000301
0.000277
0.000253
0.000229
0.000205
0.000181
0.000157
0.000133
0.000109
8.5e-05
6.1e-05
3.7e-05
1.3e-05
0.000113346
0.00077455
0.00082605
0.002869
0.000315121
0.000121613
0.002773
0.002749
0.002725
0.002701
0.002653
0.002629
9.55e-05
0.002557
0.002581
0.002533
0.002509
0.00156105
0.002485
0.002413
0.00241262
0.002437
8.85e-06
0.002389
0.0009727
0.00182035
0.002341
0.002317
0.000941513
0.002293
0.00229262
0.002221
0.002245
0.00169305
0.002173
0.002149
0.00162108
0.002101
3.5e-06
0.002077
0.002053
0.0002302
0.002005
0.002029
0.001981
0.0011527
0.001957
0.001909
0.001933
0.001885
0.001861
0.001813
0.001837
0.00129435
0.001765
0.001789
0.001717
0.001693
0.00116505
0.001597
0.001621
0.000346
0.000297151
0.004069
0.003973
0.00016105
5.65e-05
0.003877
0.000496188
4.30034e-05
0.00378062
0.003757
0.003709
0.003661
0.003781
0.003637
0.003685
0.00023619
0.003733
0.003613
0.00252367
0.003589
4.45732e-05
0.0006415
0.003469
0.003421
0.003541
0.003493
0.003445
0.003397
0.0001762
0.000963512
0.003325
0.003253
0.003277
0.0025197
0.003133
0.003229
0.0022682
0.003109
0.003085
0.003205
0.003061
0.0001497
0.003013
0.002965
0.002941
0.000839847
0.002917
6.12e-05
0.003037
0.000607
0.000298
0.0003982
0.00109655
0.0010293
0.004861
0.00124722
0.004765
0.00075735
0.004717
0.004645
0.00047555
0.000884
0.00367557
0.000644168
0.0010782
0.004525
0.004597
0.0004842
0.004501
0.00062829
0.004453
0.000635015
0.004429
0.0005715
0.004333
0.004309
0.004237
0.000546549
0.00049235
0.000482611
0.004141
0.004165
0.0023572
0.004117
0.004189
0.004093
0.000360346
0.000255799
0.0011631
0.0005262
0.00146285
0.0008522
0.0046792
0.0002797
0.0039635
0.0051432
0.0033887
0.003834
0.0012352
0.0038132
0.0023892
0.0004187
0.003947
0.00120105
0.0030647
0.0009307
0.00341571
0.00294085
0.002316
0.000326133
0.00065005
0.0025972
0.00346852
0.0002702
0.001928
0.00487412
0.0034542
0.004221
0.00400852
0.0023287
0.00387805
0.00304735
0.00255335
0.00801225
0.00275405
0.0021942
0.00320172
0.00753155
0.0052942
0.00237485
0.0021675
0.004461
0.0007645
0.00133805
0.00447485
0.00587405
0.00179155
0.00246605
0.00364616
0.00107024
0.00449185
0.0026932
0.00668635
0.00347955
0.004269
0.00354733
0.0016927
0.004221
0.00049005
0.0006042
0.004053
0.0034405
0.00202677
0.0021837
0.00324662
0.00210135
0.0032117
0.00304581
0.00253126
0.003765
0.00359705
0.00092435
0.003741
0.003693
0.00077635
0.0025487
0.00433135
0.0001817
0.00217355
0.000897714
0.00425935
0.00423535
0.0009727
0.0017
0.005549
0.00278029
0.00580455
0.00028205
0.00558235
0.00268575
0.00065255
0.010429
0.00277455
0.010381
0.00089355
0.00078405
0.000128
0.000757723
0.00054685
0.00181677
0.000642
0.00020035
0.00101085
0.00297405
0.00108981
0.0064775
0.001754
0.0015753
0.00186112
0.000566087
0.009925
0.00112555
0.00190005
0.00197262
0.00596051
0.000823316
0.0005832
0.00609285
0.00178472
0.0019415
0.0042517
0.000857
0.000407508
0.0008802
0.00153902
0.0031375
0.0009917
0.00305935
1.02e-05
0.000416814
0.00164855
0.00411755
0.0028895
0.00539155
0.0024312
0.00120955
0.00084605
0.00152485
0.00291585
0.0057308
0.00357435
0.00219253
0.00156009
0.00090105
0.0001715
0.00539801
0.0027452
0.005247
0.0012955
0.00151255
0.00505955
0.009109
0.004069
0.00309705
0.009061
0.00195455
0.0003785
8.7e-05
0.0051736
0.00292678
0.0018987
0.0013697
0.00238735
0.00093055
0.00117535
0.00233935
0.00032
0.00229135
0.00166685
0.00224055
0.0057827
0.00052085
0.00112835
0.0011452
0.000298181
0.0041007
0.00205135
0.00353055
0.0005227
0.000212069
0.0012257
0.004432
0.00042655
0.002878
0.008293
0.00233706
0.00135435
0.00453
0.00247035
0.00407555
0.00197835
0.00186735
0.00432211
0.0017632
0.008101
0.002766
0.00174106
0.00153926
0.0046325
0.002965
0.007957
0.0014097
0.0011787
0.002863
0.00373955
0.00287605
0.007885
0.0008952
0.002813
0.00135472
0.0016837
0.007741
0.00194235
0.00633833
0.007717
0.00115185
0.007669
0.007621
0.0016102
0.00254855
0.0010015
0.007477
0.00200285
0.002461
0.003775
0.00142828
0.007405
0.007381
0.003643
0.000189
0.00047435
0.00061905
0.00350424
0.00214035
0.007213
0.00103855
0.0026512
0.007069
0.007045
0.000545739
0.00127035
0.00309368
0.00145017
0.0034435
0.006925
0.00110235
0.0014752
0.006853
0.00038735
0.00024205
0.00105435
0.00032335
0.00282419
0.000911506
0.00027535
0.00173129
0.001613
0.001091
0.006613
0.00160321
6.435e-05
0.00287585
0.00126855
0.006541
0.00079035
0.006565
0.000307735
0.001477
0.006469
0.00067035
0.001373
0.006349
0.00035555
0.0082317
0.00703
0.0047265
0.0031977
0.005541
0.00384385
0.00392855
0.0009242
0.00417935
0.00147885
0.0066552
0.0044502
0.00572385
0.00517885
0.00085935
0.000602701
0.0048962
0.0043662
0.00082155
0.00524085
0.0027665
0.00053885
0.00172105
0.00659953
0.00033235
7.805e-05
0.00359197
0.00525735
0.0007592
0.0050155
0.0020967
0.0027532
0.00512455
0.00347135
0.00463471
0.00502118
0.00622255
0.00547435
0.00227255
0.0041402
0.00141205
0.00636796
0.00277905
0.0055602
0.0052032
0.00285233
0.00490505
0.0001097
0.0002915
0.00257765
0.00509435
0.00159985
0.0057417
0.00612767
0.001666
0.00114271
0.00189751
0.000764496
0.0058342
0.0056162
0.004414
0.0053442
0.00214712
0.0029065
8.85e-06
0.00145064
0.0053837
0.000706012
0.00427785
0.0014165
0.0031687
0.0031577
0.00193
0.002402
0.00131701
0.005727
0.00517035
0.0024307
0.0046437
0.0007517
0.0019327
0.00544012
0.00300035
0.0043957
0.0055612
0.00042935
0.001065
0.00548135
0.00227257
0.00151585
0.00440035
0.00442021
0.00326985
0.00264255
0.00665285
0.00519419
0.00382285
0.002979
0.00280355
0.0052825
0.000652208
0.000122994
0.0004247
0.00216305
0.00102872
0.0049132
0.00033685
0.00573235
0.00037205
0.000478
0.00125185
0.00304335
0.00424925
0.0010032
9.42259e-05
0.00511255
0.0011805
0.0047337
0.0011912
0.0044332
0.001454
0.0042292
0.00324518
0.000331091
0.00486335
0.005149
0.0055212
0.00194171
0.0029517
0.00041185
0.00351631
0.0022572
0.00219555
0.00306655
0.0011832
0.002812
0.00494461
0.00192635
0.00177635
0.0056017
0.00443535
0.00533605
0.00248365
0.00284555
0.00049385
0.000978203
0.00497585
0.00126785
0.0017905
0.00270905
0.0024207
0.00151562
0.0026687
0.00366505
0.00050405
0.00444385
0.00483724
0.0045077
0.0001487
0.00293835
0.00345535
0.0029492
0.00211005
0.00146085
0.000301
0.0055552
0.00511385
0.0041497
0.00353755
0.0005375
0.00568472
0.00088885
0.00185955
0.00332085
0.00493385
0.000903706
0.00113785
0.00591354
0.00495405
0.00165605
0.004124
0.00170635
0.00564417
0.00179085
0.00400235
0.000837212
0.0002125
0.00339505
0.00233359
0.00323685
0.00031305
0.00137922
0.0018662
0.00669977
0.001343
0.0028032
0.0045655
0.00046185
0.0007815
0.001998
0.00482235
0.00275135
0.0058635
0.00212455
0.00272035
0.0046207
0.0007805
0.0038202
0.000278
4.5e-06
0.00200255
4.77e-05
0.00301169
0.0008427
0.00244305
0.0056907
0.001353
0.004326
0.00386085
0.0044982
0.00223855
0.0033592
0.0033155
0.0031912
0.000324
0.00134221
0.0020092
0.00119935
0.00291285
0.0027087
0.00231385
0.00329305
0.0035597
0.00459508
0.0026695
0.0034925
0.00381635
0.0027345
0.00069105
0.0029975
0.00204075
0.00218605
0.00657305
0.000615154
0.0035237
0.00324405
0.0004457
0.001426
0.00238705
0.00362235
0.0046748
0.0037177
7.67e-05
0.00101559
0.0001547
0.00361835
0.00092405
0.00222685
0.00133185
0.00268205
0.0023062
0.00627555
0.00281635
0.00373055
0.00417785
0.00027805
0.00529805
0.00489523
0.00289235
0.0021642
0.0020442
0.00294305
0.00246721
0.00460635
0.000169
0.00862766
0.00478905
0.00311285
0.0016387
0.00073385
0.0036987
0.00262105
0.00330605
0.00494055
0.0025567
0.00163401
0.00122555
0.00085555
0.0031757
0.00437435
0.00108186
0.0077317
0.00571199
0.0064672
0.0016762
0.00705064
0.0010682
0.0028007
0.0038962
0.00458535
0.00474986
0.00445053
0.00058726
0.00068885
0.0061712
0.000842533
0.0048397
0.00686171
0.00607836
0.0024887
0.0057472
0.005887
0.00011685
0.0048202
0.0035442
0.00223085
0.00663635
0.001258
0.0005875
0.00669085
0.00642813
1.5e-06
0.0021157
0.00713135
0.0072387
0.00618131
0.00567935
0.000924497
0.000614333
0.0034587
0.00044455
0.0069335
0.0064192
0.00294188
0.00087305
0.0045702
0.00545805
0.005154
0.00214655
0.0044187
0.00398855
0.00290585
0.004438
0.0026462
0.006028
0.00397435
0.00123605
0.00560034
0.00507113
0.0018297
0.0028442
0.00128849
0.0045712
0.00430042
0.0020827
0.00331993
0.00644455
0.00293505
0.0036609
0.00171689
0.00223471
0.000675205
0.00264335
0.00796985
0.006002
0.00385155
0.00639335
0.00203127
0.00295128
0.0044017
0.00507
0.00482185
0.00123155
0.00490735
0.00704208
0.00059035
0.00258605
0.00278485
0.00400485
0.000357084
0.00587205
0.005099
0.00238905
0.00490757
0.00529185
0.004043
0.0039692
0.00310885
0.004115
0.00690355
0.0045882
0.00197598
0.00413805
0.00587303
0.0014827
0.00181985
0.0053417
0.00057285
0.0006402
)


// ************************************************************************* //
