/*--------------------------------*- C++ -*----------------------------------*\
  =========                 |
  \\      /  F ield         | OpenFOAM: The Open Source CFD Toolbox
   \\    /   O peration     | Website:  https://openfoam.org
    \\  /    A nd           | Version:  7
     \\/     M anipulation  |
\*---------------------------------------------------------------------------*/
FoamFile
{
    version     2.0;
    format      ascii;
    class       vectorField;
    location    "0.1225/lagrangian/reactingCloud1";
    object      U;
}
// * * * * * * * * * * * * * * * * * * * * * * * * * * * * * * * * * * * * * //


952
(
(439.608 -2.13977 2.62472)
(441.018 -0.0228814 2.53226e-06)
(393.312 8.38125 8.76705)
(440.885 -0.0301753 -2.04997e-07)
(382.589 5.4829 -6.77554)
(445.5 -4.53295 12.7226)
(441.486 -2.55709 1.43784)
(438.121 2.55788 10.4686)
(386.175 3.96565 -4.97566)
(442.947 -4.43668 -0.65932)
(380.596 8.2763 -12.1631)
(440.102 -0.0617984 -2.66943e-05)
(438.736 -12.2765 -1.0714)
(440.076 -0.0497816 -1.33845e-05)
(430.373 2.53162 -4.38601)
(440.111 10.253 -5.11905)
(381.545 17.0805 2.51238)
(436.434 -5.52699 4.33834)
(415.012 -0.15986 0.279381)
(440.079 -0.0216172 -4.82632e-07)
(416.385 0.905409 -1.70716)
(439.967 -0.00664479 2.01321e-08)
(428.979 -3.61778 3.93141)
(439.977 0.00351341 6.23231e-07)
(435.982 -1.048 -1.15551)
(440.043 0.00532278 -1.29089e-05)
(441.312 -1.05703 -2.05604)
(388.574 0.52788 -0.985613)
(433.114 -12.9191 9.39646)
(410.052 1.90075 1.14785)
(449.23 -10.1647 -7.45614)
(435.979 -6.3622 -3.49885)
(439.732 0.0414298 -1.82758e-05)
(435.891 -2.21084 2.01154)
(439.415 0.122562 -1.99527e-05)
(434.052 -4.85644 6.81491)
(438.684 0.272749 -3.88286e-06)
(432.477 -0.0689756 -0.191861)
(372.01 8.83526 0.537068)
(430.702 0.747294 1.17221)
(438.775 0.337215 -9.65229e-07)
(431.242 -13.3642 -6.5219)
(437.176 0.774786 0.0313609)
(380.082 5.95353 0.900956)
(438.393 0.114487 -9.18651e-06)
(391.208 0.288226 -1.96509)
(434.859 1.04327 -0.0290991)
(423.22 0.368896 0.415991)
(354.125 1.20573 0.309822)
(426.959 -0.658845 -0.216874)
(432.094 1.34042 -4.77226)
(435.91 1.19515 -3.10572e-05)
(434.379 1.59854 -0.168137)
(433.945 -0.318785 -0.907082)
(419.825 1.92552 -7.80049)
(434.862 1.39399 -4.37802e-06)
(434.51 1.41255 -8.33335e-06)
(127.646 15.9356 4.70694)
(59.6449 0.0359977 -1.55888)
(129.616 8.47838 0.000311321)
(132.742 2.75391 1.03145e-05)
(114.195 26.5973 -0.000900066)
(124.97 20.6233 0.000710754)
(131.52 13.9722 -0.00184277)
(134.799 10.4537 -0.000223276)
(130.452 21.4578 0.00106979)
(137.66 9.01007 0.000332212)
(138.476 10.7563 5.4971e-06)
(126.807 31.8612 4.99323e-05)
(135.737 26.8692 0.000127647)
(142.689 5.18972 -3.69968e-05)
(144.003 7.11293 -7.35409e-05)
(145.063 16.3727 -0.000220751)
(145.089 4.18184 -0.000107598)
(145.913 25.4093 -0.000582775)
(148.817 16.1436 -0.000269886)
(150.226 26.1959 -0.000183118)
(149.657 6.57945 -0.000585938)
(154.849 25.299 -0.000518411)
(157.295 21.3021 -0.00114858)
(158.176 25.8911 -0.000432352)
(161.147 24.8736 -0.000547141)
(157.098 9.67423 -5.97309e-05)
(163.064 14.3217 -0.000810714)
(155.146 0.610857 -4.78273e-07)
(157.58 5.36899 -0.000373217)
(158.299 4.78818 -6.56727e-05)
(162.194 7.8626 -7.0296e-05)
(165.178 8.65334 -0.000634679)
(167.051 8.43501 -0.00296693)
(162.139 5.10088 1.42108e-05)
(169.53 7.38583 -0.00049041)
(162.08 4.36703 2.87519e-05)
(169.672 6.58608 -0.000214716)
(169.054 5.12077 0.00100846)
(167.623 4.75628 5.04718e-05)
(165.633 4.31107 5.13132e-05)
(163.413 3.04947 2.15109e-05)
(166.251 3.5975 7.43947e-05)
(166.532 3.25394 -0.000235905)
(167.315 1.49446 0.00178269)
(167.463 1.82333 0.000715197)
(165.488 2.26936 -7.80091e-05)
(166.771 1.69746 -0.000967338)
(166.866 0.586086 -9.27971e-05)
(164.289 1.23104 -3.89812e-05)
(165.924 1.46084 -6.15661e-05)
(166.319 1.03596 -9.59186e-05)
(164.894 1.12292 5.42108e-05)
(166.343 0.399789 0.000371225)
(166.199 0.251169 0.00042722)
(165.344 0.95558 0.000178618)
(165.966 0.604717 1.44541e-05)
(165.832 0.654865 0.000241191)
(165.926 0.348247 0.000508079)
(83.6101 -0.118426 3.42267e-06)
(158.437 -0.199274 -3.24359e-05)
(165.61 0.634161 0.000130137)
(165.759 0.219304 0.000581491)
(165.48 0.601386 -2.86581e-05)
(165.556 0.604665 -4.32107e-05)
(165.431 0.117796 1.1114e-05)
(165.471 0.222747 1.5839e-06)
(127.165 -0.131366 -0.000159213)
(165.565 0.57052 -2.78954e-06)
(165.575 -0.0225091 0.00012414)
(165.589 0.528734 1.5022e-05)
(165.572 0.510062 -5.89117e-07)
(25.9808 -8.56619 -3.34132)
(78.3069 -8.81106 0.209948)
(88.0352 -20.9085 -3.3899)
(107.95 -16.0136 0.00055332)
(108.915 -17.4527 5.43775)
(104.996 -12.751 -1.86175)
(109.641 -14.7599 -0.000115429)
(109.735 -14.2235 0.00260328)
(112.602 -13.7511 -0.000193157)
(107.29 -13.271 -0.000190966)
(118.705 -10.6115 0.000126667)
(122.11 -8.07278 -4.42295e-05)
(89.3826 -8.9775 5.36343)
(121.977 -5.996 0.0010683)
(111.002 -10.5933 0.00227744)
(114.98 -8.46654 0.000196934)
(119.326 -6.25014 0.000750327)
(91.1913 -13.6609 1.43456)
(102.223 -8.9639 0.00279512)
(116.864 -4.98773 5.03146e-05)
(119.798 -3.60119 0.000735335)
(103.024 -7.77953 8.63108e-05)
(51.4897 0.960598 -0.0319569)
(116.955 -4.40578 5.66459e-05)
(96.0248 -21.9348 -2.41766)
(87.0413 -13.2541 -5.94095)
(116.025 -3.8553 0.000116084)
(114.559 -3.66816 0.00016414)
(74.3059 1.05915 -7.50249)
(106.802 -4.19976 0.000611346)
(106.39 -4.19546 0.000599429)
(112.134 -1.94401 0.000202609)
(93.5463 -2.10272 0.00322118)
(92.0823 -5.60485 -4.1216)
(110.638 -0.971813 8.63027e-05)
(112.472 -0.406371 0.00022585)
(96.8002 -7.00009 -11.1198)
(118.344 0.270876 2.29258e-06)
(92.6813 2.44103 -0.0284628)
(116.017 0.946872 1.81615e-05)
(112.978 1.71629 1.85121e-05)
(36.8279 6.61357 -2.86874)
(113.948 2.81127 8.18407e-06)
(107.214 3.33928 0.000224404)
(117.323 2.66311 4.74472e-05)
(98.2276 -3.23625 5.20898)
(98.0483 7.05442 5.51423e-05)
(116.919 4.62704 -3.38965e-05)
(102.392 7.63551 0.000112199)
(123.785 0.579211 8.74206e-05)
(116.969 6.06569 0.000602362)
(116.795 7.75716 0.000285917)
(108.253 10.1146 -7.3568e-05)
(81.8603 4.48869 -9.55126)
(119.466 8.093 0.000334651)
(113.104 10.606 -0.000155732)
(111.358 14.9484 -0.000182327)
(114.647 14.5329 0.00344198)
(92.3858 18.5348 0.505289)
(131.375 1.25917 7.58707e-05)
(120.34 15.3989 -0.000477429)
(81.7084 -23.8324 6.74279)
(336.088 -11.2407 -0.411348)
(350.912 -7.03745 0.000557154)
(340.541 -6.52036 -0.0014804)
(326.912 -20.2534 -1.78273)
(337.036 -18.4649 8.08898)
(314.12 -12.3481 -0.00212651)
(47.3936 -13.7144 -1.22058)
(287.309 -35.1664 -0.492555)
(287.877 -14.2472 0.000314479)
(261.748 -28.5699 -0.00136863)
(252.601 -25.1065 -0.000137617)
(252.954 -14.8411 -0.000872887)
(231.24 -43.6889 0.000663226)
(242.242 -16.7782 0.000354829)
(232.865 -31.968 0.000111409)
(208.15 -48.2199 -0.6059)
(221.242 -41.0846 0.000556905)
(238.709 -13.6772 0.000111207)
(201.016 -53.3579 -8.14128)
(217.072 -26.0423 0.000171188)
(29.0832 -10.1204 -4.41931)
(175.203 -51.6581 3.30385)
(190.772 -24.4195 0.000113597)
(195.887 -9.58354 0.0002101)
(164.729 -36.6921 0.0001235)
(166.13 -34.6361 -0.000462534)
(169.666 -30.7829 0.000633044)
(175.035 -24.5858 0.000523581)
(36.9956 -9.00988 0.901192)
(153.431 -36.4236 -0.638383)
(174.593 -16.1557 0.00141049)
(166.843 -14.2077 -5.2416e-06)
(163.181 -19.752 0.000773732)
(152.237 -45.4598 -14.8345)
(156.918 -8.51561 0.000630856)
(142.489 -25.9436 2.04237e-05)
(122.206 -36.9043 -1.3823)
(153.708 -9.00664 -2.97575e-06)
(149.033 -12.5989 -2.69371e-05)
(129.862 -26.563 0.00256558)
(142.682 -15.7843 0.00102241)
(110.23 -22.4167 -3.42134)
(139.969 -14.7513 -2.14227e-05)
(140.797 -9.95741 0.000197655)
(141.216 -6.74606 0.000280489)
(115.49 -23.0165 0.275468)
(135.684 -11.4882 -6.73719e-05)
(46.8063 -8.6832 0.0447493)
(114.9 -20.7349 -0.00172318)
(38.2619 -7.06335 3.34239)
(363.328 3.50916 -2.19016)
(384.27 7.14407 -9.146)
(430.453 -0.791774 -11.1436)
(435.653 4.29046 1.85069)
(433.586 1.54874 -5.65391e-06)
(424.696 0.901514 0.945051)
(432.13 1.39923 -5.54368e-07)
(422.4 -10.4498 8.3853)
(430.618 1.3521 5.51195e-05)
(429.824 0.765728 6.96079e-05)
(438.543 7.55677 -11.204)
(428.794 1.06522 0.250855)
(423.472 -10.4116 -2.64656)
(427.083 -3.3485 -0.220949)
(410.936 2.26273 -0.108581)
(423.278 0.537162 1.85369e-06)
(421.705 1.10853 5.52216e-06)
(381.001 3.67451 -5.56712)
(418.167 0.529709 0.000113942)
(416.518 -1.76704 13.0568)
(416.678 0.251749 0.000330436)
(414.457 -7.38241 4.26778)
(408.869 -0.310745 0.000135353)
(419.135 -3.41467 -2.24234)
(405.224 -0.470879 0.000273959)
(401.968 -0.623875 -6.43366e-05)
(395.812 -0.344726 -0.000164023)
(381.365 -3.19359 0.437334)
(347.522 4.15805 -2.00422)
(371.005 -0.503599 -6.3703)
(380.834 -0.852691 -6.35206e-05)
(380.142 -1.56445 -0.000377226)
(384.272 -20.2438 -4.65443)
(376.354 -1.0878 0.00058866)
(376.354 -3.08736 -5.33151e-05)
(373.478 -0.979865 -0.00021874)
(358.125 -6.94732 -0.00752654)
(367.1 -3.64678 1.38729)
(364.997 -9.4424 1.72869)
(360.154 -0.119571 3.66634)
(372.989 0.93245 5.09755)
(338.507 14.559 -16.8943)
(377.214 6.02876 -8.68767)
(371.098 5.49441 6.61722)
(383.054 8.90483 -2.42108)
(348.454 9.55149 5.61517)
(387.119 0.564392 20.156)
(345.567 -0.748275 0.210326)
(385.131 1.19384 -1.69442)
(326.15 18.1361 16.8462)
(407.34 -10.9894 2.7611)
(333.979 -6.48657 4.41701)
(374.834 2.39599 -1.94853)
(410.382 0.956287 4.26236)
(386.617 -2.3106 0.165416)
(420.72 9.90586 -6.72236)
(442.554 -0.00521856 -0.00479492)
(445.844 -3.39792 -3.63021)
(374.02 -2.88333 -2.65221)
(437.986 -2.56233 -9.25564)
(416.686 -0.698273 0.379291)
(355.737 10.7366 14.8502)
(436.535 0.936467 -0.990384)
(440.58 0.459437 0.774565)
(403.718 8.27354 -1.98086)
(439.361 -8.11308 -2.6492)
(384.326 10.8166 8.41346)
(442.282 0.321134 -1.28088)
(433.188 -1.01415 2.62017)
(441.986 -0.00397259 0.0286188)
(403.591 1.2389 -2.7245)
(391.679 9.43918 -3.36511)
(420.795 -2.15452 -3.07337)
(440.667 -8.3948 -2.7581)
(382.598 10.7926 -23.6858)
(413.04 2.42316 -6.93191)
(427.386 4.72092 4.84169)
(436.159 -5.23727 -11.5248)
(433.891 -9.20596 7.15304)
(411.512 -0.757534 -0.215174)
(440.771 0.00254144 -0.255682)
(435.983 -2.88223 0.672057)
(441.791 0.897628 -0.736767)
(442.02 -0.157904 0.0832864)
(347.251 -2.61457 -6.30678)
(443.194 -8.66052 6.29561)
(400.289 8.35704 22.6068)
(468.637 -19.7234 5.75708)
(439.976 -2.51672 -1.26978)
(331.422 -4.32324 -1.99692)
(329.112 13.5708 -3.51557)
(393.686 6.35451 -1.78391)
(434.794 -9.77751 0.268186)
(348.92 8.31861 5.1986)
(429.212 -0.371141 -0.255506)
(451.861 -7.31716 3.34706)
(439.953 1.34368 1.4521)
(431.982 -0.559014 0.553316)
(418.192 -0.469427 -0.756445)
(418.279 2.25633 -4.03346)
(436.373 -1.51713 -0.860609)
(415.537 1.01967 -6.90676)
(449.322 -3.06643 2.80237)
(409.992 -0.505692 -0.0345504)
(439.247 0.471773 1.77349)
(412.709 1.6439 -1.10826)
(401.607 -0.17037 -0.115576)
(414.421 1.22362 0.727485)
(439.488 -0.623421 5.77324)
(434.062 0.384737 0.192674)
(437.487 -10.6102 -6.71998)
(428.815 -3.52263 2.46749)
(413.461 4.71466 -2.79117)
(436.005 -0.204465 0.892493)
(428.711 -0.0194557 -0.948439)
(421.604 -8.29213 -3.89648)
(432.712 0.0751273 -0.214172)
(332.428 6.83976 4.07424)
(408.656 -0.256748 -0.571881)
(444.736 1.63979 -1.59804)
(434.53 -1.36057 -1.87501)
(438.024 -1.79773 3.03944)
(445.022 4.93613 4.23516)
(424.428 0.382711 0.213528)
(440.455 -3.55294 -0.21313)
(431.542 4.46234 1.58469)
(439.871 -9.48145 8.56875)
(446.989 -0.101581 9.75713)
(440.385 -12.9805 13.3196)
(433.336 -0.223229 1.85626)
(449.559 -5.48444 8.31861)
(443.005 -0.00348156 -9.20025e-08)
(429.132 -1.12219 -1.21819)
(442.973 -0.0308421 -1.31279e-06)
(365.843 15.4917 -21.6101)
(398.331 -11.4569 3.50078)
(336.382 6.13491 6.81757)
(443.324 0.0467744 -0.157792)
(345.019 -2.43417 -12.6174)
(435.047 0.442808 0.208165)
(445.617 0.00542485 0.26434)
(429.572 -8.03234 -0.88668)
(328.381 1.87364 -0.503164)
(422.712 -5.73686 -2.13241)
(440.141 -5.71018 -1.15837)
(455.406 -9.7853 4.44839)
(432.349 -2.34104 -1.66977)
(448.778 -5.94833 1.53747)
(429.273 1.76955 1.19285)
(349.989 1.39231 3.58981)
(442.967 -0.0288822 1.72406e-06)
(425.786 -12.1911 1.40264)
(399.354 0.839148 -5.06269)
(442.109 -1.08705 -0.84373)
(457.646 -8.199 -7.37722)
(427.605 3.30639 0.0244348)
(429.373 -4.24275 0.287049)
(430.039 -5.23146 -2.00799)
(442.956 0.000240795 0.0122123)
(436.26 2.32169 -1.44274)
(430.434 -10.9905 3.62534)
(390.235 0.119756 2.33936)
(451.998 8.35608 -2.03933)
(422.372 -2.18667 -1.54057)
(444.932 0.629135 0.93435)
(415.382 -2.43792 0.0845083)
(366.941 8.80906 -4.81575)
(435.49 -0.228059 -0.0967858)
(442.265 9.07953 7.48078)
(443.661 1.75432 -0.0676885)
(412.608 -1.56854 5.24112)
(355.975 4.48604 1.7276)
(382.896 -0.963385 14.6876)
(345.576 7.90237 3.21857)
(402.094 -1.83605 -6.13203)
(385.617 5.14489 -3.80955)
(421.77 1.49945 -0.803843)
(402.59 2.68693 -9.86605)
(418.598 -1.4361 5.2726)
(433.298 -10.8421 13.6181)
(436.141 -0.334782 -0.142143)
(424.529 -0.629756 -0.671939)
(441.799 -0.173334 1.60777)
(368.37 -1.22367 -2.19032)
(437.425 -0.49644 -0.907972)
(450.918 -4.57793 4.15674)
(454.799 -8.98812 -7.93483)
(448.201 -3.86459 -0.507262)
(442.981 -18.8566 2.88588)
(398.731 -1.16391 -0.904675)
(433.783 -6.09191 2.66886)
(442.795 -0.00120989 -4.52754e-06)
(445.302 -6.49923 1.71302)
(434.181 -10.3977 -1.42882)
(442.851 0.000960735 -4.75036e-06)
(426.718 -0.170052 1.10805)
(399.424 4.53904 6.71098)
(368.247 -1.17726 4.00849)
(451.167 -9.21934 2.38531)
(421.371 -3.53331 -1.30552)
(409.534 -1.99875 1.73123)
(371.79 16.1806 4.28506)
(440.906 -1.23619 5.76551)
(437.542 -6.96163 4.65008)
(386.265 0.527168 0.308138)
(435.957 -7.69934 9.67463)
(441.79 -5.21673 -2.16284)
(445.112 -3.95951 6.41414)
(413.862 5.23467 -14.1681)
(422.044 -2.9429 -3.26757)
(461.251 -13.7264 4.00492)
(410.36 8.54987 -1.5883)
(380.475 30.6063 -7.58569)
(413.955 -3.44477 13.0818)
(440.183 0.000702093 -0.0356073)
(361.026 10.5893 2.72733)
(441.173 0.484259 -0.0813678)
(368.357 7.73585 23.3509)
(401.7 14.8821 3.59908)
(444.241 0.00237421 0.100717)
(415.591 0.398841 -15.682)
(438.923 -8.29029 -1.69943)
(416.284 2.149 -11.5207)
(374.282 8.2195 7.25426)
(442.516 -0.00934422 -6.05321e-06)
(408.124 1.06706 -1.29212)
(404.373 0.696489 -0.321938)
(443.656 -7.94067 0.948092)
(420.085 6.78118 -8.41149)
(438.243 -3.9221 -2.076)
(360.453 1.80186 -3.16356)
(395.368 -3.94267 -16.0358)
(440.329 -3.46286 0.798919)
(408.743 -5.86132 -0.732531)
(442.387 -0.008225 -2.01552e-05)
(330.724 16.1611 -21.3382)
(432.389 0.00636569 1.10441)
(417.399 -0.238007 6.69177)
(431.63 -6.83405 -3.66903)
(435.128 0.578554 2.47435)
(442.597 0.00596694 -8.81135e-06)
(425.391 -2.52465 3.24213)
(424.809 -8.37219 -4.40739)
(434.165 -9.60065 -4.24009)
(443.691 -6.89146 3.16669)
(356.112 13.5724 -8.63437)
(442.365 0.00149403 -2.62047e-05)
(390.491 0.303656 -3.21861)
(442.339 -2.10304 1.5765)
(440.422 -6.15947 9.1796)
(430.137 -3.37875 -10.9586)
(442.406 0.00873598 -2.52707e-06)
(440.509 0.776493 2.66353)
(454.45 -11.7221 3.81306)
(442.028 -0.00387978 -8.182e-05)
(424.158 0.461613 5.49772)
(442.197 0.00594791 1.75076e-07)
(442.526 0.000838306 -1.96887e-07)
(405.609 3.52223 4.48163)
(439.146 -1.2877 0.0413407)
(433.928 -3.77925 0.843875)
(442.434 0.0019256 -5.52726e-07)
(438.792 -8.0563 -18.9487)
(436.194 -5.95315 1.90543)
(458.284 -19.2042 6.02635)
(412.072 7.95311 6.69485)
(441.85 -0.00738341 -6.75726e-06)
(442.022 -0.000483502 -5.80611e-06)
(440.462 -7.4765 -3.10453)
(443.722 -8.29053 -8.82278)
(440.398 -24.0419 7.41635)
(398.577 4.33831 0.547259)
(444.203 -13.3124 -6.86228)
(443.869 -6.08516 9.15681)
(441.859 0.00520931 -1.45243e-05)
(406.749 -4.69129 4.42451)
(422.18 -8.76144 1.34938)
(441.976 0.00943223 -1.42365e-07)
(442.077 0.00708078 -5.27781e-07)
(435.991 -1.41407 -2.39738)
(440.147 -0.443456 -0.133496)
(437.664 -5.32986 -2.02393)
(399.383 4.10074 5.484)
(444.225 -10.6511 -11.3403)
(441.518 -0.000122213 -3.17101e-06)
(440.663 -0.740267 0.394433)
(358.045 5.28587 3.62771)
(441.686 0.0101367 -2.43051e-07)
(373.26 0.666312 1.65561)
(372.036 7.92559 -21.1871)
(415.498 -3.14716 -5.03412)
(438.931 0.126509 0.113221)
(440.803 -1.44178 2.58633)
(436.914 -20.6347 16.3257)
(437.517 4.56584 -6.54951)
(418.959 -5.30679 3.17197)
(445.761 -0.122293 12.8884)
(416.817 -0.031074 2.11487)
(441.349 -0.0135833 8.9593e-06)
(397.055 0.27781 1.42728)
(402.65 8.74807 20.9737)
(438.458 -3.92874 -1.63548)
(408.053 0.831593 0.501208)
(441.566 -0.000627314 -6.309e-07)
(429.861 2.74663 11.1784)
(441.17 -0.0301724 1.22221e-05)
(429.062 3.2108 8.40765)
(438.596 -5.81936 -0.662507)
(441.301 -0.0148215 -1.48702e-06)
(440.316 -5.69705 2.82795)
(440.771 3.01361 -9.34503)
(441.302 -0.00334524 -3.46902e-07)
(395.751 -5.66638 4.33128)
(249.34 41.8253 0.88039)
(283.501 9.41754 -5.64386)
(332.494 8.10069 6.34602)
(353.88 -0.701028 -6.17763)
(322.769 3.0868 -27.1679)
(354.108 3.3654 4.4468)
(299.312 7.98191 -24.8607)
(362.948 -16.0488 -38.2072)
(360.635 0.210136 0.542665)
(352.317 4.67955 4.99713)
(353.404 -5.84779 1.41795)
(380.104 -0.326251 -0.208049)
(378.17 1.51347 1.04349)
(385.912 -2.85785 6.02729)
(367.221 -5.37394 -23.076)
(389.307 0.681119 3.55372)
(384.808 -1.90408 -3.83526)
(391.005 0.00127524 0.0654974)
(384.547 -6.58708 -23.059)
(372.775 -4.40613 11.8276)
(354.079 -4.33778 24.059)
(393.357 -5.25983 5.51767)
(375.747 4.45619 -11.7717)
(391.471 0.00062696 0.0263215)
(366.53 -7.97357 6.37657)
(367.701 13.0589 -18.0832)
(396.121 0.792868 -0.796396)
(376.922 -0.382347 1.49386)
(366.443 8.87993 5.93964)
(385.4 -8.8715 6.03085)
(396.569 -1.46985 4.84486)
(393.163 2.9093 -0.473888)
(339.757 6.50789 -0.0996756)
(396.946 2.30108 0.249615)
(397.405 1.34372 -2.07458)
(400.674 0.22682 -7.1554)
(340.044 10.5994 0.654561)
(381.044 -0.124738 6.61209)
(391.711 -10.2496 14.1462)
(357.138 -0.264266 -15.057)
(394.963 -0.705707 0.225579)
(395.949 4.36087 -6.52459)
(326.89 3.14757 1.07475)
(381.3 -1.76549 1.99637)
(366.098 -3.33039 -6.34553)
(398.677 -0.133403 -0.011473)
(355.982 8.17439 -5.42802)
(392.503 3.88616 -11.1581)
(354.438 14.7576 8.73236)
(397.301 5.68352 1.34261)
(388.953 -8.14731 5.44503)
(366.141 -2.03539 -1.25483)
(301.266 12.1483 -15.3596)
(389.516 -0.329155 -7.72867)
(401.455 2.58742 -3.01979)
(399.354 14.6429 -17.4372)
(405.185 0.0153325 0.0873762)
(395.598 0.330574 -0.13226)
(394.275 -2.81854 0.363964)
(387.522 4.32178 4.73984)
(400.787 -3.09826 -0.306784)
(335.054 -0.570964 1.36039)
(407.523 0.00177929 -0.0875656)
(344.857 1.58998 -7.43938)
(371.93 -2.51977 -2.25949)
(307.025 2.19307 6.60849)
(372.659 -10.374 -7.05247)
(409.185 6.18494 -18.7069)
(329.719 4.28105 -9.04465)
(404.099 0.670232 -3.77164)
(391.782 2.15566 -3.04675)
(374.971 -6.19047 -7.52576)
(395.828 4.85425 1.89637)
(405.122 0.590305 -1.10421)
(406.457 0.000513156 0.0422808)
(357.127 6.7919 -22.6782)
(384.21 1.54667 -3.62295)
(399.338 0.417572 -7.31804)
(398.161 3.62812 -2.78418)
(362.067 7.90357 9.98799)
(407.854 -6.99377 -22.8462)
(398.969 -0.532811 -1.88495)
(402.408 -11.4227 13.8876)
(356.806 10.2547 0.646001)
(370.362 6.58238 -4.86657)
(406.767 -12.0306 6.02294)
(396.579 -0.00210433 -1.54918)
(395.825 0.335877 -0.887078)
(399.804 4.13135 10.1557)
(407.321 9.57286 29.5127)
(382.212 2.64815 1.77824)
(411.169 4.66189 -6.93592)
(392.17 2.23289 -0.903019)
(401.839 -0.545067 -0.294983)
(296.675 8.26396 -5.23844)
(393.139 -0.409546 5.73526)
(360.891 11.7027 -2.23203)
(411.918 0.000436283 0.019)
(425.618 -4.73621 16.2687)
(409.609 3.18296 0.844923)
(403.352 1.79443 0.714834)
(415.814 0.332353 5.50569)
(416.678 1.64204 -2.19396)
(303.731 -4.87148 -3.22084)
(412.287 1.97337 -1.6577)
(394.15 -0.249657 -0.0439334)
(417.715 4.28444 -7.08166)
(418.422 -9.56117 1.88286)
(411.266 -4.64545 5.47626)
(421.977 5.60128 -6.25488)
(375.854 16.3222 -10.8383)
(415.179 0.018968 -0.0319632)
(413.758 3.91875 -8.63752)
(435.613 -7.9189 12.1754)
(418.133 0.0021012 -0.119146)
(400.924 -0.921177 -3.92427)
(419.756 -0.045353 0.0113624)
(326.711 0.550865 2.18402)
(422.899 2.78336 -2.8608)
(420.434 -5.96242 -8.26005)
(428.786 -6.20849 -14.6006)
(411.57 -0.479272 -0.00835102)
(423.501 0.00180549 -0.089612)
(435.785 3.48637 8.00409)
(422.639 -11.4445 -2.98939)
(401.927 1.24336 -0.60695)
(344.919 11.2902 -2.11196)
(412.746 0.00119883 -0.0726894)
(368.791 0.561283 1.14558)
(423.645 -2.187 -3.69644)
(424.557 0.385162 0.193436)
(310.465 20.9927 -0.506509)
(396.16 1.72185 2.37327)
(398.355 -4.57018 -0.0781334)
(362.946 16.6701 -23.273)
(382.976 -3.57626 -1.19867)
(415.932 0.864015 3.65839)
(339.792 -2.01488 1.63592)
(348.431 4.01016 4.2936)
(428.484 0.00181524 -0.0746973)
(362.768 7.34912 -1.62744)
(377.515 2.73654 0.334741)
(425.017 -0.798707 -0.748516)
(408.432 0.8791 1.92009)
(283.108 7.28476 27.651)
(428.087 -0.131151 0.284087)
(365.527 2.39265 -3.25565)
(392.372 12.5605 11.0735)
(397.422 -8.18149 16.1786)
(421.38 -3.17565 0.74303)
(413.168 -5.13661 0.141623)
(428.643 5.48545 -1.26625)
(432.477 -5.51762 -9.27116)
(393.578 -3.84127 0.903517)
(366.065 15.2657 15.6186)
(398.39 0.545255 -4.83133)
(425.602 -6.11641 7.44085)
(405.761 -2.80096 -5.23727)
(326.01 -25.9559 35.6848)
(396.879 -3.10257 -5.90394)
(383.68 6.03051 1.50907)
(426.248 4.03021 2.0256)
(364.49 -11.9296 -3.75692)
(425.532 -0.841557 1.2335)
(405.617 -12.5542 9.43443)
(349.428 2.4268 3.23695)
(417.899 -4.59032 7.95599)
(375.238 1.24673 2.30693)
(323.733 15.3779 1.11866)
(370.18 -41.2952 32.373)
(432.277 0.590192 -0.916945)
(432.088 0.920972 3.07458)
(359.393 -1.55596 -1.84581)
(398.41 -5.34151 0.148353)
(418.612 -3.77493 -0.0626978)
(431.408 1.83139 -2.84203)
(343.894 -14.013 4.38809)
(411.094 -3.04137 -4.25313)
(400.035 -5.07987 -5.91809)
(419.436 -0.728189 -0.221792)
(433.596 2.66607 4.4796)
(417.321 -1.39694 -6.31935)
(428.716 -1.47565 -1.62637)
(411.222 -1.76058 -1.42456)
(399.746 -3.13324 -1.05594)
(434.246 0.000893379 0.0429475)
(361.191 -0.97215 1.1266)
(400.661 -1.93961 -1.4236)
(431.307 -4.75867 -0.26266)
(408.979 -8.33222 11.2887)
(326.289 25.8525 -12.7508)
(436.321 -0.084467 -0.0474849)
(438.068 0.668214 -2.13522)
(431.086 -5.02418 1.59326)
(416.107 3.15321 -1.69781)
(428.988 0.000195333 0.0367882)
(353.088 3.36584 0.329448)
(358.072 28.494 4.10339)
(369.27 6.64783 7.90269)
(388.802 -2.42331 -5.10667)
(403.565 -2.6221 1.80574)
(403.036 -1.66678 4.21325)
(430.859 -2.49777 1.95715)
(375.08 -0.867605 1.39673)
(400.977 -1.57517 1.67604)
(416.77 3.8178 2.03277)
(367.355 0.623248 1.90957)
(384.414 4.47187 -4.28173)
(309.428 -11.6472 13.3993)
(390.566 -0.895718 -2.90106)
(415.465 0.219432 1.56032)
(439.605 2.61185 -11.8243)
(414.482 6.36217 -1.31574)
(373.325 -0.580258 -0.992484)
(361.558 -2.04193 1.39465)
(434.675 -11.5432 5.53328)
(388.85 1.35008 -1.85478)
(430.588 -9.98891 0.269134)
(427.693 -4.91472 16.2996)
(417.289 -2.06823 -13.9072)
(357.762 -1.70633 -1.58115)
(420.345 0.0579443 -5.02147)
(411.688 0.124841 -1.20979)
(433.824 2.10164 5.55696)
(389.893 -1.72549 0.650493)
(439.939 0.628065 1.90296)
(409.944 7.82023 25.0827)
(336.176 -4.27076 3.43315)
(408.451 -1.68233 3.26108)
(419.365 0.228461 1.46777)
(385.9 3.95864 -4.48604)
(436.993 -13.9964 14.3744)
(425.183 -13.9622 12.4857)
(382.019 11.4477 -4.07858)
(387.465 -8.70647 -1.92239)
(300.809 40.1203 0.834448)
(398.235 1.52645 0.755639)
(441.506 -0.159706 -3.48057)
(419.871 -1.06519 -0.221677)
(384.94 1.7324 2.3288)
(435.718 -0.846823 -0.436719)
(406.88 1.04265 1.26753)
(445.254 -11.1237 -26.513)
(440.256 8.86048e-05 -0.00695796)
(376.808 -0.613837 -0.303998)
(426.24 -5.70042 -0.339947)
(434.548 -0.012408 0.230994)
(431.844 0.233718 -2.38698)
(355.308 1.45185 -4.79746)
(380.086 -9.38267 6.52249)
(430.729 0.0930598 -0.386273)
(421.703 1.40022 -0.287305)
(437.208 7.55022 -2.33997)
(441.396 0.0454926 -0.158363)
(404.429 6.59291 -2.89082)
(421.395 -6.72528 -10.9669)
(320.911 -14.5811 -6.66148)
(393.733 2.69349 3.2231)
(330.236 -11.733 -1.69832)
(440.09 -0.721818 -1.9834)
(415.817 -6.23547 12.6874)
(435.825 -10.6248 -1.22181)
(423.538 -0.789594 0.91933)
(378.028 -3.78773 19.2491)
(451.108 -14.3392 -1.87097)
(352.297 1.12982 0.703562)
(327.042 17.5863 -8.60797)
(431.891 -0.122943 5.46641)
(365.732 17.3573 -17.1547)
(418.287 1.43329 -2.43106)
(415.476 -0.758179 -0.223419)
(401.684 -4.71873 -2.58821)
(415.976 2.88202 1.28205)
(376.371 2.76404 -1.35464)
(427.117 -0.0155046 -9.3747)
(441.439 -7.02581 3.5441)
(337.894 14.2234 -4.42784)
(366.29 14.6325 -0.368955)
(426.722 -0.972784 1.30449)
(395.368 12.1686 10.1217)
(393.443 -2.99159 2.81045)
(427.64 -4.78052 -3.82732)
(392.478 -1.99362 4.63707)
(429.454 -17.5376 24.2852)
(441.287 -2.71152 -9.49516)
(440.862 -4.83747 -11.0548)
(309.744 6.07065 -2.5427)
(402.271 -2.71958 0.0773042)
(412.972 -8.36464 15.868)
(362.11 8.60545 -0.795376)
(362.999 0.00971039 -0.286115)
(354.849 0.0124395 -0.0411277)
(347.383 1.97622 -14.3944)
(357.687 -0.00437558 -0.052999)
(325.105 7.71771 -36.1758)
(362.932 0.0297688 0.021193)
(356.533 0.0108011 0.270134)
(347.001 21.8792 14.4929)
(372.012 5.14878 0.616717)
(359.783 -1.18237 -2.94285)
(358.77 0.550514 2.17742)
(365.319 0.042452 -0.735252)
(362.457 0.651673 -0.174799)
(355.108 -12.2481 25.4797)
(364.697 0.113048 -0.00739637)
(362.742 0.000914982 -0.0960674)
(359.521 13.5012 3.58127)
(366.451 0.000300687 -0.0166186)
(382.075 4.2356 -7.14299)
(363.808 -0.00482239 -0.0577347)
(350.172 12.2444 2.94379)
(368.637 0.755595 -7.93656)
(358.301 10.0906 25.7048)
(368.154 1.76952 1.50328)
(359.663 0.0636415 -0.51626)
(365.874 0.00277822 0.155998)
(365.891 -2.90779 12.3205)
(375.921 0.00259522 0.218563)
(363.723 8.55094 20.5067)
(304.298 15.7092 10.1018)
(368.604 0.00586773 -0.0307385)
(363.01 -1.65313 -0.526649)
(363.431 2.37734 2.72112)
(357.668 4.97221 -5.83588)
(352.489 2.68396 -5.07782)
(370.932 0.00146894 -0.0406391)
(364.759 4.55382 7.60791)
(352.851 7.81338 -9.98112)
(350.135 -0.012149 -0.147297)
(362.887 10.3644 2.55085)
(370.102 -3.19261 -3.93099)
(371.889 1.64142 -9.69779)
(368.419 1.17171 9.13994)
(367.252 4.52704 0.411082)
(377.624 7.57379 8.03392)
(334.96 12.7261 5.04344)
(389.505 -19.6827 -11.4197)
(356.893 10.8556 -6.07579)
(354.226 26.6709 -26.1117)
(337.459 -0.0137705 0.0733504)
(372.667 -0.219465 -0.0598828)
(317.848 13.024 -2.70808)
(377.997 -0.0919673 -0.0708607)
(363.762 -20.6126 18.651)
(376.907 7.18309 5.31426)
(366.126 -5.01531 6.75976)
(388.651 -8.32443 -2.29718)
(376.679 10.0266 -5.54288)
(361.317 7.4221 3.18897)
(323.468 0.00200896 0.0638854)
(381.452 8.81481 13.0577)
(370.316 0.0202001 -0.789263)
(351.41 13.2572 -5.20566)
(373.307 6.40834 1.08099)
(383.45 0.268294 -10.7816)
(372.534 0.257798 7.67502)
(377.496 -2.98883 -5.09896)
(383.198 -2.32951 -20.7019)
(404.021 0.182168 1.02214)
(374.45 2.48346 1.79269)
(377.727 15.4852 -3.02026)
(343.05 0.0072692 -2.95313)
(357.967 16.3888 1.21781)
(323.275 7.84272 19.6561)
(385.38 0.0580284 2.59413)
(360.016 9.99256 -7.08928)
(353.862 -8.73087 -0.831185)
(387.523 -0.00217431 -0.0358883)
(379.947 0.470674 2.12399)
(361.513 0.906938 -1.48754)
(381.212 0.000317454 0.0145879)
(366.891 -8.72107 -4.518)
(363.925 -18.4672 -8.1595)
(310.419 2.48419 0.192131)
(364.415 4.24323 -7.83845)
(377.044 0.51943 0.885083)
(302.229 60.3454 1.26734)
(325.3 9.12434 -7.70423)
(352.164 3.64799 9.79884)
(389.278 0.000775571 -0.0357824)
(338.681 5.10456 -2.2998)
(344.566 17.5868 -7.96229)
(368.921 -26.7383 27.1252)
(382.227 2.48639 -5.88265)
(368.558 -2.19489 4.87988)
(354.889 -3.56566 0.517445)
(365.292 -7.01564 -9.89275)
(350.593 3.078 11.1992)
(388.816 1.75917 -2.35729)
(385.487 -0.175502 -0.000132733)
(368.448 -14.1381 2.22761)
(388.062 -0.0592696 0.113623)
(352.703 8.26642 -14.8003)
(395.892 0.0337192 0.0403635)
(378.291 12.1063 31.4331)
(382.599 4.96329 -5.14725)
(378.139 0.944029 -4.07171)
(313.042 -8.94253 -13.8392)
(385.686 6.62958 -7.31593)
)


// ************************************************************************* //
