/*--------------------------------*- C++ -*----------------------------------*\
  =========                 |
  \\      /  F ield         | OpenFOAM: The Open Source CFD Toolbox
   \\    /   O peration     | Website:  https://openfoam.org
    \\  /    A nd           | Version:  7
     \\/     M anipulation  |
\*---------------------------------------------------------------------------*/
FoamFile
{
    version     2.0;
    format      ascii;
    class       vectorField;
    location    "0.1225/lagrangian/reactingCloud1";
    object      UTurb;
}
// * * * * * * * * * * * * * * * * * * * * * * * * * * * * * * * * * * * * * //


952
(
(-0.868725 -2.0809 2.62476)
(0 0 0)
(-10.8853 8.93515 8.76706)
(0 0 0)
(3.00783 6.11392 -6.77563)
(5.24837 -4.46267 12.7226)
(2.37476 -2.4213 1.43787)
(5.1094 2.88193 10.4686)
(-2.17981 4.57493 -4.97565)
(3.00876 -4.35649 -0.659276)
(11.6777 8.87909 -12.1634)
(0 0 0)
(-1.41351 -12.2209 -1.07139)
(0 0 0)
(4.96349 2.89725 -4.38597)
(0.498084 10.3151 -5.11903)
(1.63952 17.6546 2.51239)
(-3.10276 -5.47089 4.33839)
(-0.243651 0.256677 0.279561)
(0 0 0)
(1.40534 1.29988 -1.70705)
(0 0 0)
(0.0988928 -3.36733 3.93143)
(0 0 0)
(0.87767 -0.886894 -1.1555)
(0 0 0)
(2.41796 -1.06451 -2.05599)
(-5.16914 0.84009 -0.985498)
(-6.04187 -13.0271 9.39647)
(1.60947 2.0984 1.14823)
(13.7331 -10.1539 -7.45612)
(-2.73434 -6.47839 -3.49881)
(0 0 0)
(-1.51625 -2.38162 2.01163)
(0 0 0)
(-2.65834 -5.11829 6.81501)
(0 0 0)
(0.0316726 -0.296954 -0.191683)
(-0.567973 8.85651 0.53714)
(0.537721 0.303356 1.17237)
(0 0 0)
(-6.81468 -13.8946 -6.52181)
(0.00490483 0.0797426 0.0316693)
(0.353748 5.54045 0.900974)
(0 0 0)
(-0.329283 -0.39346 -1.96501)
(-0.0518801 -0.019534 -0.0290876)
(0.00603962 -0.695205 0.416557)
(-2.61374 0.373882 0.309828)
(2.64236 -1.89716 -0.21635)
(-2.41585 0.0166987 -4.77213)
(0 0 0)
(0.330699 -0.00170263 -0.168133)
(0.429912 -1.97088 -0.907057)
(-5.07305 0.116117 -7.80005)
(0 0 0)
(0 0 0)
(4.37876 1.40903 4.70773)
(-5.70523 -0.183797 -1.55871)
(0 0 0)
(0 0 0)
(0 0 0)
(0 0 0)
(0 0 0)
(0 0 0)
(0 0 0)
(0 0 0)
(0 0 0)
(0 0 0)
(0 0 0)
(0 0 0)
(0 0 0)
(0 0 0)
(0 0 0)
(0 0 0)
(0 0 0)
(0 0 0)
(0 0 0)
(0 0 0)
(0 0 0)
(0 0 0)
(0 0 0)
(0 0 0)
(0 0 0)
(0 0 0)
(0 0 0)
(0 0 0)
(0 0 0)
(0 0 0)
(0 0 0)
(0 0 0)
(0 0 0)
(0 0 0)
(0 0 0)
(0 0 0)
(0 0 0)
(0 0 0)
(0 0 0)
(0 0 0)
(0 0 0)
(0 0 0)
(0 0 0)
(0 0 0)
(0 0 0)
(0 0 0)
(0 0 0)
(0 0 0)
(0 0 0)
(0 0 0)
(0 0 0)
(0 0 0)
(0 0 0)
(0 0 0)
(0 0 0)
(0 0 0)
(0 0 0)
(0 0 0)
(0 0 0)
(0 0 0)
(0 0 0)
(0 0 0)
(0 0 0)
(0 0 0)
(0 0 0)
(0 0 0)
(0 0 0)
(0 0 0)
(0 0 0)
(-10.1061 -2.5065 -3.34186)
(2.38945 2.17471 0.21866)
(3.02346 -10.8648 -3.38943)
(0 0 0)
(3.25747 -2.68439 5.43528)
(-0.123128 1.65074 -1.86186)
(0 0 0)
(0 0 0)
(0 0 0)
(0 0 0)
(0 0 0)
(0 0 0)
(-10.2213 1.66892 5.36291)
(0 0 0)
(0 0 0)
(0 0 0)
(0 0 0)
(1.39174 -6.00657 1.434)
(0 0 0)
(0 0 0)
(0 0 0)
(0 0 0)
(4.14853 -1.92368 -0.0383908)
(0 0 0)
(4.43296 -16.4211 -2.41857)
(-5.89196 -8.9062 -5.94321)
(0 0 0)
(0 0 0)
(-2.39143 2.94585 -7.50246)
(0 0 0)
(0 0 0)
(0 0 0)
(0 0 0)
(3.73718 -3.90825 -4.12325)
(0 0 0)
(0 0 0)
(3.28148 -7.01092 -11.1206)
(0 0 0)
(-0.0911609 0.28787 -0.0316833)
(0 0 0)
(0 0 0)
(2.26043 -0.183175 -2.8831)
(0 0 0)
(0 0 0)
(0 0 0)
(6.7185 -9.56019 5.20817)
(0 0 0)
(0 0 0)
(0 0 0)
(0 0 0)
(0 0 0)
(0 0 0)
(0 0 0)
(-11.8723 -10.2 -9.55195)
(0 0 0)
(0 0 0)
(0 0 0)
(0 0 0)
(-1.89653 -2.85287 0.502018)
(0 0 0)
(0 0 0)
(-0.554303 -0.948253 6.7415)
(1.32099 2.20942 -0.41087)
(0 0 0)
(0 0 0)
(0.969486 -1.4796 -1.7821)
(9.39559 -3.04149 8.0894)
(0 0 0)
(-0.181145 -0.491931 -1.22163)
(-0.163936 2.28936 -0.491782)
(0 0 0)
(0 0 0)
(0 0 0)
(0 0 0)
(0 0 0)
(0 0 0)
(0 0 0)
(4.07279 0.743331 -0.607954)
(0 0 0)
(0 0 0)
(3.35703 -4.11368 -8.14334)
(0 0 0)
(-6.60469 -1.15099 -4.41989)
(6.52864 -8.63076 3.30416)
(0 0 0)
(0 0 0)
(0 0 0)
(0 0 0)
(0 0 0)
(0 0 0)
(0.135317 1.14859 0.898921)
(3.2315 0.66874 -0.637946)
(0 0 0)
(0 0 0)
(0 0 0)
(1.45034 -14.599 -14.8369)
(0 0 0)
(0 0 0)
(-4.76469 -7.07607 -1.38187)
(0 0 0)
(0 0 0)
(0 0 0)
(0 0 0)
(-3.53347 5.79451 -3.42282)
(0 0 0)
(0 0 0)
(0 0 0)
(1.01666 0.573556 0.274724)
(0 0 0)
(1.13764 0.104498 0.0507353)
(0 0 0)
(-1.90009 0.11579 3.34724)
(2.40164 1.72504 -2.18992)
(-3.0087 5.34022 -9.14595)
(0.409256 -2.74102 -11.1435)
(4.04967 2.35848 1.85076)
(0 0 0)
(-2.19256 -1.25408 0.945226)
(0 0 0)
(-7.87167 -12.0607 8.38525)
(0 0 0)
(0 0 0)
(9.40395 5.74782 -11.204)
(0.933103 -0.858108 0.250797)
(-4.74418 -12.0186 -2.64655)
(1.06473 -4.86995 -0.22095)
(-4.66505 0.53344 -0.108618)
(0 0 0)
(0 0 0)
(4.95168 2.59039 -5.56694)
(0 0 0)
(0.00199365 -2.47999 13.0568)
(0 0 0)
(1.83026 -7.62191 4.26773)
(0 0 0)
(11.3517 -3.04935 -2.24309)
(0 0 0)
(0 0 0)
(0 0 0)
(1.14109 0.206848 0.437426)
(-4.06827 7.55976 -2.00394)
(2.67244 3.26267 -6.36932)
(0 0 0)
(0 0 0)
(5.42734 -17.1202 -4.65512)
(0 0 0)
(0 0 0)
(0 0 0)
(-0.0211133 0.0484272 -0.00525485)
(-2.92505 1.48016 1.38685)
(1.06449 -1.98034 1.73092)
(6.916 8.93182 3.66834)
(3.65614 1.45384 5.0975)
(-0.369566 14.4972 -16.8943)
(9.1272 6.52394 -8.68769)
(4.18421 5.9684 6.63009)
(4.33579 9.52601 -2.42122)
(-5.1646 9.77466 5.61513)
(0.141173 1.24395 20.156)
(6.33342 -0.914209 0.21032)
(1.42725 1.83079 -1.69443)
(-13.93 18.0033 16.8462)
(4.98699 -10.4008 2.76114)
(-0.0660233 -6.79501 4.41701)
(-0.0560332 2.94588 -1.94857)
(0.991609 1.47082 4.26233)
(-5.23775 -1.6469 0.165266)
(0.0935591 10.4869 -6.72226)
(0.116644 -0.387757 0.0737648)
(4.12293 -3.4931 -3.63021)
(-39.0886 -2.38942 -2.65217)
(-2.80488 -2.60597 -9.25569)
(1.06266 -0.170779 0.37899)
(4.79611 10.8481 14.8502)
(2.48015 1.28327 -0.990387)
(0.329605 0.454644 0.774699)
(1.815 8.87323 -1.98082)
(-1.10221 -8.1014 -2.64924)
(-1.40035 11.4407 8.41329)
(-0.29662 0.309534 -1.28087)
(-3.82295 -0.778049 2.62062)
(-0.64313 -0.385206 -0.634023)
(-0.101137 1.84036 -2.72448)
(14.0293 10.0056 -3.36513)
(2.76309 -1.676 -3.07354)
(-1.14747 -8.43404 -2.75801)
(-1.79168 11.3982 -23.6863)
(0.480054 2.90475 -6.93191)
(0.249356 5.20243 4.84145)
(-4.83537 -5.19182 -11.5246)
(-5.11576 -9.02027 7.15304)
(-1.18352 -0.259542 -0.215077)
(-1.92091 -0.387426 -3.38084)
(-2.81127 -2.67493 0.672052)
(-0.927561 0.893792 -0.736767)
(-0.338498 -0.18536 0.0832276)
(3.60853 -2.77883 -6.30684)
(3.56363 -8.49339 6.29561)
(3.18318 9.00436 22.6067)
(26.4785 -19.7463 5.75705)
(0.200853 -2.34375 -1.2698)
(-2.35598 -4.75078 -1.99692)
(-4.92715 13.151 -3.51557)
(9.17492 6.94473 -1.78403)
(-7.30506 -9.75388 0.268227)
(-7.43463 8.53632 5.19857)
(-3.545 0.0379736 -0.255506)
(9.46367 -7.32178 3.34699)
(-0.8651 1.46721 1.45225)
(-0.252881 -0.147588 0.553348)
(0.712017 -0.00845531 -0.756444)
(-2.01336 2.68486 -4.03346)
(-1.33289 -1.22122 -0.860584)
(-1.35859 1.50199 -6.90676)
(7.35696 -2.97763 2.80236)
(-0.0368664 0.076921 -0.0345507)
(1.95661 0.771225 1.77352)
(-1.00567 2.17861 -1.10817)
(-1.51377 0.447092 -0.115556)
(-3.30999 1.7118 0.727485)
(-0.116793 -0.396854 5.77326)
(0.126101 0.713315 0.19271)
(1.40235 -10.3107 -6.71994)
(2.72327 -3.13184 2.46758)
(-6.11055 5.19373 -2.79118)
(2.1584 0.11109 0.892474)
(-0.00509077 0.338505 -0.948429)
(5.38676 -7.76752 -3.89645)
(1.06173 0.410353 -0.214157)
(-4.14607 6.40262 4.07424)
(-11.675 0.228812 -0.571885)
(1.76627 1.64602 -1.59804)
(-0.303737 -1.06848 -1.87499)
(2.39507 -1.51487 3.03945)
(2.93245 5.05228 4.23517)
(0.494037 0.817006 0.213524)
(2.02201 -3.32469 -0.213098)
(3.10857 4.83607 1.58487)
(-1.59454 -9.34118 8.56878)
(4.20992 -0.0379521 9.75714)
(-2.53808 -12.9398 13.3196)
(-5.20606 -0.0126144 1.85632)
(13.9773 -5.21643 8.31873)
(0 0 0)
(3.72636 -0.690007 -1.21819)
(0 0 0)
(-23.2432 16.0769 -21.6101)
(-9.85217 -10.8956 3.50079)
(-4.05769 5.74196 6.81736)
(0.305914 0.0470972 -0.157792)
(-1.38058 -2.67878 -12.6174)
(-6.11515 0.571157 0.208201)
(2.59589 -4.45633 -10.8519)
(-2.68334 -7.69553 -0.886575)
(-2.75158 1.29298 -0.503162)
(-11.5658 -5.433 -2.13238)
(-2.47875 -5.64358 -1.15836)
(12.5779 -9.73116 4.44838)
(7.0605 -1.89214 -1.66971)
(6.21369 -5.88355 1.53747)
(0.0408258 2.17795 1.19286)
(0.610816 1.21419 3.5895)
(0 0 0)
(2.15652 -11.7189 1.40264)
(-7.38824 1.37724 -5.06274)
(0.44193 -1.00166 -0.843703)
(15.4787 -8.13518 -7.37721)
(1.02946 3.75121 0.024473)
(-2.76869 -3.87097 0.287053)
(-10.8907 -5.1159 -2.00792)
(-0.0749513 -1.02469 0.628803)
(-2.85967 2.505 -1.44246)
(-11.3525 -10.9129 3.62535)
(-1.69414 0.701498 2.33936)
(8.97477 8.35687 -2.03933)
(4.59147 -1.69923 -1.54062)
(1.90969 0.62997 0.93435)
(-1.44888 -1.94747 0.0845122)
(-3.92039 9.26703 -4.81606)
(-0.377371 0.0597713 -0.0964788)
(10.8951 9.46153 7.48081)
(1.37101 1.7994 -0.0676725)
(5.2863 -1.03389 5.24112)
(-5.54523 4.76795 1.72758)
(-17.5748 -0.403048 14.6875)
(-7.68796 7.78604 3.21857)
(-3.88463 -1.29474 -6.13204)
(-7.20695 5.71965 -3.80956)
(-4.03806 1.93034 -0.803806)
(1.1032 3.24642 -9.8661)
(-1.62139 -0.974608 5.2726)
(-9.34763 -10.8276 13.6181)
(0.0246966 -0.037661 -0.142115)
(-1.04316 -0.201101 -0.671938)
(0.261038 -0.088266 1.60779)
(-1.00269 -0.788643 -2.19034)
(-1.4788 -0.289637 -0.907956)
(10.9126 -4.41674 4.15676)
(16.6486 -8.75009 -7.93483)
(8.69582 -3.68352 -0.507147)
(3.01427 -18.6931 2.886)
(0.130134 -0.602488 -0.904697)
(-8.66628 -6.0655 2.66886)
(0 0 0)
(3.09394 -6.45267 1.71302)
(2.1622 -10.0434 -1.42873)
(0 0 0)
(0.0763016 0.237952 1.10807)
(2.41036 5.1006 6.71098)
(1.30861 -0.77482 4.00873)
(9.64025 -9.12805 2.38532)
(-1.54025 -3.10588 -1.30551)
(-3.3987 -1.5021 1.73123)
(-2.57154 16.669 4.28479)
(0.14621 -1.10681 5.76559)
(5.81198 -6.61198 4.65009)
(3.83055 1.06381 0.307949)
(-6.64077 -7.69219 9.67465)
(-0.621287 -5.19006 -2.16284)
(3.12812 -3.89821 6.41416)
(0.969523 5.73171 -14.1681)
(-4.16296 -2.54785 -3.2675)
(18.4199 -13.7366 4.00492)
(-6.32338 9.01913 -1.58823)
(18.0696 30.9053 -7.58588)
(0.851716 -2.95244 13.0818)
(-2.71084 -3.58424 1.361)
(5.94048 10.4754 2.72732)
(1.12221 0.634545 -0.0812824)
(7.42346 7.99241 23.3509)
(7.52824 15.4311 3.59904)
(1.39841 -9.17059 -4.72464)
(21.234 0.947 -15.682)
(-3.63657 -8.27968 -1.69943)
(-18.1096 2.44045 -11.5207)
(5.02276 8.65364 7.25408)
(0 0 0)
(-1.62669 1.56746 -1.29208)
(-0.264583 1.21764 -0.321922)
(1.45766 -7.92118 0.948092)
(-0.184002 7.21799 -8.41148)
(-3.1001 -3.85014 -2.07599)
(-1.57914 2.10582 -3.16357)
(-1.75461 -3.40454 -16.0359)
(1.05112 -3.29375 0.79892)
(12.5604 -5.32053 -0.732531)
(0 0 0)
(-22.9507 15.8746 -21.3382)
(-2.72316 0.291442 1.10442)
(-3.86457 0.184685 6.69183)
(-9.44759 -6.75299 -3.66896)
(0.575701 0.85392 2.47459)
(0 0 0)
(-5.32084 -2.18593 3.24214)
(-11.349 -8.11209 -4.40737)
(-4.23836 -9.41294 -4.24003)
(1.49134 -6.8822 3.1667)
(0.120171 13.4699 -8.63437)
(0 0 0)
(-4.63234 0.840454 -3.21863)
(1.73987 -2.0009 1.57652)
(4.22222 -5.89807 9.17961)
(-3.32091 -3.08541 -10.9585)
(0 0 0)
(0.453271 0.901019 2.66367)
(12.0863 -11.7302 3.81307)
(0 0 0)
(0.0020314 0.852479 5.49774)
(0 0 0)
(0 0 0)
(2.82835 4.03439 4.48166)
(-0.612845 -1.15972 0.04136)
(1.11029 -3.47915 0.84389)
(0 0 0)
(4.53272 -7.78127 -18.9487)
(-5.3626 -5.93056 1.9055)
(15.9515 -19.2082 6.02635)
(9.75042 8.46749 6.69486)
(0 0 0)
(0 0 0)
(-0.891793 -7.4498 -3.10453)
(2.13332 -8.27835 -8.82273)
(19.631 -23.6391 7.41647)
(-1.39646 4.86326 0.547262)
(2.03111 -13.3198 -6.86228)
(15.3855 -5.74197 9.15682)
(0 0 0)
(0.636313 -4.19367 4.42452)
(-10.6686 -8.46199 1.34939)
(0 0 0)
(0 0 0)
(2.51846 -1.12688 -2.39735)
(-0.242607 -0.369283 -0.133485)
(-3.55874 -5.30472 -2.02393)
(-3.26408 4.61894 5.48402)
(2.74207 -10.6406 -11.3403)
(0 0 0)
(-0.296847 -0.713665 0.394455)
(-3.69163 5.70084 3.62767)
(0 0 0)
(-3.06766 1.22635 1.6556)
(-30.2047 8.45389 -21.1871)
(-25.3785 -3.12364 -5.03396)
(-2.21126 0.1307 0.113225)
(1.80214 -1.29111 2.58637)
(-2.83911 -20.5252 16.3259)
(-3.29435 4.58349 -6.54946)
(-0.0474142 -4.8798 3.17205)
(5.56098 -0.0501318 12.8884)
(-0.501994 0.409002 2.11487)
(0 0 0)
(0.607248 0.837614 1.42727)
(3.59104 9.29899 20.9737)
(0.169835 -3.77149 -1.63539)
(-8.47841 1.27927 0.50121)
(0 0 0)
(-10.443 2.81134 11.1784)
(0 0 0)
(15.3688 3.68051 8.40765)
(-2.00517 -5.7506 -0.662507)
(0 0 0)
(-0.457944 -5.63632 2.82796)
(1.65611 3.13894 -9.34505)
(0 0 0)
(-2.82443 -5.09416 4.33128)
(-0.324796 41.8034 0.88039)
(-2.28495 8.92003 -5.64385)
(-11.2488 8.35237 6.3459)
(4.84347 -0.392492 -6.17766)
(-50.1211 3.52852 -27.168)
(-3.64544 3.74973 4.44677)
(20.0728 7.62623 -24.8607)
(9.13958 -15.6898 -38.2073)
(-4.57787 0.65484 0.542653)
(-2.97671 5.04849 4.99703)
(5.9316 -5.55602 1.41794)
(0.612595 0.102337 -0.208189)
(0.875184 1.96879 1.04345)
(-4.18693 -2.83856 6.0273)
(-2.52493 -4.89922 -23.076)
(-0.843526 0.687267 3.55373)
(-0.808485 -1.5029 -3.83532)
(-0.247162 -0.295334 -1.47495)
(-6.9879 -6.49234 -23.059)
(-10.4397 -3.92386 11.8276)
(-35.111 -3.92205 24.059)
(0.793527 -5.2298 5.51768)
(0.815227 4.93284 -11.7718)
(-0.789344 -0.356618 -0.979968)
(-4.15815 -7.49967 6.37656)
(25.7818 13.2777 -18.0916)
(4.03414 0.83484 -0.796397)
(0.00968671 0.111301 1.49386)
(-6.04433 9.33403 5.9396)
(-4.18634 -8.38944 6.03084)
(3.9205 -1.13341 4.84485)
(-0.560403 3.10617 -0.47389)
(1.14153 6.68953 -0.0996876)
(2.72768 2.48255 0.249612)
(2.58566 1.44813 -2.07459)
(8.23667 0.509241 -7.15543)
(-0.692109 10.7922 0.654537)
(-6.75196 0.360884 6.61182)
(1.09327 -9.76258 14.1462)
(-9.79287 0.224149 -15.057)
(-0.917434 -0.502383 0.225572)
(6.26412 4.76291 -6.52465)
(2.8055 3.13537 1.07475)
(-3.68675 -1.24718 1.99636)
(-4.30553 -2.84946 -6.34556)
(-0.00607038 -0.00673636 -0.0114943)
(-2.19764 8.5792 -5.4282)
(3.21971 4.53898 -11.5051)
(-8.03148 15.2006 8.73211)
(0.254803 5.94837 1.34257)
(-5.52004 -7.66133 5.44496)
(-2.55356 -1.53322 -1.25486)
(-11.5243 11.9763 -15.3596)
(-5.02678 0.115058 -7.72891)
(2.00449 2.67048 -3.0198)
(-0.381442 14.9631 -17.4372)
(5.47404 -11.4166 3.03081)
(-4.19662 -12.0354 -1.38656)
(4.53192 -2.29631 0.363846)
(6.3854 4.85164 4.73984)
(3.74689 -2.69019 -0.306787)
(0.627949 -0.464752 1.36037)
(4.35154 -0.780263 2.71705)
(2.39196 1.80283 -7.43942)
(10.3898 -5.11814 0.839857)
(4.73987 1.88477 6.60846)
(-2.7469 -9.85126 -7.0525)
(3.31521 6.28352 -18.7069)
(8.04503 4.20863 -9.04465)
(-0.704621 0.689053 -3.77165)
(-0.201491 2.70133 -3.04682)
(-22.7586 -5.64459 -7.52578)
(-6.08653 5.23337 1.89621)
(-0.977764 0.657472 -1.10421)
(-2.04949 -4.13276 -1.73714)
(18.3107 6.95674 -22.6783)
(-4.62144 2.1357 -3.62332)
(-7.14802 0.667476 -7.31812)
(3.71632 4.16982 -2.78454)
(-5.94485 8.41244 9.98799)
(-0.642594 -6.77592 -22.8463)
(-3.84269 -0.0923617 -1.88496)
(-7.03392 -11.2059 13.8876)
(-0.68306 10.6511 0.645979)
(0.77104 7.10205 -4.86688)
(-0.975324 -12.0042 6.02295)
(-0.00831614 0.552973 -1.54933)
(4.49361 0.929925 -0.887104)
(-8.98114 4.34051 10.1557)
(9.38235 10.1014 29.5127)
(2.49253 3.24973 1.77823)
(6.65899 5.06314 -6.93593)
(-1.22795 2.83318 -0.90303)
(-0.0713974 -0.0254177 -0.294988)
(6.99134 7.84449 -5.23843)
(-3.25564 0.198396 5.73521)
(12.3245 11.9761 -2.23229)
(-0.721335 -1.22043 1.09106)
(20.3645 -4.29429 16.2687)
(0.161507 3.52137 0.844935)
(-12.0921 1.82453 0.714837)
(2.51583 0.27076 12.6898)
(1.8062 1.67066 -2.19396)
(-11.4198 -5.07505 -3.22091)
(-2.08699 2.01101 -1.6577)
(-0.12701 0.401076 -0.0441429)
(8.01415 4.67795 -7.08166)
(1.5658 -9.381 1.88286)
(-1.8125 -4.34155 5.47626)
(2.77667 5.64404 -6.25489)
(0.150847 16.9082 -10.8384)
(-0.0919696 0.290423 -0.0319644)
(7.24984 4.4312 -8.63754)
(20.4574 -7.63486 12.1754)
(-1.68655 -12.3964 -4.05373)
(3.07682 -0.249331 -3.92437)
(-0.862858 -1.63284 0.0582329)
(-0.98522 0.498085 2.1839)
(3.16198 2.94671 -2.86081)
(2.31419 -5.70469 -8.26005)
(11.5497 -5.92637 -14.6006)
(-0.00440262 -0.00488562 -0.0083364)
(2.48259 -2.04584 4.14235)
(14.6311 3.50385 8.0041)
(5.39673 -11.1003 -2.98941)
(-0.825469 1.90456 -0.607048)
(11.6601 11.3305 -2.11196)
(-10.4436 -5.06725 -4.10711)
(-8.15414 1.17358 1.14556)
(4.34725 -1.91389 -3.69647)
(0.715844 0.403847 0.193436)
(4.217 20.651 -0.506558)
(-2.89682 2.38921 2.37329)
(8.46299 -3.92429 -0.0783171)
(-25.0321 17.3143 -23.2733)
(-10.1113 -2.93488 -1.19867)
(-6.97251 1.13846 3.65834)
(0.472466 -1.90049 1.63586)
(-11.8945 4.43564 4.29323)
(2.45406 -0.527663 2.07385)
(-11.8958 7.94734 -1.6276)
(3.65772 3.329 0.33472)
(-1.51076 -0.710262 -0.748517)
(0.356882 1.53608 1.92003)
(-25.8319 6.95415 27.651)
(0.796558 -0.128014 0.284088)
(-0.215307 2.88655 -3.25573)
(7.66733 13.2099 11.0735)
(-14.9621 -7.51274 16.1787)
(3.70246 -2.61849 0.743028)
(2.27138 -4.48074 0.141446)
(1.16031 5.67255 -1.26631)
(11.7886 -5.03728 -9.27132)
(4.50207 -3.18399 0.903497)
(-19.3923 15.918 15.6186)
(1.55341 1.17082 -4.8314)
(-3.76872 -6.00404 7.44087)
(4.54522 -2.17745 -5.23731)
(-18.3525 -25.7725 35.6849)
(5.12395 -2.4547 -5.90417)
(0.286313 6.68398 1.5086)
(-1.68888 4.3406 2.02561)
(-20.2938 -11.2832 -3.75695)
(-1.81174 -0.46303 1.2335)
(-6.7474 -11.8972 9.43446)
(-2.65363 2.72954 3.23693)
(4.76819 -3.92934 7.95601)
(0.42872 1.84529 2.30652)
(-9.59753 15.3753 1.11861)
(-5.62971 -40.6999 32.3729)
(0.754887 0.698239 -0.916949)
(0.523195 1.04002 3.07459)
(-1.87235 -1.12145 -1.84583)
(2.3811 -4.69719 0.148279)
(6.79236 -3.14962 -0.062857)
(-1.41865 1.8918 -2.84204)
(-12.3483 -13.6561 4.38774)
(-21.4421 -2.63914 -4.25315)
(-17.8982 -4.4391 -5.91853)
(0.0385463 -0.058781 -0.221812)
(2.87631 3.09892 4.47952)
(-3.59053 -0.724167 -6.31939)
(1.91284 -0.842134 -1.62649)
(0.333896 -1.20802 -1.42456)
(-8.9073 -2.58542 -1.05594)
(-0.0338424 -3.483 2.26408)
(-0.871086 -0.531819 1.12664)
(-2.87333 -1.35085 -1.42361)
(2.49246 -4.09822 -0.262678)
(0.872434 -7.79057 11.2887)
(1.24067 25.6938 -12.7509)
(1.0301 -4.78482 -0.680666)
(2.64203 0.739299 -2.13523)
(-4.48388 -4.95878 1.59327)
(-0.0532147 3.71817 -1.69773)
(-6.8229 -3.79349 -1.26311)
(-2.83878 3.71459 0.32941)
(2.67776 28.8344 4.10336)
(4.98731 7.11395 7.90265)
(0.977001 -1.73179 -5.10668)
(-1.19383 -2.01985 1.80574)
(3.40938 -0.985648 4.21321)
(0.281421 -1.85472 1.95682)
(2.87485 -0.298829 1.39669)
(5.57383 -0.857018 1.67604)
(-1.69496 4.35623 2.0329)
(0.812256 1.12039 1.90912)
(-5.48723 5.16216 -4.28213)
(-34.2155 -11.51 13.3998)
(-0.978006 -0.190203 -2.90133)
(-1.25217 0.680387 1.56033)
(3.80821 3.05084 -11.8246)
(2.26607 6.87338 -1.31572)
(0.934207 -0.0110938 -0.992497)
(0.402756 -1.62008 1.3945)
(-0.896035 -11.0283 5.53332)
(1.56231 2.00404 -1.85478)
(-7.32982 -9.78693 0.269136)
(20.4031 -4.30244 16.2996)
(4.25273 -1.54756 -13.9072)
(0.370604 -1.34083 -1.58117)
(-4.9051 0.458034 -5.02183)
(-1.07123 0.72032 -1.20977)
(-4.91424 2.37501 5.55695)
(0.00943149 -1.08563 0.650496)
(0.442715 0.656665 1.90296)
(7.97402 8.58517 25.0827)
(3.7887 -4.35713 3.43299)
(5.22258 -0.936445 3.26091)
(-1.17802 0.640099 1.46794)
(-1.9162 4.57121 -4.48606)
(-2.73909 -13.9646 14.3745)
(-2.32336 -13.6108 12.4854)
(-5.45217 12.0666 -4.0789)
(0.603197 -8.01956 -1.92241)
(-0.307847 39.6219 0.834448)
(1.97161 2.20344 0.755296)
(2.25665 0.0886875 -3.48058)
(-0.402429 -0.612557 -0.221421)
(-2.84229 2.34424 2.32862)
(-0.889021 -0.53379 -0.43688)
(-2.85954 1.78582 1.26748)
(6.34222 -10.8876 -26.5131)
(-0.256302 -0.616188 0.340578)
(-0.0735925 -0.0261992 -0.304057)
(3.2211 -5.29628 -0.339468)
(-0.201156 0.211909 0.230802)
(-0.445918 0.436066 -2.38688)
(5.93641 1.66114 -4.79767)
(3.6919 -8.7991 6.52222)
(-1.08489 0.26716 -0.38625)
(-0.339378 1.88108 -0.286986)
(-3.82435 7.56918 -2.33997)
(0.307021 0.0472677 -0.158364)
(-5.89832 7.36293 -2.89083)
(13.9445 -5.95851 -10.9669)
(-6.6589 -14.7887 -6.66152)
(-8.92975 3.33005 3.22313)
(2.57025 -11.9388 -1.69836)
(0.379462 -0.672616 -1.9834)
(-11.7334 -5.89156 12.6875)
(-3.6978 -10.6049 -1.22175)
(1.89226 -0.196693 0.919318)
(-28.0917 -3.13797 19.2492)
(10.6812 -14.3419 -1.87093)
(-4.34068 1.46218 0.703553)
(0.837558 17.3455 -8.60797)
(1.08374 0.116635 5.4664)
(10.9762 17.6534 -17.1547)
(1.61369 2.14984 -2.43105)
(0.0388214 -0.0592005 -0.223394)
(-9.17683 -4.07825 -2.58828)
(-4.1152 3.53837 1.28206)
(-3.30426 3.38555 -1.35468)
(3.88833 0.613132 -9.37471)
(-0.573911 -7.06362 3.5441)
(-7.23679 14.3231 -4.42791)
(3.07672 15.067 -0.369584)
(-1.91606 -0.489691 1.30452)
(14.7413 12.8017 10.1217)
(-5.96934 -2.40191 2.81046)
(-9.73226 -4.7221 -3.82736)
(-4.30644 -1.37776 4.6371)
(-12.4898 -17.5394 24.2852)
(-0.267068 -2.81614 -9.49514)
(8.74486 -4.48716 -11.0549)
(-0.0796996 5.56871 -2.5427)
(-1.14539 -2.1675 0.0773009)
(-7.16706 -7.7636 15.868)
(2.1783 8.97668 -0.795476)
(3.48984 -13.7858 -15.8709)
(-5.73962 -3.13087 -0.832302)
(-13.8647 2.0456 -14.3944)
(-3.59081 -4.85184 1.96646)
(-27.9027 7.94985 -36.1759)
(1.62922 -2.8675 0.337739)
(-4.69449 -0.87516 5.47635)
(11.9849 22.0716 14.4929)
(12.5983 5.29659 0.616716)
(-2.37042 -1.07093 -2.94287)
(-4.54472 0.564898 2.17742)
(2.35085 0.0446313 -0.735252)
(-0.528412 0.653788 -0.174799)
(-8.98004 -12.1703 25.4798)
(0.107414 0.117592 -0.00739633)
(-2.25931 -7.81242 -5.53604)
(7.8005 13.7554 3.58126)
(0.721898 -1.3497 0.870572)
(19.5146 4.39148 -7.143)
(-2.47901 -6.52257 -1.89798)
(3.27146 12.4967 2.9437)
(2.24453 0.786765 -7.93657)
(-2.14514 10.3305 25.7048)
(1.70871 1.83463 1.50328)
(-7.74584 -0.186177 -3.79958)
(-1.39684 -12.6668 -6.96429)
(-0.886275 -2.81958 12.3205)
(9.3609 -10.2591 -12.658)
(-4.34936 8.59149 20.5068)
(-27.8369 15.8647 10.1017)
(0.664328 -2.041 -1.99757)
(-11.9866 -6.53849 -1.73817)
(-3.22341 2.52333 2.72112)
(3.5852 5.24649 -5.8359)
(-1.03257 2.95893 -5.07799)
(2.42126 -3.64879 2.35099)
(4.87233 4.82058 7.60791)
(-16.8901 7.86878 -9.98113)
(-20.3197 -10.6053 6.30543)
(0.487583 10.6308 2.55081)
(2.66751 -2.99091 -3.931)
(1.67574 1.73433 -9.69782)
(-2.25031 1.23787 9.13995)
(-3.54251 4.63544 0.411072)
(9.72477 7.78007 8.03391)
(3.68721 12.87 5.04343)
(34.7052 -19.3934 -11.4198)
(2.26338 11.1498 -6.07591)
(16.7073 26.8709 -26.1117)
(0.0113594 0.184681 0.0733448)
(0.817099 -0.0878675 -0.0598837)
(-19.7932 13.2234 -2.70812)
(4.74234 -6.86658 -1.03913)
(-3.47069 -20.3322 18.651)
(12.1097 7.47987 5.31423)
(-2.57332 -4.74027 6.75974)
(15.7936 -8.16071 -2.29719)
(19.3165 10.3426 -5.54298)
(-7.6172 7.71438 3.18895)
(-54.119 -3.3082 -3.67199)
(8.38439 9.03329 13.0577)
(-6.32273 -2.90689 16.1233)
(-6.04453 13.5866 -5.2057)
(0.424417 6.64729 1.08096)
(6.99031 0.274723 -10.7816)
(-4.3568 0.2655 7.67503)
(14.0108 -2.65917 -5.09909)
(6.33051 -2.30367 -20.7019)
(27.6688 0.187904 1.02215)
(-4.04448 2.52582 1.79269)
(5.20187 15.7782 -3.02031)
(-36.4099 -0.553339 14.7248)
(-10.4484 16.7385 1.21778)
(-1.64035 7.89954 19.6561)
(5.39645 0.0625891 2.59414)
(1.12313 10.3451 -7.0893)
(7.83199 -8.45693 -0.831205)
(6.58412 -1.01236 1.97983)
(-0.958196 0.484423 2.124)
(-7.80275 1.26811 -1.4876)
(-0.219908 -0.325301 0.665716)
(-6.74683 -8.37918 -4.51805)
(-8.15642 -18.1145 -8.15963)
(-25.7822 2.66127 0.19211)
(-10.2483 4.57145 -7.83848)
(-3.14228 0.735092 0.885049)
(-0.467544 60.176 1.26732)
(-9.87241 9.28756 -7.70424)
(-21.9599 4.02594 9.79884)
(4.76907 -3.06238 1.79877)
(-8.99992 5.39655 -2.29982)
(1.54471 17.8334 -7.96232)
(-5.16877 -26.3518 27.1252)
(-2.33053 2.63692 -5.88268)
(-2.11784 -1.79647 4.87969)
(6.44484 -3.26558 0.517425)
(-1.41598 -6.60621 -9.89278)
(-21.3449 3.48517 11.1992)
(2.58521 1.85689 -2.3573)
(5.66721e-05 -7.58283e-05 -0.000134613)
(-17.6121 -13.9693 2.22761)
(0.702338 -9.33765 -2.23838)
(-4.86879 8.64175 -14.8003)
(8.01149 -3.70775 0.850347)
(4.42598 12.5199 31.433)
(-2.19863 5.24496 -5.14726)
(3.04145 1.35993 -4.07177)
(-69.7704 -8.5875 -13.8393)
(-3.20508 6.72676 -7.31595)
)


// ************************************************************************* //
