/*--------------------------------*- C++ -*----------------------------------*\
  =========                 |
  \\      /  F ield         | OpenFOAM: The Open Source CFD Toolbox
   \\    /   O peration     | Website:  https://openfoam.org
    \\  /    A nd           | Version:  7
     \\/     M anipulation  |
\*---------------------------------------------------------------------------*/
FoamFile
{
    version     2.0;
    format      ascii;
    class       scalarField;
    location    "0.1375/lagrangian/reactingCloud1";
    object      age;
}
// * * * * * * * * * * * * * * * * * * * * * * * * * * * * * * * * * * * * * //


1216
(
0.010525
0.006565
0.006493
0.006373
0.006445
0.006325
0.006397
0.006229
0.006181
0.006109
0.006253
0.006133
0.006085
0.006205
0.006061
0.005965
0.006037
0.006301
0.006277
0.005821
0.005869
0.006157
0.00577263
0.006757
0.005989
0.005701
0.006013
0.005749
0.005725
0.005653
0.005677
0.005533
0.005917
0.005605
0.005509
0.005485
0.005557
0.005773
0.005845
0.005365
0.005413
0.005581
0.005389
0.008605
0.00522063
0.005317
0.005341
0.005221
0.005437
0.005293
0.005101
0.005941
0.005797
0.006349
0.005077
0.004981
0.005197
0.004933
0.005269
0.004957
0.002005
0.001813
0.001597
0.001573
0.001549
0.001525
0.001501
0.001477
0.001453
0.001429
0.001405
0.001381
0.001357
0.001333
0.001309
0.001285
0.001261
0.001237
0.001213
0.001189
0.001165
0.001141
0.001117
0.001093
0.001069
0.001045
0.001021
0.000997
0.000973
0.000949
0.000925
0.000901
0.000877
0.000853
0.000829
0.000805
0.000781
0.000780625
0.000757
0.000733
0.000709
0.000685
0.000661
0.000637
0.000613
0.000589
0.000565
0.000541
0.000517
0.000493
0.000469
0.000445
0.000421
0.000397
0.000373
0.000349
0.000325
0.000301
0.000277
0.000253
0.000229
0.000205
0.000181
0.000157
0.000133
0.000109
8.5e-05
6.1e-05
3.7e-05
1.3e-05
0.003805
0.003829
0.003469
0.003037
0.003301
0.002821
0.002749
0.002701
0.002725
0.002677
0.002629
0.002653
0.002581
0.002605
0.003109
0.002557
0.002533
0.002485
0.002509
0.002437
0.002413
0.002389
0.002365
0.002341
0.00229263
0.002317
0.002269
0.002293
0.002245
0.002221
0.002173
0.002125
0.002197
0.002149
0.002077
0.002101
0.002053
0.002029
0.001981
0.001957
0.002461
0.001933
0.001909
0.001885
0.001837
0.001861
0.003397
0.001765
0.00183663
0.001789
0.001717
0.001741
0.001693
0.00166863
0.001669
0.001645
0.001621
0.011005
0.006661
0.004213
0.004141
0.004021
0.004429
0.004069
0.004237
0.005005
0.005149
0.003949
0.004093
0.004405
0.003877
0.003973
0.003997
0.004285
0.004045
0.003925
0.003853
0.003685
0.003733
0.003613
0.003541
0.003589
0.003781
0.003637
0.003445
0.003421
0.003517
0.003901
0.003493
0.003565
0.003253
0.003277
0.003757
0.003229
0.003181
0.003661
0.003349
0.003373
0.003061
0.003709
0.003325
0.003133
0.003205
0.002965
0.002989
0.004597
0.002941
0.003013
0.002917
0.00361263
0.002869
0.002845
0.005893
0.003157
0.002773
0.002797
0.003085
0.002893
0.005461
0.005029
0.004837
0.004909
0.005245
0.004861
0.004885
0.004813
0.004741
0.004717
0.004693
0.004789
0.004645
0.004621
0.005053
0.004525
0.004453
0.005173
0.004357
0.004573
0.004381
0.004549
0.004477
0.004669
0.004261
0.004501
0.004765
0.005629
0.004333
0.005125
0.00430863
0.004309
0.004189
0.004117
0.004165
0.016069
0.014149
0.014869
0.014557
0.014197
0.013381
0.013741
0.013837
0.013909
0.013645
0.012733
0.018373
0.015301
0.012541
0.012685
0.012709
0.012517
0.012253
0.012277
0.012421
0.012397
0.011893
0.012205
0.011917
0.012157
0.012445
0.012301
0.012109
0.011797
0.012013
0.011773
0.012133
0.0118206
0.011845
0.011629
0.012589
0.011749
0.0122286
0.011725
0.011965
0.011581
0.012061
0.011941
0.011557
0.011821
0.011293
0.011269
0.011533
0.012373
0.012181
0.011197
0.011413
0.011221
0.011173
0.011053
0.011365
0.010933
0.011029
0.011653
0.011437
0.011605
0.011485
0.010837
0.010789
0.011701
0.010765
0.010741
0.011509
0.010909
0.010861
0.010717
0.011125
0.0107886
0.010573
0.011101
0.010501
0.010669
0.011869
0.010453
0.011149
0.012493
0.011389
0.010957
0.011077
0.011245
0.010693
0.010333
0.011989
0.010381
0.010597
0.010429
0.0109086
0.010213
0.010285
0.010621
0.010237
0.010069
0.010357
0.010045
0.010261
0.009949
0.009997
0.010309
0.011461
0.009973
0.011317
0.0105006
0.010981
0.009901
0.015109
0.010021
0.010813
0.009685
0.009925
0.010165
0.012037
0.009757
0.012085
0.009829
0.009565
0.009781
0.009541
0.009421
0.009469
0.010405
0.010141
0.010117
0.010093
0.009733
0.009661
0.009445
0.009589
0.009877
0.009709
0.009613
0.009373
0.009493
0.009205
0.010885
0.009853
0.009349
0.009181
0.0120846
0.009037
0.009229
0.009013
0.008941
0.009301
0.009805
0.008917
0.009517
0.009397
0.009637
0.009109
0.008893
0.008845
0.008821
0.008749
0.008629
0.009061
0.008677
0.010645
0.009253
0.009085
0.008557
0.008653
0.008773
0.010549
0.008701
0.008533
0.008869
0.008461
0.008413
0.008341
0.008509
0.008485
0.009277
0.00846063
0.008989
0.008797
0.008365
0.008389
0.008581
0.008125
0.008077
0.008293
0.008965
0.008029
0.008245
0.008053
0.008269
0.008005
0.008725
0.008197
0.008101
0.011341
0.008173
0.007837
0.008221
0.007957
0.007813
0.007693
0.007765
0.007621
0.010477
0.008317
0.007741
0.007981
0.007909
0.007645
0.007885
0.008437
0.007669
0.007573
0.007453
0.007501
0.007525
0.007717
0.007429
0.007405
0.007549
0.007285
0.007357
0.007213
0.007309
0.011677
0.007237
0.007933
0.009157
0.007789
0.007381
0.007189
0.007333
0.007069
0.007093
0.007165
0.007141
0.007597
0.006925
0.006949
0.007117
0.007021
0.006877
0.006805
0.006829
0.008149
0.013717
0.006973
0.007261
0.010189
0.006781
0.006685
0.006853
0.006733
0.009325
0.006997
0.006637
0.009133
0.007045
0.006709
0.007477
0.007861
0.006541
0.006589
0.006901
0.006613
0.006469
0.006517
0.00670863
0.006421
0.024013
0.021661
0.020917
0.020725
0.020485
0.024085
0.016357
0.020005
0.020749
0.023533
0.020893
0.020173
0.019501
0.019597
0.022093
0.020341
0.019981
0.019237
0.019429
0.022261
0.020293
0.019573
0.021709
0.019189
0.019069
0.018997
0.018877
0.0187806
0.019261
0.018781
0.018661
0.018613
0.018757
0.018637
0.019045
0.018589
0.018829
0.018421
0.019741
0.018709
0.018469
0.018685
0.018325
0.018733
0.018253
0.018805
0.018541
0.018397
0.018949
0.018277
0.018133
0.018109
0.018493
0.018085
0.020605
0.017965
0.020509
0.017917
0.019021
0.017941
0.018013
0.018061
0.021325
0.018445
0.017629
0.020197
0.020821
0.017557
0.017509
0.017725
0.0174126
0.019381
0.017413
0.017437
0.017341
0.017797
0.017389
0.020365
0.017581
0.019285
0.018181
0.017317
0.019621
0.017533
0.017821
0.018301
0.017173
0.018517
0.017101
0.017053
0.017077
0.019933
0.017149
0.016885
0.017221
0.017773
0.017293
0.017005
0.016981
0.017485
0.0172926
0.017029
0.018853
0.016909
0.017269
0.019837
0.017869
0.018349
0.016597
0.016861
0.021421
0.017245
0.016549
0.017605
0.016765
0.020125
0.016573
0.016933
0.018229
0.016789
0.016405
0.016309
0.016453
0.016621
0.0162606
0.016477
0.016693
0.016381
0.017893
0.016837
0.016165
0.016237
0.018205
0.016285
0.017461
0.015997
0.023461
0.018565
0.017365
0.016741
0.016669
0.016429
0.015925
0.015949
0.016045
0.0158286
0.016261
0.017701
0.015973
0.016213
0.015853
0.017653
0.016117
0.018037
0.015733
0.015901
0.015541
0.015589
0.015469
0.0157566
0.015637
0.015517
0.017989
0.016813
0.015397
0.015613
0.015829
0.015685
0.015157
0.015133
0.015661
0.018157
0.016957
0.015253
0.017677
0.015205
0.014989
0.017197
0.015373
0.015181
0.015013
0.015781
0.017749
0.015085
0.014821
0.014773
0.015325
0.016717
0.015037
0.016093
0.014725
0.014701
0.016501
0.014245
0.014629
0.014677
0.014581
0.014917
0.014461
0.017125
0.014893
0.015709
0.015061
0.014485
0.014941
0.014293
0.014653
0.014317
0.014605
0.017845
0.014341
0.015877
0.014749
0.016525
0.018901
0.014125
0.014269
0.019405
0.014845
0.014389
0.014365
0.015277
0.014221
0.014101
0.014509
0.016645
0.014005
0.014029
0.015349
0.0144606
0.014053
0.015421
0.013861
0.014173
0.015805
0.016333
0.013813
0.013669
0.021445
0.014437
0.013789
0.013693
0.013573
0.013621
0.013501
0.014413
0.013549
0.013933
0.013453
0.013525
0.013429
0.016141
0.013477
0.019669
0.013981
0.015445
0.013405
0.013957
0.013285
0.015493
0.015565
0.013213
0.013189
0.013309
0.013261
0.014533
0.013117
0.013885
0.013141
0.013069
0.013333
0.015229
0.013237
0.012877
0.015757
0.013045
0.013093
0.013021
0.012853
0.012805
0.013357
0.012901
0.012973
0.012925
0.0127086
0.012661
0.014965
0.012997
0.022549
0.012829
0.012565
0.013597
0.012949
0.012637
0.012469
0.014077
0.016021
0.012613
0.016189
0.013165
0.012781
0.012349
0.012325
0.012757
0.012229
0.014797
0.013765
0.028669
0.0292926
0.029341
0.029629
0.029221
0.027781
0.028021
0.028549
0.029197
0.028525
0.027421
0.029029
0.028165
0.028789
0.029245
0.027133
0.026533
0.028357
0.026461
0.026677
0.026797
0.027445
0.027829
0.027541
0.029125
0.027157
0.026365
0.029389
0.027733
0.028261
0.028813
0.026869
0.026629
0.026341
0.027661
0.027493
0.026221
0.026653
0.026077
0.033109
0.026389
0.027085
0.026053
0.027973
0.026749
0.026773
0.025933
0.027949
0.027253
0.027469
0.026317
0.026845
0.027325
0.026485
0.026509
0.026125
0.026005
0.025957
0.026269
0.025861
0.025813
0.026941
0.026245
0.025477
0.025429
0.025621
0.025741
0.025381
0.026197
0.026173
0.025885
0.027061
0.027853
0.027037
0.025981
0.025141
0.026701
0.025213
0.025021
0.025309
0.026413
0.025261
0.025669
0.026437
0.027109
0.025573
0.024925
0.025597
0.025765
0.026101
0.025909
0.024805
0.027517
0.025405
0.025645
0.025789
0.025165
0.027373
0.025045
0.027229
0.025837
0.024781
0.025069
0.024997
0.025237
0.0253806
0.024661
0.027901
0.024445
0.024949
0.029893
0.024349
0.025189
0.024757
0.024973
0.024373
0.024109
0.024181
0.024685
0.027589
0.024421
0.024061
0.024325
0.024877
0.024253
0.024301
0.024469
0.023965
0.024565
0.026581
0.025333
0.023845
0.023773
0.025357
0.023797
0.025117
0.024277
0.024397
0.029293
0.027397
0.023749
0.024853
0.026605
0.023653
0.024541
0.025549
0.023485
0.023413
0.024589
0.023893
0.023293
0.024613
0.025525
0.023557
0.023005
0.023365
0.023341
0.023989
0.024205
0.022957
0.023101
0.022885
0.023437
0.023173
0.023077
0.022741
0.023269
0.023053
0.023389
0.022621
0.028885
0.023317
0.023197
0.022765
0.022717
0.024901
0.023821
0.022477
0.024229
0.022837
0.024037
0.022573
0.022933
0.025717
0.022525
0.022429
0.022357
0.022909
0.022669
0.023629
0.023509
0.024733
0.022381
0.024637
0.022405
0.022045
0.023245
0.0226686
0.023029
0.023869
0.022693
0.022213
0.022189
0.025693
0.023149
0.022141
0.023125
0.021925
0.022021
0.021757
0.021877
0.022069
0.025093
0.021829
0.021541
0.022117
0.021949
0.030373
0.026029
0.021613
0.021853
0.021277
0.021589
0.021517
0.023221
0.027637
0.021349
0.028093
0.022501
0.021901
0.021565
0.021733
0.021253
0.031645
0.021301
0.023941
0.026149
0.021373
0.024709
0.021109
0.021013
0.023917
0.0211566
0.021469
0.021781
0.022309
0.022861
0.021637
0.023677
0.022453
0.020869
0.020965
0.020629
0.032053
0.024157
0.021973
0.023605
0.020797
0.021229
0.020845
0.025453
0.020773
0.020653
0.022165
0.022597
0.020461
0.022237
0.024493
0.020389
0.021085
0.021805
0.021397
0.020581
0.021061
0.022333
0.021037
0.020989
0.020677
0.023701
0.021493
0.020077
0.023725
0.020053
0.021205
0.022645
0.019957
0.020245
0.020533
0.020149
0.022285
0.020701
0.020413
0.020029
0.021157
0.021685
0.020101
0.019813
0.019645
0.022813
0.019909
0.019693
0.019885
0.019525
0.019789
0.020269
0.019861
0.019549
0.024517
0.019453
0.019717
0.019765
0.021181
0.022981
0.020557
0.021133
0.019333
0.020317
0.021997
0.020941
0.019477
0.019165
0.020221
0.019357
0.019141
0.019093
0.018973
0.019117
0.019309
0.020437
0.019213
0.018925
0.029869
0.028645
0.0319806
0.031021
0.033349
0.033013
0.027685
0.028861
0.029269
0.025501
0.033205
0.028453
0.028285
0.028069
0.024829
0.036325
0.026725
0.022789
0.026293
0.026893
0.023581
0.028309
0.025285
0.024133
0.031933
)


// ************************************************************************* //
