/*--------------------------------*- C++ -*----------------------------------*\
  =========                 |
  \\      /  F ield         | OpenFOAM: The Open Source CFD Toolbox
   \\    /   O peration     | Website:  https://openfoam.org
    \\  /    A nd           | Version:  7
     \\/     M anipulation  |
\*---------------------------------------------------------------------------*/
FoamFile
{
    version     2.0;
    format      ascii;
    class       labelField;
    location    "0.1375/lagrangian/reactingCloud1";
    object      cellId;
}
// * * * * * * * * * * * * * * * * * * * * * * * * * * * * * * * * * * * * * //


1216
(
23
21
21
53
52
85
118
84
115
112
152
151
185
187
185
177
221
259
259
283
325
365
358
394
397
394
469
468
465
466
467
494
505
574
569
570
608
645
677
673
676
713
710
786
739
778
778
774
813
868
919
897
925
920
919
942
976
998
1026
1028
900
1021
740
1028
1032
881
983
974
955
948
926
922
904
885
868
851
560
817
808
788
763
755
745
723
713
684
664
650
627
611
580
587
561
545
536
508
506
508
481
465
441
421
426
404
384
364
342
344
322
307
280
276
266
257
222
210
208
183
175
140
122
134
114
81
94
61
40
45
30
0
815
855
995
999
816
999
958
1051
918
962
965
837
947
900
675
946
903
908
839
867
867
848
851
759
785
738
765
762
743
771
701
686
617
681
641
597
643
621
609
584
475
561
562
541
524
520
496
487
477
479
464
459
447
426
432
430
407
760
820
986
985
968
680
905
843
806
400
825
784
701
807
763
742
720
844
723
745
711
625
631
550
506
462
443
513
496
467
321
343
304
331
308
241
311
270
201
223
181
215
163
142
165
123
133
130
81
134
107
113
60
71
52
20
25
33
11
1
4
523
436
432
435
493
461
516
544
596
596
623
598
622
621
738
700
752
898
890
897
892
923
922
925
970
1031
1032
399
403
379
383
362
366
308
305
52
51
84
83
32
57
82
85
46
195
79
321
368
148
149
321
236
142
189
140
183
144
185
231
190
490
227
272
271
224
227
272
357
269
224
569
313
395
351
304
310
392
437
344
344
348
348
434
435
384
390
431
424
424
430
472
425
464
513
561
724
512
510
508
767
549
550
596
544
551
547
593
767
589
589
588
635
852
629
633
801
717
808
674
631
624
667
892
671
671
671
712
711
705
714
704
748
753
748
747
746
789
793
964
791
836
876
832
831
832
832
824
868
873
915
957
911
906
908
911
956
945
948
950
29
27
10
5
9
42
9
22
136
43
0
40
40
15
142
132
60
33
34
52
128
55
89
162
117
119
194
310
233
234
159
195
159
193
154
193
156
343
263
229
225
229
263
299
263
261
406
259
261
255
259
294
296
296
331
330
294
365
365
361
358
398
398
393
433
392
429
395
465
468
467
458
502
497
572
534
536
532
532
529
567
606
569
569
604
568
603
635
604
601
596
631
631
692
662
689
690
688
719
714
717
720
718
781
781
715
750
747
779
774
774
777
806
871
833
832
864
865
863
860
861
929
925
921
927
905
923
917
921
921
957
953
947
954
951
951
953
938
973
977
982
1007
1001
1005
1036
1030
858
659
691
459
610
442
1003
626
594
71
14
51
48
19
29
52
51
53
83
62
50
48
57
86
50
79
47
87
17
15
46
16
80
46
232
136
44
44
48
105
73
134
137
73
139
74
77
102
104
103
104
133
137
135
138
132
139
132
196
190
194
223
233
251
196
169
263
191
222
217
250
164
279
217
338
246
217
286
306
195
336
305
256
273
398
273
304
274
338
274
304
283
363
301
363
331
301
332
363
365
390
332
281
393
301
373
329
421
329
389
358
388
359
357
448
399
420
387
435
413
416
385
418
446
415
513
477
445
477
533
445
413
426
533
473
441
424
484
563
471
469
499
469
502
502
469
503
452
562
563
497
550
526
549
560
556
557
527
525
557
553
553
506
538
584
645
614
583
582
583
581
561
563
609
632
672
613
564
638
671
641
671
594
670
672
638
670
591
673
701
667
697
622
665
667
696
665
697
693
684
721
646
693
755
784
724
722
783
753
813
750
675
785
674
682
752
783
707
813
777
813
814
778
778
841
812
810
805
735
841
840
811
840
834
759
799
837
834
731
833
865
866
861
897
864
897
861
889
890
894
889
821
889
827
919
789
921
953
920
842
817
922
917
920
950
816
949
1010
1009
978
977
875
1010
1005
874
1008
1006
1005
1001
1005
1020
1004
1018
1019
1016
1015
927
1013
904
1018
1024
1010
1028
1027
1025
1022
939
1022
930
1039
1040
1039
1042
1049
1046
998
1011
70
44
12
11
30
33
5
1
60
159
24
102
80
160
163
61
0
127
0
3
30
0
54
24
130
0
0
182
210
96
180
26
192
4
48
130
48
75
96
120
178
229
96
229
151
172
120
216
176
96
144
120
224
172
144
193
145
265
218
120
146
300
196
196
169
195
168
192
196
144
248
222
192
222
377
218
272
243
219
216
268
217
240
346
381
268
242
291
293
242
265
272
267
296
319
372
264
288
266
393
340
314
339
288
344
291
342
449
317
341
421
341
341
363
360
367
313
363
360
419
362
360
390
415
384
409
494
413
438
413
491
409
409
432
463
458
434
516
488
432
433
460
432
461
484
481
456
480
565
514
504
534
504
532
507
504
532
530
529
528
505
505
588
529
552
556
582
552
576
552
262
581
576
579
578
691
577
600
600
607
629
601
657
654
600
600
600
601
627
629
624
664
627
655
624
648
650
672
726
708
649
673
675
735
729
678
699
672
673
672
674
753
729
695
698
720
718
381
753
718
746
698
721
720
746
783
721
779
802
741
745
767
771
800
742
808
801
766
734
795
791
799
787
816
815
787
844
788
869
814
810
811
810
68
841
838
868
835
833
810
874
833
834
863
864
860
892
891
856
857
885
856
856
856
883
878
879
883
880
910
879
916
903
918
931
902
926
924
900
936
929
926
922
923
954
944
944
945
963
947
953
949
966
966
970
971
968
981
989
993
991
996
988
993
1018
989
989
1022
1023
1010
1013
1019
1010
1012
1011
1010
1035
1034
1033
1034
1032
197
854
1017
1014
157
397
293
503
229
571
150
624
446
684
691
245
792
834
852
27
894
143
974
943
624
)


// ************************************************************************* //
