/*--------------------------------*- C++ -*----------------------------------*\
  =========                 |
  \\      /  F ield         | OpenFOAM: The Open Source CFD Toolbox
   \\    /   O peration     | Website:  https://openfoam.org
    \\  /    A nd           | Version:  7
     \\/     M anipulation  |
\*---------------------------------------------------------------------------*/
FoamFile
{
    version     2.0;
    format      ascii;
    class       vectorField;
    location    "0.1375/lagrangian/reactingCloud1";
    object      coordinates;
}
// * * * * * * * * * * * * * * * * * * * * * * * * * * * * * * * * * * * * * //


1216
(
(1.81397 0.0845404 3.16457e-07)
(1.8192 0.0691536 -3.87515e-08)
(1.80409 0.073124 -2.08845e-07)
(1.79423 0.0667467 -2.71103e-07)
(1.7866 0.0623029 1.16014e-07)
(1.75052 0.0691211 5.72629e-08)
(1.73176 0.0771181 -1.51876e-08)
(1.74643 0.0587237 -2.81547e-08)
(1.73559 0.0504941 -2.93661e-07)
(1.72148 0.0360806 1.06307e-13)
(1.6979 0.0714414 2.00452e-07)
(1.69792 0.0626575 -9.27053e-08)
(1.68948 0.0517889 1.64916e-10)
(1.68161 0.0698124 -8.02452e-08)
(1.67767 0.0553932 -2.28374e-07)
(1.67549 0.00867906 7.64837e-15)
(1.65589 0.0588682 -8.51956e-09)
(1.62097 0.0798615 -2.44634e-08)
(1.62227 0.0806046 4.90321e-07)
(1.61155 0.0125909 -1.00902e-13)
(1.59407 0.0527323 4.79411e-08)
(1.57271 0.0864602 7.87204e-08)
(1.5733 0.0363657 -3.05491e-14)
(1.54987 0.0426523 -1.10427e-06)
(1.54283 0.0681827 -1.24119e-07)
(1.53603 0.0430566 -7.93406e-13)
(1.49984 0.0833991 -1.59792e-08)
(1.49724 0.0725148 6.0338e-08)
(1.49702 0.0489805 2.64805e-07)
(1.49546 0.0562365 -2.10094e-08)
(1.48786 0.0680976 -3.34873e-07)
(1.48515 0.0145959 -2.20475e-15)
(1.47165 0.0856805 -6.58467e-07)
(1.44337 0.0827098 -2.40353e-07)
(1.44477 0.0472895 -1.40524e-14)
(1.43306 0.0483409 -4.61012e-12)
(1.41195 0.0726674 1.64621e-07)
(1.39723 0.0856919 5.23494e-07)
(1.38903 0.0752112 -4.98917e-08)
(1.38636 0.0442135 -3.73119e-13)
(1.37652 0.0680975 -7.13051e-08)
(1.36426 0.0846348 1.41323e-07)
(1.36911 0.0666808 7.39226e-07)
(1.33098 0.106876 -1.70348e-07)
(1.33745 0.0283559 -1.05326e-12)
(1.33366 0.0626761 1.05612e-07)
(1.33456 0.0680472 1.13088e-07)
(1.33179 0.0369011 -1.36469e-13)
(1.31058 0.0729051 3.9506e-08)
(1.27424 0.0812744 2.56628e-07)
(1.25155 0.0559727 -3.13658e-12)
(1.25877 0.0875209 -9.05805e-08)
(1.24546 0.0948383 8.35084e-09)
(1.23787 0.0609316 5.94518e-07)
(1.23712 0.0571964 -4.5412e-12)
(1.23465 0.0280247 -2.08564e-14)
(1.21741 0.0783075 -2.13264e-07)
(1.19362 0.045766 -2.60692e-12)
(1.19048 0.0498444 -5.99774e-07)
(1.17789 0.0611315 1.60959e-07)
(0.400972 0.141363 1.57939e-07)
(0.42505 0.14265 -1.92374e-07)
(0.366585 0.134899 5.48449e-07)
(0.424972 0.0856248 2.11699e-11)
(0.42169 0.0548614 -5.3847e-12)
(0.397421 0.13094 -4.08526e-07)
(0.417961 0.123681 -1.08055e-10)
(0.411163 0.040799 -5.0361e-12)
(0.407803 0.0327785 -8.72172e-12)
(0.406881 0.0851513 -1.13308e-11)
(0.404392 0.101211 1.39133e-11)
(0.402687 0.124261 1.40863e-11)
(0.399132 0.114538 1.99557e-11)
(0.395203 0.106832 4.82663e-12)
(0.389961 0.0787014 -8.33278e-12)
(0.38569 0.0570431 -1.20699e-11)
(0.32503 0.130001 -3.74483e-07)
(0.377075 0.0196892 -7.87262e-13)
(0.376245 0.0825249 -1.65269e-11)
(0.37197 0.0786071 -4.69932e-11)
(0.371729 0.112094 -9.29507e-11)
(0.363659 0.0321239 -5.37321e-12)
(0.362715 0.0974203 -9.27677e-13)
(0.360358 0.110729 -1.41532e-11)
(0.352632 0.0445675 -7.29207e-12)
(0.351673 0.10324 -8.58437e-12)
(0.3482 0.0997735 -1.13179e-10)
(0.34244 0.0643351 -1.52583e-11)
(0.33947 0.0832182 -1.54617e-11)
(0.333749 0.0559415 -4.99678e-12)
(0.328153 0.123888 -1.52712e-07)
(0.327078 0.0846651 -6.28218e-11)
(0.323716 0.121788 -8.30579e-12)
(0.319591 0.0954474 -7.06637e-11)
(0.31427 0.0245279 -7.7129e-13)
(0.311424 0.0731887 6.41059e-12)
(0.308259 0.0895392 -3.94112e-12)
(0.307569 0.0761966 4.42665e-12)
(0.304861 0.122175 -1.47686e-07)
(0.299563 0.0934508 1.41067e-11)
(0.295602 0.122405 -1.00999e-10)
(0.291459 0.122255 -7.91894e-11)
(0.2884 0.0899187 2.4963e-12)
(0.284574 0.100752 2.77877e-11)
(0.280185 0.0994062 1.27743e-11)
(0.276264 0.0978356 -4.12609e-11)
(0.272852 0.109747 -1.99233e-11)
(0.268657 0.0974579 2.42611e-11)
(0.264559 0.114086 2.93197e-11)
(0.260661 0.0778305 -3.02414e-11)
(0.255351 0.122721 -7.17251e-12)
(0.251529 0.0225933 1.05998e-12)
(0.248564 0.0844375 1.07572e-14)
(0.244395 0.0142398 -2.36338e-12)
(0.240146 0.114669 -3.36031e-12)
(0.236033 0.0597172 -9.443e-13)
(0.232556 0.075786 7.58481e-12)
(0.228262 0.107822 1.09633e-11)
(0.224243 0.0278468 -1.56895e-12)
(0.217811 0.124526 -3.11726e-12)
(0.215919 0.110452 -2.26703e-13)
(0.212385 0.0328476 -1.37248e-12)
(0.208058 0.0372792 -1.4523e-12)
(0.204461 0.122315 5.79573e-13)
(0.200294 0.035217 2.51572e-12)
(0.197098 0.118273 9.17091e-14)
(0.189061 0.126615 -1.1299e-11)
(0.188983 0.0905725 8.08787e-13)
(0.18468 0.062453 1.52546e-12)
(0.180936 0.122974 -3.7348e-13)
(0.522565 0.159573 2.68688e-08)
(0.527995 0.158579 1.44183e-07)
(0.560338 0.146589 2.03064e-07)
(0.559165 0.119726 -9.30783e-07)
(0.521978 0.149114 -6.70924e-08)
(0.559614 0.117217 -3.29843e-11)
(0.548014 0.125604 -1.98187e-11)
(0.563572 0.0281619 2.02585e-14)
(0.540165 0.132836 7.30292e-11)
(0.550937 0.0937245 -5.18995e-12)
(0.548883 0.0757209 6.36378e-11)
(0.52645 0.139927 2.57529e-08)
(0.545704 0.0553799 -1.2053e-13)
(0.537277 0.115944 6.29569e-11)
(0.493324 0.157521 2.0775e-08)
(0.542249 0.0641716 -6.22305e-13)
(0.535382 0.0904007 1.90632e-12)
(0.535073 0.0472665 6.61738e-11)
(0.523109 0.126691 2.78555e-11)
(0.528643 0.0555067 3.43402e-11)
(0.5253 0.0593425 4.36077e-12)
(0.523458 0.0523818 5.99274e-14)
(0.52138 0.0313259 1.33275e-11)
(0.507053 0.124313 8.22249e-12)
(0.509676 0.0794854 3.57194e-13)
(0.502642 0.131232 7.55886e-11)
(0.507508 0.0751534 2.2552e-11)
(0.506548 0.103936 4.46004e-11)
(0.502724 0.0953685 4.88136e-11)
(0.504325 0.0291588 6.86326e-13)
(0.493748 0.106875 9.24143e-11)
(0.491488 0.071373 1.73101e-12)
(0.479188 0.14283 3.07348e-07)
(0.490356 0.108932 7.58191e-11)
(0.483154 0.109662 5.52736e-12)
(0.47442 0.143605 -5.57182e-07)
(0.481033 0.0987227 8.56825e-11)
(0.477454 0.11236 4.46259e-12)
(0.475078 0.0413972 -4.16717e-14)
(0.471396 0.0901521 1.28793e-13)
(0.448451 0.157943 -1.94165e-07)
(0.46672 0.114479 9.79508e-11)
(0.465246 0.104329 7.72391e-11)
(0.461777 0.113116 1.29042e-10)
(0.45742 0.0882903 7.72789e-11)
(0.458484 0.122148 1.1906e-10)
(0.452081 0.149605 2.17343e-07)
(0.448702 0.0587842 2.27872e-11)
(0.447882 0.144557 -4.93923e-08)
(0.449862 0.128539 1.5226e-10)
(0.443076 0.0877186 4.72422e-11)
(0.444779 0.125561 9.67638e-11)
(0.439667 0.0632337 7.62642e-11)
(0.437277 0.0662613 -1.71137e-11)
(0.436758 0.0219405 5.1358e-13)
(0.433415 0.0365932 -1.91255e-11)
(0.430909 0.0571152 5.34433e-12)
(0.738799 0.101218 4.2611e-07)
(0.757401 0.0990531 -4.8246e-10)
(0.804382 0.0730485 3.35466e-07)
(0.800681 0.0752509 2.07111e-09)
(0.800121 0.0613773 2.17587e-12)
(0.718124 0.107245 -2.67212e-07)
(0.778085 0.076441 9.77758e-08)
(0.764246 0.0825213 -2.37382e-07)
(0.751223 0.0710761 -2.04261e-07)
(0.654716 0.125064 -1.15247e-07)
(0.757684 0.0724018 -2.29528e-07)
(0.743178 0.0814189 1.56404e-07)
(0.724055 0.09579 1.55997e-07)
(0.751382 0.0655376 -3.07551e-10)
(0.740921 0.0820773 -1.33929e-07)
(0.734283 0.0885402 1.82822e-07)
(0.731034 0.0987079 1.19718e-07)
(0.762476 0.0819754 4.16043e-07)
(0.728187 0.0861387 -6.48754e-08)
(0.733666 0.0734911 2.74011e-11)
(0.72519 0.0428105 -3.87515e-11)
(0.705116 0.078612 5.28229e-11)
(0.70589 0.0480801 1.76885e-11)
(0.685966 0.0559639 1.50822e-11)
(0.6774 0.0823818 3.26097e-11)
(0.66994 0.106379 1.40666e-07)
(0.66591 0.0999593 3.803e-11)
(0.676163 0.0375474 2.92731e-12)
(0.674681 0.0231601 9.12418e-13)
(0.667692 0.079638 7.0868e-11)
(0.637019 0.125381 3.69538e-08)
(0.64394 0.10426 1.1167e-10)
(0.634514 0.106081 -2.69879e-07)
(0.637102 0.0539566 4.22621e-11)
(0.634174 0.0732058 1.25435e-10)
(0.621008 0.12891 -3.14282e-07)
(0.632963 0.0579639 3.4588e-11)
(0.623095 0.0640506 -1.77672e-12)
(0.612081 0.128629 -8.43213e-08)
(0.617243 0.114687 4.87227e-11)
(0.607384 0.132015 -2.97127e-07)
(0.612231 0.034121 2.96582e-11)
(0.604621 0.114284 -2.64597e-07)
(0.601173 0.121468 2.38517e-07)
(0.602132 0.101013 -1.0828e-11)
(0.597767 0.119369 -8.63755e-11)
(0.59612 0.0501145 1.76377e-11)
(0.595547 0.0670915 8.98332e-12)
(0.589054 0.137031 1.39115e-07)
(0.594655 0.0368106 4.62449e-11)
(0.592797 0.0892595 -1.00557e-11)
(0.59011 0.0481626 1.74428e-11)
(0.583792 0.141841 1.49809e-08)
(0.581495 0.0621507 -7.80112e-14)
(0.578644 0.05612 -1.77917e-12)
(0.573409 0.143665 2.55096e-07)
(0.573677 0.110667 2.50951e-07)
(0.571186 0.0455818 -3.37392e-13)
(0.570873 0.0663897 -2.82933e-13)
(0.570343 0.138491 -4.27159e-07)
(0.568492 0.115407 -3.6174e-11)
(1.12185 0.101769 -4.72852e-07)
(1.16137 0.073301 2.40278e-07)
(1.15449 0.0444106 -3.07847e-12)
(1.15259 0.0616397 -3.45219e-08)
(1.1269 0.0862266 -3.20682e-07)
(1.138 0.0587586 -1.19646e-07)
(1.11875 0.063495 3.06809e-07)
(1.09785 0.0670963 6.31702e-07)
(1.08291 0.0577735 -4.38988e-08)
(1.0795 0.0587207 -5.26395e-08)
(1.07192 0.0557556 1.84003e-13)
(1.07431 0.0702612 6.93153e-07)
(1.06204 0.0503467 1.22335e-13)
(1.06118 0.0445894 6.28164e-14)
(1.01859 0.0979012 4.67182e-07)
(1.03462 0.0295413 6.31482e-13)
(1.01303 0.0164723 7.23292e-12)
(0.955348 0.0882255 -1.50184e-07)
(0.961921 0.0340151 6.91578e-13)
(0.958502 0.0784086 3.84251e-08)
(0.955977 0.0482625 2.76302e-12)
(0.951342 0.0750794 1.40007e-07)
(0.951895 0.068124 1.32354e-08)
(0.94737 0.0846199 -1.57892e-08)
(0.929726 0.027055 -1.27807e-13)
(0.916265 0.0766268 -2.0252e-07)
(0.91527 0.0824197 -1.42297e-07)
(0.910081 0.0858592 -1.27116e-07)
(0.903521 0.064514 -5.26563e-09)
(0.895727 0.0858789 -3.92324e-08)
(0.899809 0.0620166 -1.71086e-07)
(0.891796 0.0674627 2.01919e-07)
(0.888531 0.0411806 3.11524e-11)
(0.869933 0.0291308 4.46039e-12)
(0.869356 0.0493239 -1.59386e-11)
(4.51155 0.143257 4.29753e-07)
(4.48694 0.141091 -4.94439e-10)
(4.47433 0.141999 -1.9438e-07)
(4.44837 0.138894 1.40644e-07)
(4.54601 0.11453 3.28902e-07)
(4.52406 0.168449 -2.39558e-08)
(4.44606 0.131294 1.64004e-07)
(4.44359 0.148556 -5.89667e-08)
(4.52963 0.103575 1.26044e-07)
(4.26766 0.113484 -1.32169e-07)
(4.41873 0.111078 4.74876e-07)
(4.09299 0.133884 -7.63061e-08)
(4.02815 0.167217 2.53974e-07)
(4.32855 0.0614398 1.25922e-07)
(4.31068 0.073105 2.40426e-08)
(4.09045 0.133355 -5.65319e-07)
(4.19853 0.0985751 6.55763e-07)
(4.32731 0.0151176 1.00895e-07)
(4.2779 0.053056 -2.37024e-07)
(4.30984 0.000671587 1.83889e-08)
(4.27682 0.010649 1.38637e-08)
(4.29219 0.0310615 -2.73762e-07)
(4.26934 0.0260375 -1.70949e-07)
(4.19642 0.052843 3.67907e-07)
(4.23259 0.0676802 2.29309e-07)
(3.83634 0.184993 4.034e-07)
(4.19394 0.0247603 1.02709e-06)
(4.1306 0.0615931 1.8732e-07)
(4.16159 0.0572627 -5.10473e-08)
(4.19794 0.000466077 -3.73089e-08)
(4.19725 0.0196047 -4.41574e-07)
(4.1089 0.0657726 -1.57881e-07)
(4.03852 0.104133 -1.1383e-07)
(4.16467 0.0388081 4.77173e-07)
(4.16506 2.96702e-10 -4.47903e-13)
(3.75087 0.17637 -2.28114e-07)
(4.05007 0.0724142 3.18365e-07)
(3.9818 0.0901345 9.62095e-09)
(4.01699 0.0555299 -5.07037e-08)
(4.06509 1.9899e-09 3.627e-12)
(4.05067 0.0490164 -3.28772e-07)
(3.97879 0.0631553 -6.71759e-08)
(3.90253 0.105507 1.15674e-07)
(4.03916 0.000861404 5.53472e-07)
(4.01897 4.50182e-10 9.09899e-13)
(4.00481 0.0277524 2.27344e-08)
(4.00359 0.0286312 6.29169e-10)
(3.90775 0.080351 5.78716e-08)
(3.8995 0.0934384 6.96059e-07)
(3.95223 0.00160085 -4.0864e-08)
(3.93357 0.0464606 -1.41371e-07)
(3.88997 0.0577872 4.26786e-07)
(3.92391 1.40383e-09 -3.91647e-12)
(3.90288 0.00168381 -4.37681e-08)
(3.87965 0.0453155 1.62416e-08)
(3.83539 0.0638624 -1.33802e-07)
(3.87342 0.00912051 -8.58638e-08)
(3.86805 5.43431e-11 3.56982e-13)
(3.78371 0.0729556 2.37514e-07)
(3.70542 0.127327 -1.69146e-07)
(3.52239 0.139019 2.91981e-07)
(3.76002 0.0622104 -7.01652e-08)
(3.77895 0.0472741 -1.44927e-06)
(3.7757 0.0299484 -6.13806e-08)
(3.48241 0.15314 -1.15474e-07)
(3.74783 0.0382983 -1.00571e-08)
(3.72404 0.0465717 -3.31213e-07)
(3.64808 0.0956542 -5.62242e-08)
(3.71715 4.66065e-12 1.98093e-14)
(3.70659 0.0486472 2.19053e-07)
(3.70922 0.0186834 -4.14205e-07)
(3.65938 0.0727615 2.33346e-07)
(3.4519 0.154911 7.20378e-07)
(3.69058 0.0380282 -2.42639e-10)
(3.65451 0.0388356 -4.56853e-07)
(3.66456 0.0264157 -1.05465e-07)
(3.61881 0.0869325 -7.21042e-08)
(3.36277 0.194698 9.03369e-08)
(3.64022 0.0389266 -1.7479e-07)
(3.59955 0.0703893 -4.98538e-07)
(3.39954 0.123969 -2.64539e-07)
(3.51605 0.0999124 4.34659e-07)
(3.3903 0.163811 2.94077e-07)
(3.58288 0.0803456 -1.2481e-07)
(3.60267 0.0509622 3.59752e-07)
(3.62184 0.000683124 5.98574e-08)
(3.58972 0.0205873 -1.63938e-07)
(3.3037 0.192999 4.49213e-07)
(3.56843 0.0501194 -5.98794e-10)
(3.57032 0.0477056 5.69089e-07)
(3.55559 0.0516303 -6.03843e-07)
(3.53019 0.0615344 5.07897e-07)
(3.53017 0.0474789 -3.65382e-07)
(3.52396 0.0092307 3.85608e-07)
(3.48555 0.0727994 8.91386e-08)
(3.50774 8.53095e-05 -4.91192e-08)
(3.47694 0.0305637 -1.12845e-07)
(3.45854 0.0670011 -2.54095e-07)
(3.4737 0.0290099 1.81911e-07)
(3.45457 0.0215581 2.62729e-07)
(3.43642 0.0146488 -3.405e-12)
(3.42525 0.0319605 -2.19922e-07)
(3.39831 0.0644053 4.60621e-07)
(3.21177 0.138041 -2.31879e-08)
(3.39674 0.0514329 -7.42924e-07)
(3.36555 0.0925363 8.4345e-07)
(3.31378 0.0959229 -2.43033e-07)
(3.36748 0.062065 -5.22187e-09)
(3.37318 0.0476716 4.1505e-10)
(3.34539 0.0621601 -5.77352e-08)
(3.32732 0.0612683 -2.44828e-07)
(3.33048 2.65654e-10 1.83067e-12)
(3.31302 0.0247227 4.6083e-08)
(3.27994 0.0675924 3.53404e-07)
(3.26239 0.0810043 -9.28602e-08)
(3.20424 0.100245 -1.08185e-07)
(3.25331 0.0483619 3.80076e-08)
(3.25068 0.015987 7.65937e-07)
(3.24467 0.0280483 -3.97596e-07)
(3.22822 0.0483438 -1.54137e-08)
(3.22164 0.0940778 -9.13776e-08)
(3.2015 0.0102129 3.95857e-07)
(3.19607 0.0272678 -6.85967e-07)
(3.19276 0.0430222 -3.14187e-07)
(3.12518 0.11545 4.56335e-07)
(3.11675 0.103267 1.99229e-07)
(3.1308 0.0761381 -1.15185e-09)
(3.17234 0.0343238 6.12855e-07)
(3.14232 0.0636663 -7.08546e-09)
(3.07239 0.0844829 3.81003e-07)
(3.17065 0.0665172 -1.65436e-08)
(3.09977 0.0674465 -5.30132e-07)
(2.92519 0.127445 -2.78247e-07)
(3.05283 0.0861451 -2.05106e-08)
(3.15194 0.00124313 -4.82802e-08)
(3.07311 0.0688037 4.15302e-08)
(3.06454 0.0635331 -1.30119e-07)
(3.10863 0.012382 1.05478e-12)
(2.89421 0.160448 -7.49551e-08)
(2.92882 0.10844 -3.08106e-07)
(2.99725 0.0817293 -2.892e-07)
(3.03956 0.0155539 -4.60244e-08)
(3.03283 0.0224428 -3.16887e-07)
(3.03123 0.0202514 -5.00437e-12)
(2.92382 0.0821024 -2.44945e-07)
(3.0005 0.0413339 4.09605e-07)
(2.96776 0.0374968 2.76001e-08)
(2.86378 0.0789988 5.3516e-07)
(2.93197 0.000135845 1.11732e-07)
(2.92857 0.0151008 -2.62929e-07)
(2.8251 0.0662856 -1.95476e-07)
(2.70895 0.142681 -1.52975e-08)
(2.77075 0.103019 -2.88495e-07)
(2.78137 0.105415 6.56516e-08)
(2.87062 0.0559083 -1.92006e-07)
(2.83249 0.0689413 -8.38974e-09)
(2.86941 0.0511299 -2.25465e-07)
(2.84832 0.0546605 -4.95591e-08)
(2.85088 0.0174015 5.30841e-15)
(2.82243 0.0533141 -2.1242e-07)
(2.86101 0.0293413 -2.95764e-07)
(2.64282 0.1404 -1.02192e-07)
(2.75959 0.0734801 1.62997e-06)
(2.7775 0.0703273 2.0845e-07)
(2.79914 0.0370201 -6.67126e-08)
(2.77063 0.0713202 4.49624e-08)
(2.73226 0.0718782 -2.49773e-07)
(2.68061 0.0860027 -1.31598e-08)
(2.7335 0.068517 -4.76929e-08)
(2.7593 0.0510623 1.62423e-07)
(2.57281 0.114431 -1.06222e-07)
(2.72325 0.041204 2.97059e-07)
(2.72895 0.0531566 6.41531e-08)
(2.72323 0.0150623 1.54226e-13)
(2.72894 0.0397802 -8.15613e-08)
(2.7056 0.0488501 -7.91921e-08)
(2.67907 0.0617783 1.62118e-07)
(2.70245 0.0609567 9.62196e-09)
(2.66885 0.0694578 -2.62376e-07)
(2.67202 0.0642673 2.68861e-07)
(2.69596 0.0482679 7.64357e-08)
(2.62912 0.0657642 1.1786e-07)
(2.60155 0.0703598 7.31436e-08)
(2.61599 0.0352346 1.86579e-08)
(2.60489 0.0189212 9.37119e-13)
(2.57886 0.0611968 -2.34271e-08)
(2.5779 0.0602145 2.77469e-07)
(2.58426 0.0214411 -5.94799e-13)
(2.55387 0.0686759 -2.63688e-07)
(2.56671 0.0206358 -3.17142e-07)
(2.54078 0.0404851 -3.45356e-09)
(2.5577 0.0407205 -3.37913e-07)
(2.51377 0.0511953 -8.11876e-08)
(2.50094 0.0752671 4.10371e-07)
(2.49758 0.0653059 -7.16457e-09)
(2.50156 0.00601589 -3.47558e-07)
(2.46007 0.0732926 -6.03289e-07)
(2.44799 0.0339801 3.37561e-07)
(2.39017 0.0884463 2.72779e-07)
(2.43243 0.0588783 -8.46395e-08)
(2.40433 0.0721965 2.58375e-08)
(2.4126 0.0436363 -2.21294e-09)
(2.40485 0.0452501 -1.01832e-07)
(2.40177 0.0214866 1.87969e-13)
(2.37758 0.0536462 1.89175e-07)
(2.34201 0.0874625 -1.09358e-06)
(2.37134 0.0703863 1.65116e-08)
(2.36966 0.0649372 -9.24849e-08)
(2.34207 0.0775946 1.35534e-08)
(2.37214 0.0574057 5.00482e-08)
(2.35751 0.0673776 6.67357e-07)
(2.30695 0.0860039 -1.75839e-08)
(2.33755 0.0711209 -1.31662e-07)
(2.33724 0.0503767 -4.85735e-07)
(2.33005 0.0174998 3.32242e-13)
(2.30917 0.0614083 7.86861e-08)
(2.30384 0.0605345 6.20285e-08)
(2.23302 0.082432 1.71661e-07)
(2.26061 0.0735765 -4.9627e-08)
(2.25188 0.0575349 -1.4762e-07)
(2.22416 0.0671374 -1.2059e-08)
(2.2243 0.0477455 2.28313e-07)
(2.21486 0.0627085 -3.69051e-08)
(2.21832 0.0267724 -2.39409e-13)
(2.21062 0.0475042 -6.90518e-07)
(2.19401 0.0769332 -1.59322e-07)
(2.20212 0.0553066 -4.10129e-08)
(2.14497 0.0916334 -7.62377e-08)
(2.13974 0.0925484 4.65959e-07)
(2.1898 0.0325952 -4.22127e-07)
(2.16126 0.0784556 7.58963e-08)
(2.16109 0.0568344 3.99037e-08)
(2.13645 0.0769993 -2.27282e-08)
(2.14403 0.0391081 1.71354e-13)
(2.12991 0.0389214 9.61446e-08)
(2.12504 0.0632823 6.256e-08)
(2.10774 0.0656609 -2.98606e-07)
(2.02475 0.110442 2.45546e-07)
(2.06891 0.0488781 2.06519e-07)
(2.06612 0.0435517 1.81449e-07)
(2.04329 0.0667143 -2.69118e-08)
(2.03866 0.074663 3.61549e-09)
(2.0351 0.0564452 -1.46308e-07)
(2.02813 0.0370809 -5.31083e-14)
(2.02788 0.04509 5.16045e-09)
(1.98055 0.10762 8.72097e-08)
(1.99084 0.0884623 8.47202e-08)
(1.99296 0.0553967 -8.67427e-08)
(1.97687 0.0956344 5.514e-08)
(2.01145 0.131114 3.57176e-07)
(1.99032 0.0713503 1.6479e-07)
(1.98475 0.0279475 -1.64829e-13)
(1.9791 0.0596695 -3.11045e-09)
(1.96958 0.0534175 -6.2775e-08)
(1.93892 0.104757 5.26266e-07)
(1.95588 0.0783062 -2.70277e-10)
(1.96047 0.0322247 -6.60967e-14)
(1.93742 0.088455 -4.32821e-07)
(1.95231 0.0608881 3.67502e-07)
(1.95272 0.0646013 -7.91881e-08)
(1.94619 0.0813513 1.25656e-07)
(1.98133 0.151249 -6.27961e-07)
(1.92716 0.0168908 -1.93265e-13)
(1.92575 0.0426012 3.09108e-14)
(1.90932 0.0761437 -1.03461e-07)
(1.89994 0.0597046 -4.53408e-08)
(1.89307 0.0231579 1.09957e-13)
(1.88985 0.0454002 2.1452e-08)
(1.86467 0.0877853 -3.59405e-07)
(1.85598 0.0393897 -2.49033e-13)
(7.10058 0.578881 -3.79294e-07)
(6.11492 0.258769 -5.78184e-08)
(6.03628 0.261691 -2.71991e-07)
(7.06 0.342917 -3.78886e-07)
(6.39735 0.260563 -2.23927e-07)
(7.18528 0.314354 1.08585e-07)
(4.7258 0.293406 9.494e-08)
(6.26279 0.251872 9.96155e-07)
(6.41055 0.256559 -1.92149e-07)
(7.06586 0.245566 1.46158e-07)
(7.25067 0.255441 -2.59528e-07)
(7.08254 0.0759975 4.25938e-07)
(7.05771 0.0366218 -2.71802e-07)
(7.14404 0.0453773 3.89903e-07)
(7.12667 0.150651 -1.47578e-06)
(7.07128 0.0849245 2.24227e-07)
(7.11659 0.0792407 3.49003e-07)
(7.05829 0.100851 -5.39354e-07)
(7.0187 0.106305 8.04458e-08)
(7.05549 0.17753 -1.87142e-07)
(7.10794 0.0669699 2.85663e-08)
(7.11185 0.0411615 1.46597e-07)
(7.09946 0.136252 8.6655e-08)
(7.04632 0.138669 6.63638e-07)
(7.06191 0.0642293 -8.08059e-08)
(7.02333 0.0653917 -1.29201e-06)
(7.1125 0.0325284 9.27543e-08)
(7.00189 0.14959 -2.88234e-08)
(7.18107 0.0180618 3.08714e-07)
(7.18865 2.54853e-09 -4.9105e-12)
(7.09153 0.0230665 -1.02568e-07)
(7.14634 0.0154471 5.47772e-08)
(6.98534 0.0695338 8.1934e-08)
(7.06459 0.022463 2.9247e-07)
(6.64446 0.154668 6.86509e-07)
(6.90527 0.0479548 -2.11017e-06)
(7.05793 0.00760225 1.0066e-07)
(7.06496 6.8475e-11 4.44182e-13)
(7.07957 0.0361602 -1.53632e-07)
(6.92774 0.0304904 -7.52605e-08)
(7.03755 0.000285423 -5.57361e-08)
(6.88658 0.0332527 6.29849e-08)
(6.89622 0.0602286 1.84885e-07)
(7.00611 0.00258718 4.4782e-07)
(6.89365 0.0800568 4.36434e-07)
(7.01773 0.0145353 1.45476e-07)
(6.98969 0.0412377 -3.64842e-07)
(6.95749 8.87608e-11 3.21212e-13)
(6.94256 0.0210318 2.7061e-07)
(6.92881 0.0130954 1.99846e-10)
(6.90957 0.016664 1.8329e-07)
(6.8492 0.0211977 4.90229e-08)
(6.84693 0.0595747 8.04331e-07)
(6.85185 0.0386848 -6.42303e-08)
(6.84816 0.0752239 -4.48419e-08)
(6.86342 0.0121766 1.52257e-07)
(6.84486 0.0856169 -1.49612e-06)
(6.83952 0.0146962 -6.63702e-08)
(6.70199 0.070145 2.96689e-07)
(6.73826 0.00802766 4.77678e-07)
(6.71783 0.0466001 2.47675e-07)
(6.63531 0.0553303 -5.87368e-07)
(6.62992 0.15685 3.89086e-07)
(6.60949 0.0567709 -6.87064e-08)
(6.6941 0.0738226 2.68135e-07)
(6.78008 0.0948929 -9.32791e-07)
(6.60827 0.169892 -9.51867e-08)
(6.69856 0.017981 -6.93031e-08)
(6.66153 0.0458304 3.83595e-07)
(6.67135 0.00200806 -2.08098e-07)
(6.61582 0.0521289 5.45863e-08)
(6.80688 0.0377697 -2.78155e-07)
(6.53899 0.0546616 5.67117e-08)
(6.63737 7.82156e-12 1.83718e-14)
(6.36572 0.095305 -9.53694e-07)
(6.5915 0.014751 2.83304e-07)
(6.64336 8.28146e-09 -2.78823e-11)
(6.52078 0.136782 -3.94433e-07)
(6.44697 0.0491393 1.74499e-09)
(6.69195 0.0592494 -2.74606e-07)
(6.3415 0.0646149 -1.8493e-07)
(6.46973 0.0419875 3.1913e-07)
(6.58589 0.118252 -7.11089e-08)
(6.50584 0.00209422 -7.23733e-07)
(6.24384 0.13048 -5.77898e-08)
(6.52407 6.15149e-11 -2.78162e-13)
(6.45754 0.0279074 -7.90121e-08)
(6.50869 0.0127173 7.14223e-08)
(6.34907 0.095573 -1.22717e-07)
(6.48087 0.00791174 -4.08585e-07)
(6.41128 0.0275808 4.97396e-07)
(6.4939 0.105728 7.40275e-08)
(6.26476 0.0587809 -6.05529e-07)
(6.46012 0.00223076 -3.66387e-08)
(6.27652 0.060902 -2.94587e-07)
(6.36381 0.0218538 -2.49882e-07)
(6.41783 0.000490196 3.04112e-07)
(6.39101 0.0272099 -8.01395e-09)
(6.2779 0.0623667 -2.3472e-07)
(6.29244 0.0779599 -8.7187e-08)
(6.25439 0.0513892 6.3991e-08)
(6.35293 0.0270218 -1.31953e-07)
(6.48938 0.0832984 -8.74664e-08)
(6.25142 0.0814184 -8.63775e-08)
(6.41103 4.43559e-10 3.42913e-12)
(6.31374 0.152839 5.36315e-07)
(6.34086 2.08961e-10 -5.19879e-13)
(6.16498 0.0782918 3.75833e-08)
(6.33716 0.00528913 -6.08966e-09)
(6.24493 0.0413632 -8.95312e-10)
(6.31797 0.0124639 6.35596e-07)
(6.23743 0.0285007 -2.40121e-07)
(6.31161 0.0194899 1.31158e-07)
(6.28921 3.55854e-12 -2.80791e-14)
(6.10631 0.0676771 1.07355e-07)
(6.1956 0.135675 -6.21423e-07)
(6.15963 0.0705215 -2.71493e-07)
(6.20483 0.0166024 7.73853e-08)
(6.1286 0.189283 5.25846e-08)
(6.15542 0.00632968 -7.81561e-07)
(6.12081 0.0309683 4.15828e-07)
(6.20516 0.00379649 4.02041e-08)
(6.16089 0.0518879 -4.95888e-07)
(6.11078 0.0474472 1.1504e-07)
(6.17092 0.0211877 -3.33092e-08)
(5.95764 0.153428 -1.88178e-07)
(6.0211 0.0747096 3.03811e-07)
(6.07261 0.0406053 -2.77592e-07)
(6.00136 0.0736578 -2.15588e-07)
(5.89921 0.080399 -9.10974e-09)
(6.05935 0.0409705 -1.0673e-07)
(6.15462 0.00518219 -4.9719e-07)
(6.18499 0.125453 -2.9519e-07)
(5.87908 0.0796233 -6.96211e-07)
(6.02966 0.0345757 -1.79442e-07)
(6.09231 0.00114372 7.82921e-09)
(6.12423 0.110399 1.14069e-07)
(5.98358 0.14131 5.55638e-08)
(5.80012 0.101626 -4.82421e-07)
(5.97552 0.0163224 1.77429e-07)
(6.02484 0.00520819 5.91806e-08)
(5.94913 0.0189112 1.73298e-07)
(6.01408 2.32826e-09 9.64325e-13)
(5.92225 0.0482124 -1.07753e-09)
(5.93084 0.0413794 -6.43226e-09)
(5.99326 0.00031764 6.85642e-08)
(5.9127 0.0526315 -7.16395e-07)
(6.09469 0.111898 -3.56655e-08)
(5.80222 0.0817282 -3.98378e-08)
(5.81102 0.100628 -8.534e-07)
(5.96674 1.20778e-09 -2.02352e-12)
(5.82836 0.208159 -3.06338e-07)
(5.87664 0.0132479 1.33172e-07)
(5.87922 0.200344 2.35043e-07)
(5.7769 0.0650803 1.1627e-07)
(5.82826 0.0243177 -1.63992e-08)
(5.79898 0.0387048 5.1745e-07)
(5.84275 0.0160095 -5.32341e-08)
(5.85958 0.00596771 -1.89286e-07)
(5.81575 0.0380081 -1.64894e-07)
(5.81799 4.89819e-11 8.21041e-14)
(5.80371 0.00464467 -8.18603e-09)
(5.9442 0.0923875 -1.41217e-07)
(5.87697 0.125204 8.53586e-08)
(5.7113 0.0309179 7.00015e-07)
(5.60471 0.0768281 -2.21992e-08)
(5.6815 0.0444013 -2.0482e-08)
(5.69559 0.0198085 5.11817e-07)
(5.73945 0.00896784 -2.09013e-08)
(5.70881 0.0219961 1.56526e-07)
(5.72318 0.00199706 -3.23602e-07)
(5.76358 0.0709267 -5.95782e-07)
(5.81866 0.0973111 2.78176e-07)
(5.68523 0.00559403 2.92836e-08)
(5.66892 0.187894 3.15886e-07)
(5.54202 0.0627205 4.91106e-09)
(5.61724 0.0333841 3.26229e-08)
(5.80018 0.105368 1.84227e-07)
(5.60895 0.0100011 3.69265e-07)
(5.52537 0.0542219 2.08473e-07)
(5.58117 0.0377291 -5.1846e-07)
(5.50158 0.0512147 1.76265e-07)
(5.75085 0.129202 5.0356e-07)
(5.51793 0.0450586 -1.36436e-09)
(5.47728 0.063649 3.28278e-08)
(5.55882 0.00884014 -3.76305e-07)
(5.49497 0.0442316 3.81986e-07)
(5.6923 0.0972972 1.055e-07)
(5.48152 0.0712232 -7.38972e-08)
(5.41288 0.0694125 -9.88485e-08)
(5.49124 0.0213862 -1.02466e-07)
(5.47298 0.0312521 1.79132e-07)
(5.64305 0.1238 9.50922e-08)
(5.49279 1.8938e-12 -3.50797e-15)
(5.47711 0.02136 -2.83707e-08)
(5.46009 0.0242754 6.7736e-08)
(5.49241 3.1017e-09 -2.26616e-11)
(5.45362 0.0368421 -6.78674e-07)
(5.43061 3.118e-11 -2.58722e-14)
(5.51936 0.160249 -7.98941e-08)
(5.40074 3.2055e-10 -1.55091e-12)
(5.591 0.0823205 -6.53803e-08)
(5.41625 0.00357666 1.23166e-08)
(5.31865 0.0545131 -1.94334e-07)
(5.25218 0.0630262 -4.39669e-07)
(5.34247 0.0266738 -1.94966e-07)
(5.34447 0.0132391 -2.40399e-08)
(5.26121 0.0510485 1.62464e-07)
(5.31023 0.0375844 5.46997e-07)
(5.19964 0.0759386 -5.595e-08)
(5.30412 0.0109246 2.61395e-07)
(5.53466 0.0980377 -5.2673e-09)
(5.20306 0.0707036 -1.70351e-07)
(5.48146 0.0865117 -6.81212e-09)
(5.48208 0.150137 3.06143e-07)
(5.27295 0.0295865 3.80862e-08)
(5.22697 0.050468 3.63011e-07)
(5.44784 0.129052 1.18223e-07)
(5.18505 0.0684037 -3.04678e-07)
(5.26617 8.76265e-11 -1.46338e-13)
(5.15093 0.0665136 5.41648e-07)
(5.15771 0.0801044 1.01094e-07)
(5.22589 0.00713422 -7.2031e-08)
(5.20812 0.0073169 -6.86202e-08)
(5.12683 0.0720959 -1.85742e-08)
(5.13692 0.065179 -3.29037e-08)
(5.13475 0.0426198 -5.67632e-08)
(5.14798 3.11827e-10 -4.87671e-13)
(5.36937 0.128171 -2.44315e-07)
(5.06475 0.0694773 -1.14448e-07)
(5.08517 0.0607919 -7.61762e-08)
(5.17185 0.0524324 -1.29244e-07)
(5.07096 0.0580982 -5.18342e-09)
(5.12345 0.00788315 -4.84895e-09)
(5.32053 0.0877452 3.24568e-10)
(5.25919 0.171818 -1.1311e-07)
(5.09096 0.0315436 -1.29499e-07)
(5.08054 0.0100123 2.02145e-10)
(5.34866 0.0938818 -3.37766e-10)
(5.0724 1.0859e-09 6.11073e-12)
(5.05974 0.0302447 -1.3811e-07)
(5.03131 0.0414864 1.08619e-08)
(5.02766 5.68444e-11 3.04407e-14)
(4.96261 0.0708117 -7.01586e-08)
(5.00791 0.0274287 -2.37338e-07)
(4.94669 0.0679385 -3.61009e-08)
(5.00543 8.82956e-11 -5.87827e-13)
(4.99506 3.59155e-11 -3.96202e-14)
(4.99547 0.0128157 -1.25631e-07)
(4.9541 0.0444767 1.20643e-07)
(4.97285 0.00276705 5.24239e-08)
(5.19607 0.140627 7.88307e-08)
(4.95597 0.00599285 2.81641e-07)
(5.16012 0.1758 -1.16522e-07)
(4.9228 0.0148699 -2.84004e-07)
(5.22802 0.10783 3.11114e-07)
(4.89627 0.0328191 1.7004e-07)
(4.81923 0.0732076 1.6939e-07)
(4.88791 0.0212826 -2.40803e-07)
(5.12107 0.0826181 1.9602e-07)
(5.16099 0.112144 -1.39133e-07)
(4.86657 0.0369395 -1.88238e-07)
(4.87499 2.24752e-11 -7.40401e-14)
(4.86529 0.0267106 2.81253e-07)
(4.85745 0.0402107 -4.79789e-07)
(5.14729 0.0987795 1.16257e-07)
(4.80987 0.0349378 2.45886e-07)
(4.72531 0.0807947 7.37325e-07)
(4.71954 0.071624 -3.00993e-07)
(4.73543 0.0418126 1.89829e-07)
(4.73197 0.0356178 1.12716e-06)
(5.04009 0.12703 2.67445e-08)
(4.70237 0.0803823 -3.21558e-07)
(4.72593 0.0283558 -1.01769e-07)
(5.0275 0.12097 1.11941e-07)
(4.70664 0.054221 3.72103e-07)
(4.69402 0.0440474 2.59233e-07)
(4.70308 0.0345044 -1.26855e-07)
(4.71187 6.66822e-11 -2.26604e-15)
(4.70905 0.0313317 2.32136e-07)
(4.66377 0.0647388 -1.70252e-07)
(4.67847 0.022002 2.48583e-08)
(4.6629 0.0511947 -1.1268e-07)
(4.62904 0.0619159 2.1712e-07)
(4.6483 0.0300195 -2.01647e-07)
(4.65326 0.0235574 -2.88797e-07)
(4.92277 0.0911773 8.90846e-08)
(4.64591 0.0103504 5.47739e-08)
(4.95139 0.133444 6.15694e-08)
(4.61387 0.0516849 -5.89442e-08)
(4.5889 0.0164709 -7.80966e-08)
(4.72358 0.0772019 -1.83913e-07)
(4.57804 0.0468529 -1.22953e-06)
(4.56413 0.0386201 -4.53765e-08)
(4.55497 0.0212185 7.60888e-08)
(4.55284 2.71474e-09 8.2555e-12)
(4.87446 0.169926 1.46084e-07)
(4.54654 0.0016824 -7.2934e-08)
(4.88839 0.117619 2.08764e-07)
(4.50846 0.059918 2.85299e-07)
(4.48434 0.0655679 -2.45917e-08)
(4.48091 0.0593444 1.73621e-07)
(4.47341 0.000351099 1.16664e-08)
(4.44015 0.0537726 -5.02155e-08)
(4.41892 0.0296813 -3.4706e-07)
(4.7399 0.187609 -5.10275e-08)
(4.67688 0.0899841 -1.65086e-07)
(9.89794 0.239084 -1.71252e-07)
(9.92413 0.223824 6.4908e-07)
(9.99803 0.160008 -5.57912e-07)
(9.98304 0.147206 5.87383e-08)
(9.91415 0.0751703 -8.35515e-08)
(9.94782 0.116542 8.28153e-08)
(9.97039 0.0583902 5.25604e-08)
(9.99442 0.0107746 -9.5436e-08)
(9.86708 0.159476 -2.6845e-07)
(9.66166 0.183277 -8.74455e-08)
(9.94471 0.000321349 8.64e-07)
(9.7564 0.0706285 -6.28679e-07)
(9.84679 0.102487 -1.22967e-07)
(9.67661 0.193729 8.09126e-08)
(9.68329 0.216287 7.32806e-07)
(9.87764 0.168339 -6.71654e-07)
(10.0083 1.94382e-08 8.85651e-12)
(9.74363 0.0968731 -7.04607e-07)
(9.97674 0.00243173 7.1569e-08)
(9.99948 0.0368185 -3.38826e-08)
(9.95187 0.0812807 7.53734e-08)
(9.9858 0.00349519 -1.2466e-07)
(9.88426 0.084511 1.20536e-07)
(9.95522 0.00387833 -1.50234e-07)
(9.73183 0.125958 -9.39888e-08)
(9.96365 5.01599e-09 2.12706e-11)
(9.97055 1.75948e-08 -1.49367e-11)
(9.64459 0.176132 -3.54354e-07)
(9.56779 0.205874 -5.65326e-07)
(9.78378 1.07841e-07 -8.31166e-10)
(9.62065 0.157277 -3.2736e-07)
(9.92954 0.0309379 -1.47473e-07)
(9.58162 0.00825149 -2.0107e-07)
(9.977 0.0570018 -5.49617e-07)
(9.90352 0.000779433 -3.56229e-10)
(9.73348 0.12617 3.67078e-07)
(9.89491 5.99702e-07 -1.18671e-09)
(9.81913 0.0421905 -3.53227e-07)
(9.77177 1.3782e-08 -9.48096e-11)
(9.74099 0.0014566 -1.40749e-06)
(9.62304 0.127576 1.53219e-07)
(9.52047 0.163122 -3.95459e-07)
(9.78316 0.009548 -5.63937e-07)
(9.53534 0.162438 -6.42816e-07)
(9.64752 0.0875244 -2.57462e-07)
(9.5976 0.0474655 -1.36469e-06)
(9.74434 1.66677e-08 -3.00884e-11)