/*--------------------------------*- C++ -*----------------------------------*\
  =========                 |
  \\      /  F ield         | OpenFOAM: The Open Source CFD Toolbox
   \\    /   O peration     | Website:  https://openfoam.org
    \\  /    A nd           | Version:  7
     \\/     M anipulation  |
\*---------------------------------------------------------------------------*/
FoamFile
{
    version     2.0;
    format      ascii;
    class       scalarField;
    location    "0.1375/lagrangian/reactingCloud1";
    object      d;
}
// * * * * * * * * * * * * * * * * * * * * * * * * * * * * * * * * * * * * * //


1216
(
2e-07
2e-07
2e-07
2e-07
2e-07
2e-07
2e-07
2e-07
2e-07
2e-07
2e-07
2e-07
2e-07
2e-07
2e-07
2e-07
2e-07
2e-07
2e-07
2e-07
2e-07
2e-07
2e-07
2e-07
2e-07
2e-07
2e-07
2e-07
2e-07
2e-07
2e-07
2e-07
2e-07
2e-07
2e-07
2e-07
2e-07
2e-07
2e-07
2e-07
2e-07
2e-07
2e-07
1.08523e-06
2e-07
2e-07
2e-07
2e-07
2e-07
2e-07
2e-07
2e-07
2e-07
2e-07
2e-07
2e-07
2e-07
2e-07
2e-07
2e-07
2e-07
2e-07
2e-07
2e-07
2e-07
2e-07
2e-07
2e-07
2e-07
2e-07
2e-07
2e-07
2e-07
2e-07
2e-07
2e-07
2e-07
2e-07
2e-07
2e-07
2e-07
2e-07
2e-07
2e-07
2e-07
2e-07
2e-07
2e-07
2e-07
2e-07
2e-07
2e-07
2e-07
2e-07
2e-07
2e-07
2e-07
2e-07
2e-07
2e-07
2e-07
2e-07
2e-07
2e-07
2e-07
2e-07
2e-07
2e-07
2e-07
2e-07
2e-07
2e-07
2e-07
2e-07
2e-07
2e-07
2e-07
2e-07
2e-07
2e-07
2e-07
2e-07
2e-07
2e-07
2e-07
2e-07
2e-07
2e-07
2e-07
2e-07
2e-07
2e-07
2e-07
2e-07
2e-07
2e-07
2e-07
2e-07
2e-07
2e-07
2e-07
2e-07
2e-07
2e-07
2e-07
2e-07
2e-07
2e-07
2e-07
2e-07
2e-07
2e-07
2e-07
2e-07
2e-07
2e-07
2e-07
2e-07
2e-07
2e-07
2e-07
2e-07
2e-07
2e-07
2e-07
2e-07
2e-07
2e-07
2e-07
2e-07
2e-07
2e-07
2e-07
2e-07
2e-07
2e-07
2e-07
2e-07
2e-07
2e-07
2e-07
2e-07
2e-07
2e-07
2e-07
2e-07
2e-07
2e-07
2e-07
2e-07
2e-07
2e-07
2e-07
2e-07
2e-07
2e-07
2e-07
2e-07
2e-07
2e-07
2e-07
2e-07
2e-07
2e-07
2e-07
2e-07
2e-07
2e-07
2e-07
2e-07
2e-07
2e-07
2e-07
2e-07
2e-07
2e-07
2e-07
2e-07
2e-07
2e-07
2e-07
2e-07
2e-07
2e-07
2e-07
2e-07
2e-07
2e-07
2e-07
2e-07
2e-07
2e-07
2e-07
2e-07
2e-07
2e-07
2e-07
2e-07
2e-07
2e-07
2e-07
2e-07
2e-07
2e-07
2e-07
2e-07
2e-07
2e-07
4.90313e-07
2e-07
2e-07
2e-07
2e-07
2e-07
2e-07
2e-07
2e-07
2e-07
2e-07
2e-07
2e-07
2e-07
2.30118e-07
2e-07
2e-07
2e-07
2e-07
2e-07
2e-07
2e-07
2e-07
2e-07
2e-07
2e-07
2e-07
2e-07
2e-07
2e-07
2e-07
2e-07
2e-07
2e-07
2e-07
6.51127e-07
1.09719e-06
1.2578e-06
1.38587e-06
2.0362e-06
1.02477e-06
1.53747e-06
1.14323e-06
1.4718e-06
1.87281e-06
1.25121e-06
1.14614e-06
9.50174e-07
2e-07
2e-07
1.57628e-06
1.69583e-06
2e-07
2e-07
2e-07
2e-07
2e-07
2e-07
2e-07
2e-07
1.12651e-06
2e-07
2e-07
2e-07
2e-07
2e-07
2e-07
1.11122e-06
2e-07
2e-07
8.9932e-07
2e-07
2.56003e-06
2e-07
2e-07
2e-07
2e-07
1.36381e-06
2e-07
2e-07
2e-07
2e-07
2e-07
1.39293e-06
2e-07
2e-07
2e-07
2e-07
2e-07
2e-07
2e-07
2e-07
2e-07
2.61759e-06
9.28411e-07
1.07094e-06
2e-07
2e-07
2e-07
8.78955e-07
2e-07
2e-07
1.12988e-06
2e-07
2e-07
2e-07
2e-07
8.97113e-07
2e-07
2e-07
2e-07
2e-07
4.92638e-07
2e-07
2e-07
1.14623e-06
2.4699e-06
9.72439e-07
2e-07
3.22762e-06
2e-07
2e-07
7.24464e-07
2e-07
2e-07
2e-07
2e-07
2e-07
2e-07
2e-07
2e-07
2e-07
2e-07
2e-07
2e-07
2e-07
2e-07
2e-07
8.58735e-07
2e-07
5.96718e-07
1.86254e-06
2e-07
2e-07
2e-07
2e-07
2e-07
2e-07
2e-07
2e-07
2.03115e-06
2e-07
2e-07
2e-07
2e-07
2e-07
2e-07
2e-07
2e-07
1.3863e-06
1.70251e-06
2e-07
2e-07
2e-07
2e-07
2e-07
2e-07
8.94621e-07
2e-07
2e-07
2e-07
2e-07
2e-07
5.46547e-07
1.21831e-06
2e-07
2e-07
2e-07
2e-07
2e-07
2e-07
2e-07
2e-07
2e-07
2e-07
2e-07
8.42918e-07
1.32052e-06
1.28764e-06
2e-07
2e-07
2e-07
2e-07
2e-07
2e-07
2e-07
8.92904e-07
2e-07
2e-07
2e-07
2e-07
2e-07
2e-07
2e-07
2e-07
1.15713e-06
2e-07
2e-07
2e-07
2e-07
2e-07
2e-07
2e-07
2e-07
2e-07
2e-07
2e-07
2e-07
2e-07
2e-07
2e-07
2e-07
2e-07
2e-07
2e-07
2e-07
2e-07
2e-07
2e-07
2e-07
2e-07
2e-07
2e-07
2e-07
2e-07
2e-07
2e-07
2e-07
2e-07
2e-07
2e-07
2e-07
2e-07
2e-07
2e-07
2e-07
2e-07
2e-07
2e-07
2e-07
2e-07
2e-07
2e-07
2e-07
2e-07
2e-07
2e-07
2e-07
2e-07
2e-07
2e-07
2e-07
2e-07
2.17934e-06
2e-07
2e-07
2e-07
2e-07
2e-07
2e-07
2e-07
2e-07
9.31731e-07
2e-07
2e-07
2e-07
2e-07
2e-07
2e-07
2e-07
1.31713e-06
2e-07
2e-07
2.82455e-07
9.48988e-07
2e-07
2e-07
2e-07
2e-07
1.54147e-06
2e-07
2e-07
2e-07
2e-07
2e-07
2e-07
5.97078e-07
2e-07
2e-07
2e-07
2e-07
2e-07
2e-07
2e-07
2e-07
7.2717e-07
7.74159e-07
1.35381e-06
1.09461e-06
1.16964e-06
1.72104e-06
7.71117e-07
3.21487e-06
1.38425e-06
8.87753e-07
1.45353e-06
1.89117e-06
2.375e-06
9.51622e-07
1.74138e-06
3.87855e-06
2.03557e-06
2.08786e-06
2.01173e-06
1.95654e-06
3.04308e-06
2.01357e-06
2.79269e-06
1.63297e-06
1.33117e-06
1.2897e-06
2e-07
1.51872e-06
2e-07
2e-07
2e-07
2e-07
1.22019e-06
2e-07
1.5321e-06
2e-07
2e-07
2e-07
3.16517e-06
2e-07
2e-07
2e-07
1.10552e-06
2e-07
1.23746e-06
2e-07
2e-07
2e-07
2e-07
2e-07
2e-07
2e-07
1.00686e-06
2e-07
4.27508e-06
2e-07
3.49525e-06
2e-07
1.48131e-06
2e-07
2e-07
2.37429e-06
1.1848e-06
5.09097e-07
1.07087e-06
3.57591e-06
3.70029e-06
2e-07
2e-07
2e-07
2e-07
3.25834e-06
2e-07
2e-07
1.61085e-06
2e-07
2e-07
1.93604e-06
2e-07
3.35699e-06
1.6954e-06
2e-07
3.43628e-06
2e-07
1.70149e-06
2e-07
2e-07
2e-07
1.54248e-06
2e-07
2e-07
2.27911e-06
1.67368e-06
2e-07
2e-07
2e-07
2e-07
2e-07
2e-07
9.81251e-07
2e-07
2e-07
2.77799e-06
1.86393e-06
2e-07
1.41546e-06
2e-07
3.97177e-06
2e-07
2e-07
2e-07
2e-07
2e-07
2e-07
1.44836e-06
1.72671e-06
6.65435e-07
2e-07
1.33833e-06
2e-07
2e-07
2e-07
2e-07
2e-07
2e-07
1.20581e-06
1.0334e-06
2e-07
1.1911e-06
1.74818e-06
2e-07
2e-07
3.06864e-06
1.0989e-06
2e-07
2e-07
3.55138e-06
2.20393e-06
1.69736e-06
2e-07
2e-07
2e-07
2e-07
2e-07
2e-07
2e-07
2e-07
2.44908e-06
1.60833e-06
1.03688e-06
2e-07
1.31232e-06
2e-07
1.71316e-06
2e-07
2e-07
2e-07
2e-07
2e-07
2e-07
2e-07
2e-07
2.55776e-06
2.05138e-06
2e-07
4.97208e-07
2e-07
2e-07
2e-07
2e-07
2e-07
2.23605e-06
2.03728e-06
2e-07
1.88958e-06
2e-07
2e-07
2.2178e-06
2e-07
2e-07
2e-07
2e-07
1.96765e-06
2e-07
2e-07
2e-07
2e-07
2.63675e-06
2e-07
2e-07
2e-07
2e-07
1.92472e-06
2e-07
2e-07
2e-07
2e-07
2e-07
2e-07
2.03405e-06
2e-07
1.98891e-06
2e-07
2e-07
2e-07
2e-07
2e-07
2e-07
2e-07
2e-07
2e-07
1.89434e-06
2e-07
3.06405e-06
3.34215e-06
2e-07
2e-07
1.47442e-06
2e-07
2e-07
2e-07
7.70101e-07
2e-07
2e-07
2e-07
2e-07
2e-07
2e-07
1.52355e-06
2e-07
2e-07
1.87371e-06
2e-07
2e-07
2.20407e-06
1.44064e-06
2e-07
2e-07
3.44322e-06
2e-07
2e-07
2e-07
2e-07
2e-07
2e-07
2e-07
2e-07
2e-07
2e-07
2e-07
2e-07
1.85661e-06
2e-07
1.04505e-06
2e-07
2.1877e-06
2e-07
2e-07
2e-07
3.43254e-06
1.48515e-06
2e-07
2e-07
2e-07
2e-07
1.46445e-06
2e-07
2e-07
2e-07
2e-07
2e-07
2.19262e-06
2e-07
2e-07
1.49499e-06
2e-07
2e-07
2e-07
2e-07
2e-07
2e-07
2e-07
2e-07
2e-07
2e-07
2e-07
1.93808e-06
2e-07
1.43667e-06
2e-07
2e-07
2.74953e-06
2e-07
2e-07
2e-07
2e-07
1.26011e-06
2e-07
1.49711e-06
2e-07
2e-07
2e-07
2e-07
2e-07
2e-07
1.05245e-06
1.76864e-06
1.9254e-06
2.61615e-06
2.92304e-06
3.44445e-06
3.16408e-06
2.89148e-06
2.89254e-06
4.05497e-06
7.20404e-06
2.0362e-06
2.58265e-06
3.91999e-06
2.40229e-06
1.92511e-06
2.21606e-06
2.17738e-06
2.49525e-06
3.15785e-06
2.56116e-06
2.45713e-06
2.51068e-06
2.49555e-06
2.89749e-06
5.34463e-06
2.07083e-06
2.48265e-06
2.4782e-06
1.55195e-06
2.02282e-06
4.40494e-06
2.95574e-06
2.46139e-06
2.67199e-06
2.64615e-06
2.45918e-06
2.79852e-06
2.43969e-06
2.98317e-06
2.44607e-06
4.82636e-06
2.35342e-06
2.52142e-06
2.51378e-06
3.35388e-06
2.38344e-06
3.37376e-06
2.3844e-06
4.38781e-06
3.32816e-06
3.60451e-06
2.37343e-06
4.27993e-06
3.66766e-06
2.91175e-06
2.3631e-06
2.35598e-06
2.33896e-06
2.51254e-06
2.51847e-06
2.34292e-06
2.31564e-06
2.37278e-06
3.20967e-06
2.36642e-06
2.32847e-06
2.58667e-06
2.43108e-06
2.3273e-06
2.92191e-06
2.31205e-06
2.66702e-06
2.7762e-06
3.77217e-06
2.34015e-06
2.37626e-06
2.28786e-06
2.95964e-06
2.24459e-06
2.2761e-06
2.27764e-06
3.13616e-06
2.26885e-06
2.27196e-06
2.27138e-06
2.68704e-06
2.69877e-06
2.33494e-06
2.68785e-06
2.80395e-06
2.25685e-06
3.28192e-06
2.15e-06
3.24022e-06
2.16612e-06
2.85104e-06
2.43223e-06
2.21852e-06
4.28632e-06
2.1939e-06
2.83112e-06
3.19259e-06
2.27327e-06
2.25775e-06
2.18802e-06
2.85947e-06
2.31901e-06
2.21912e-06
2.78685e-06
2.21684e-06
2.54515e-06
1.58807e-06
2.05417e-06
2.07034e-06
2.38728e-06
2.1091e-06
2.02779e-06
2.09981e-06
2.08418e-06
2.10095e-06
2.52894e-06
2.17369e-06
2.08651e-06
2.1486e-06
2.70854e-06
2.16033e-06
2.25638e-06
2.24922e-06
2.16732e-06
2.61446e-06
2.83168e-06
2.51937e-06
2.01401e-06
2.00461e-06
2.0019e-06
2.28998e-06
3.30502e-06
2.08451e-06
2.31077e-06
2.91585e-06
1.98809e-06
1.98093e-06
2.65063e-06
3.45171e-06
2.07838e-06
3.15684e-06
3.82954e-06
1.91795e-06
1.90745e-06
2.63494e-06
2.54032e-06
1.88561e-06
3.38454e-06
4.91442e-06
2.33761e-06
1.9238e-06
1.8372e-06
2.15216e-06
1.822e-06
1.82409e-06
1.81389e-06
1.92636e-06
1.92693e-06
1.75533e-06
1.77662e-06
1.76687e-06
1.91899e-06
2.27653e-06
1.75305e-06
1.73225e-06
1.74278e-06
1.2054e-06
2.06402e-06
1.72735e-06
2.08273e-06
1.69559e-06
2.8628e-06
5.52097e-06
1.66025e-06
3.74125e-06
1.82518e-06
3.7553e-06
1.64051e-06
2.16026e-06
4.40634e-06
1.63101e-06
1.63279e-06
1.6242e-06
1.62796e-06
2.22813e-06
2.76688e-06
2.89638e-06
2.46284e-06
1.81947e-06
3.72943e-06
1.57724e-06
1.54586e-06
1.99979e-06
1.52358e-06
2.55465e-06
2.26218e-06
1.52983e-06
1.79167e-06
1.61023e-06
1.30038e-06
2.24779e-06
1.7793e-06
3.05013e-06
1.48946e-06
1.46961e-06
1.43023e-06
1.55002e-06
1.8859e-06
2.36593e-06
1.38852e-06
1.51293e-06
1.64569e-06
1.35815e-06
1.95964e-06
2.48785e-06
1.32772e-06
1.99894e-06
1.4813e-06
1.30062e-06
1.45123e-06
1.96886e-06
3.69339e-06
1.26923e-06
9.08286e-07
1.62804e-06
1.23598e-06
1.49966e-06
1.72206e-06
1.26065e-06
1.86947e-06
1.19467e-06
1.57758e-06
1.61856e-06
1.48186e-06
2.23578e-06
1.50858e-06
1.41584e-06
1.74676e-06
1.03248e-06
2.10025e-06
2.19488e-06
1.03624e-06
2.71428e-06
1.22752e-06
3.57086e-06
3.03597e-06
9.46477e-07
9.34339e-07
9.69714e-07
1.29284e-06
3.49412e-06
2.10074e-06
1.81174e-06
7.81674e-07
6.51277e-06
8.39876e-07
1.13508e-06
7.35957e-07
7.29613e-07
3.59662e-06
3.66951e-06
1.17144e-06
2.29465e-06
1.84987e-06
6.89062e-07
6.53107e-07
2.82311e-06
5.81425e-07
5.42015e-07
5.44863e-07
4.50107e-06
3.96037e-07
3.53543e-07
1.95038e-06
5.82817e-06
2.54215e-06
2.79078e-07
1.3644e-06
9.52233e-07
1.78348e-06
3.40835e-06
9.47867e-07
1.22407e-06
5.22098e-07
2e-07
2.12893e-06
2.19059e-06
1.17848e-06
2e-07
2e-07
3.20787e-06
2e-07
2e-07
2e-07
1.91793e-06
6.20018e-07
1.235e-06
1.36557e-06
2e-07
2e-07
1.38676e-06
1.28134e-06
2e-07
1.94074e-06
2e-07
1.70658e-06
2e-07
3.52747e-06
3.44618e-06
2.5063e-06
2.99192e-06
2e-07
2e-07
2.94342e-06
2.2564e-06
2e-07
2e-07
2.24553e-06
2e-07
2e-07
2e-07
2e-07
2e-07
2e-07
5.85205e-06
2e-07
2e-07
8.6891e-07
1.09172e-06
2.16686e-06
1.95122e-06
2.01266e-06
9.73227e-07
1.36878e-06
1.38359e-06
1.55459e-06
1.31219e-06
3.46606e-06
9.94201e-07
1.84915e-06
5.63853e-07
1.97758e-06
2.64651e-06
1.23672e-06
1.36411e-06
9.42343e-07
1.08306e-06
1.96594e-06
2.06249e-06
1.10447e-06
2.59389e-06
6.93359e-07
)


// ************************************************************************* //
