/*--------------------------------*- C++ -*----------------------------------*\
  =========                 |
  \\      /  F ield         | OpenFOAM: The Open Source CFD Toolbox
   \\    /   O peration     | Website:  https://openfoam.org
    \\  /    A nd           | Version:  7
     \\/     M anipulation  |
\*---------------------------------------------------------------------------*/
FoamFile
{
    version     2.0;
    format      ascii;
    class       labelField;
    location    "0.1375/lagrangian/reactingCloud1";
    object      origId;
}
// * * * * * * * * * * * * * * * * * * * * * * * * * * * * * * * * * * * * * //


1216
(
1145
1313
1316
1321
1318
1323
1320
1327
1329
1332
1326
1331
1333
1328
1334
1338
1335
1324
1325
1344
1342
1330
1347
1304
1337
1350
1336
1348
1349
1352
1351
1357
1340
1354
1358
1359
1356
1346
1343
1364
1362
1355
1363
1226
1371
1366
1365
1370
1361
1367
1376
1339
1345
1322
1377
1381
1372
1383
1368
1382
1508
1517
1527
1528
1529
1530
1531
1532
1533
1534
1535
1536
1537
1538
1539
1540
1541
1542
1543
1544
1545
1546
1547
1548
1549
1550
1551
1552
1553
1554
1555
1556
1557
1558
1559
1560
1561
1562
1563
1564
1565
1566
1567
1568
1569
1570
1571
1572
1573
1574
1575
1576
1577
1578
1579
1580
1581
1582
1583
1584
1585
1586
1587
1588
1589
1590
1591
1592
1593
1594
1431
1430
1446
1464
1453
1473
1476
1478
1477
1479
1481
1480
1483
1482
1461
1484
1485
1487
1486
1489
1490
1491
1492
1493
1496
1494
1497
1495
1498
1499
1501
1503
1500
1502
1505
1504
1506
1507
1509
1510
1488
1511
1512
1513
1515
1514
1449
1519
1516
1518
1521
1520
1522
1524
1523
1525
1526
1123
1309
1414
1417
1422
1404
1420
1413
1380
1374
1425
1419
1405
1428
1424
1423
1411
1421
1426
1429
1436
1434
1439
1443
1441
1432
1438
1447
1448
1444
1427
1445
1442
1455
1454
1433
1456
1458
1437
1451
1450
1463
1435
1452
1460
1457
1467
1466
1397
1468
1465
1469
1440
1471
1472
1341
1459
1475
1474
1462
1470
1360
1379
1387
1384
1369
1386
1385
1388
1391
1392
1393
1389
1395
1396
1378
1400
1403
1373
1407
1398
1406
1399
1402
1394
1412
1401
1390
1353
1408
1375
1410
1409
1415
1418
1416
905
988
957
970
986
1020
1005
1001
998
1009
1047
806
939
1056
1050
1048
1057
1068
1067
1061
1062
1085
1071
1084
1073
1060
1066
1075
1090
1080
1091
1074
1089
1087
1097
1054
1092
1070
1093
1082
1099
1078
1083
1100
1088
1111
1112
1101
1063
1072
1115
1106
1114
1116
1121
1108
1126
1122
1096
1105
1098
1103
1131
1133
1094
1135
1136
1102
1127
1130
1137
1118
1134
1143
1119
1146
1139
1086
1149
1117
1058
1107
1125
1120
1113
1138
1154
1081
1152
1142
1150
1128
1159
1156
1141
1158
1165
1153
1166
1157
1170
1168
1155
1104
1169
1110
1147
1124
1172
947
1167
1132
1181
1171
1161
1079
1178
1076
1175
1186
1177
1187
1192
1190
1151
1162
1163
1164
1179
1182
1191
1185
1173
1180
1184
1194
1189
1201
1129
1174
1195
1202
1077
1208
1200
1209
1212
1197
1176
1213
1188
1193
1183
1205
1214
1216
1217
1220
1225
1207
1223
1140
1199
1206
1228
1224
1219
1144
1222
1229
1215
1232
1235
1238
1230
1231
1198
1233
1210
1218
1237
1236
1227
1247
1249
1240
1211
1251
1242
1250
1241
1252
1221
1244
1248
1109
1245
1259
1243
1254
1260
1265
1262
1268
1148
1239
1263
1253
1256
1267
1257
1234
1266
1270
1275
1273
1272
1264
1276
1277
1271
1282
1279
1285
1281
1095
1284
1255
1203
1261
1278
1286
1280
1291
1290
1287
1288
1269
1297
1296
1289
1293
1299
1302
1301
1246
1006
1295
1283
1160
1303
1308
1300
1305
1196
1294
1310
1204
1292
1306
1274
1258
1314
1312
1298
1311
1317
1315
1307
1319
568
667
699
707
717
565
892
737
706
588
700
730
758
754
649
723
738
769
761
642
725
755
665
771
776
779
784
789
768
788
794
796
790
795
777
797
786
804
748
792
802
793
808
791
811
787
799
805
781
810
816
817
801
818
712
823
716
825
778
824
821
819
681
803
837
729
703
840
842
833
847
763
846
845
850
830
848
722
839
767
814
851
753
841
829
809
858
800
861
863
862
740
859
870
856
831
852
865
866
843
853
864
785
869
854
744
827
807
882
871
677
855
884
838
875
732
883
868
812
874
890
894
888
881
897
887
878
891
826
872
901
898
813
895
844
908
591
798
849
876
879
889
911
910
906
916
896
834
909
899
914
836
903
820
921
912
929
927
932
920
925
930
822
873
935
926
915
923
945
946
924
815
867
941
835
943
952
857
936
944
951
918
832
948
959
961
938
877
950
904
963
964
886
984
967
965
969
955
974
860
956
922
949
973
954
982
966
981
968
828
980
913
962
885
783
989
983
762
958
978
979
940
985
990
972
880
994
993
937
975
992
934
1000
987
917
893
1002
1008
676
976
1003
1007
1012
1010
1015
977
1013
997
1017
1014
1018
902
1016
751
995
933
1019
996
1024
931
928
1027
1028
1023
1025
971
1031
999
1030
1033
1022
942
1026
1041
919
1034
1032
1035
1042
1044
1021
1040
1037
1039
1049
1051
953
1036
630
1043
1055
1011
1038
1052
1059
991
907
1053
900
1029
1045
1064
1065
1046
1069
960
1004
372
346
343
331
349
410
399
377
350
378
425
357
393
367
348
437
462
385
465
456
451
424
408
420
353
436
469
341
412
389
366
448
458
470
415
422
475
457
481
183
468
439
482
402
453
452
487
403
432
423
471
449
429
464
463
479
484
486
473
490
492
445
474
506
508
500
495
510
476
477
489
440
407
441
485
521
455
518
526
514
467
516
498
466
438
502
530
501
494
480
488
535
421
509
499
493
520
427
525
433
491
536
524
527
517
511
541
405
550
529
320
554
519
537
528
553
564
561
540
418
551
566
555
532
558
556
549
570
545
460
513
575
578
512
577
522
557
552
345
426
579
533
459
583
546
503
590
593
544
573
598
543
504
587
610
595
596
569
560
612
606
615
592
603
607
621
599
608
594
627
363
597
602
620
622
531
576
633
559
617
567
629
613
496
631
635
638
614
624
584
589
538
637
542
636
651
600
625
609
574
623
644
645
497
604
647
605
656
652
663
658
650
523
660
672
648
655
300
483
669
659
683
670
673
601
416
680
396
632
657
671
664
684
246
682
571
478
679
539
691
695
572
689
675
662
640
616
668
582
634
701
697
711
228
562
654
585
704
685
702
507
705
710
646
628
718
643
548
721
692
661
678
713
693
639
694
696
709
581
674
734
580
735
686
626
739
727
715
731
641
708
720
736
688
666
733
745
752
618
741
750
742
757
746
726
743
756
547
760
749
747
687
611
714
690
765
724
653
698
759
772
728
764
773
775
780
774
766
719
770
782
321
373
232
272
173
187
414
364
347
505
179
381
388
397
534
48
454
619
472
447
586
387
515
563
234
)


// ************************************************************************* //
