/*--------------------------------*- C++ -*----------------------------------*\
  =========                 |
  \\      /  F ield         | OpenFOAM: The Open Source CFD Toolbox
   \\    /   O peration     | Website:  https://openfoam.org
    \\  /    A nd           | Version:  7
     \\/     M anipulation  |
\*---------------------------------------------------------------------------*/
FoamFile
{
    version     2.0;
    format      ascii;
    class       Cloud<passiveParticle>;
    location    "0.1375/lagrangian/reactingCloud1";
    object      positions;
}
// * * * * * * * * * * * * * * * * * * * * * * * * * * * * * * * * * * * * * //

1216
(
(0.53711 0.145241 0.0915803 0.226068) 46109 91537 2
(0.148092 0.444809 0.336253 0.0708461) 46107 91533 1
(0.0657258 0.467889 0.134581 0.331805) 46107 91536 1
(0.00284592 0.505292 0.115599 0.376263) 46151 91621 1
(0.581238 0.183206 0.0365121 0.199044) 46150 91619 2
(0.661243 0.178167 0.00330845 0.157281) 46195 91797 1
(0.752682 0.0245732 0.123608 0.099137) 46240 91802 2
(0.195663 0.402336 0.075163 0.326838) 46194 91708 1
(0.00799101 0.246152 0.250655 0.495202) 46237 91794 2
(0.0613755 0.469654 0.304571 0.1644) 46234 91790 1
(0.249068 0.375521 0.246659 0.128751) 46283 91888 1
(0.507887 0.0677824 0.242095 0.182236) 46282 91971 2
(0.17249 0.423962 0.138471 0.265078) 46325 91969 1
(0.65941 0.0785184 0.170103 0.0919682) 46327 91976 2
(0.557797 0.2216 0.068665 0.151938) 46325 91972 1
(0.204167 0.398373 0.157649 0.239811) 46317 91956 1
(0.435073 0.250706 0.0322024 0.282018) 46370 92060 2
(0.116019 0.447531 0.305133 0.131317) 46417 92241 1
(0.226662 0.394117 0.193631 0.185591) 46417 92241 1
(0.472459 0.113197 0.263554 0.15079) 46450 92222 2
(0.218373 0.416301 0.344886 0.0204395) 46501 92321 1
(0.109131 0.453815 0.234712 0.202341) 46550 92419 1
(0.0559407 0.483011 0.11522 0.345828) 46543 92405 1
(0.172581 0.41574 0.0062182 0.405461) 46588 92495 1
(0.749309 0.0356273 0.125192 0.0898711) 46591 92504 2
(0.32208 0.339165 0.116371 0.222384) 46588 92496 1
(0.158459 0.344392 0.420298 0.0768507) 46681 92684 2
(0.600026 0.200155 0.151424 0.0483947) 46680 92680 1
(0.087488 0.456591 0.397405 0.0585157) 46677 92674 1
(0.093631 0.453704 0.319689 0.132976) 46678 92676 1
(0.0056659 0.30494 0.481301 0.208093) 46679 92765 2
(0.259771 0.394927 0.145615 0.199686) 46715 92749 1
(0.421547 0.294379 0.153906 0.130168) 46726 92859 1
(0.184482 0.106244 0.407459 0.301816) 46813 92948 2
(0.254349 0.0151442 0.358778 0.371729) 46808 92935 2
(0.0459744 0.477406 0.254107 0.222513) 46809 92938 1
(0.373374 0.325998 0.0416341 0.258993) 46856 93119 1
(0.820347 0.0918588 0.0217214 0.0660726) 46902 93211 1
(0.0488741 0.124217 0.356984 0.469925) 46944 93207 2
(0.337951 0.354585 0.00217653 0.305287) 46940 93199 2
(0.325455 0.337507 0.200835 0.136203) 46943 93208 1
(0.721813 0.0111322 0.127876 0.139178) 46990 93300 2
(0.207693 0.247058 0.16119 0.384059) 46987 93293 2
(0.429965 0.0242936 0.260841 0.2849) 47083 93486 2
(0.140335 0.429929 0.0602324 0.369504) 47026 93372 1
(0.170507 0.417334 0.0467547 0.365404) 47075 93469 1
(0.0662997 0.0779022 0.392868 0.46293) 47075 93469 2
(0.386033 0.331083 0.250309 0.0325753) 47071 93461 1
(0.75069 0.0467883 0.124631 0.0778907) 47120 93562 2
(0.0650334 0.467697 0.10189 0.365379) 47209 93740 1
(0.0268695 0.505299 0.282936 0.184896) 47294 93907 1
(0.10108 0.44992 0.387568 0.0614319) 47255 93830 1
(0.806679 0.0989285 0.0878184 0.00657373) 47300 93919 1
(0.0184234 0.490348 0.103273 0.387956) 47295 93910 1
(0.128439 0.451347 0.40937 0.0108442) 47294 93995 2
(0.190825 0.405262 0.00617391 0.397738) 47334 93987 1
(0.450262 0.178452 0.103622 0.267663) 47385 94089 2
(0.178863 0.410667 0.328365 0.0821049) 47424 94170 1
(0.0860292 0.457521 0.0301879 0.426262) 47469 94257 2
(0.161622 0.420952 0.384383 0.0330432) 47471 94349 1
(0.691428 0.150781 0.0200604 0.137731) 3300 6450 1
(0.852994 0.0732688 0.0619792 0.0117581) 3421 6685 1
(0.266622 0.231375 0.13631 0.365693) 3140 96667 1
(0.235313 0.381843 0.287536 0.0953082) 3428 6663 1
(0.227533 0.0583631 0.323702 0.390402) 3432 6668 2
(0.273878 0.0742487 0.364943 0.286931) 3281 6412 2
(0.208911 0.277395 0.404213 0.109481) 3383 6611 2
(0.699435 0.113013 0.161584 0.0259685) 3374 6594 2
(0.214421 0.319459 0.432722 0.0333982) 3355 6557 2
(0.789204 0.1035 0.0455393 0.061756) 3348 6504 1
(0.329401 0.334704 0.126339 0.209557) 3326 6462 1
(0.151049 0.0924928 0.424916 0.331542) 3322 6456 2
(0.288949 0.226222 0.128257 0.356573) 3304 6419 2
(0.18233 0.388812 0.0182773 0.41058) 3285 6382 2
(0.171789 0.327442 0.415528 0.0852412) 3268 6351 2
(0.187 0.405012 0.0499664 0.358022) 3251 6318 1
(1.44387e-05 0.496524 0.00397049 0.499491) 2960 96676 1
(0.35592 0.321915 0.0325344 0.289631) 3217 6250 1
(0.133341 0.126783 0.306056 0.43382) 3208 6232 2
(0.468665 0.211038 0.0450371 0.27526) 3188 6192 2
(0.0788381 0.319216 0.470556 0.13139) 3163 6182 2
(0.55906 0.220204 0.0804952 0.140241) 3155 6129 1
(3.31135e-05 0.408801 0.0765826 0.514583) 3145 6108 2
(0.760283 0.0566126 0.0614768 0.121628) 3123 6065 2
(0.139358 0.411553 0.262752 0.186337) 3113 6046 1
(0.959635 0.0142086 0.0055001 0.020656) 3084 5989 2
(0.0759882 0.461427 0.230339 0.232246) 3064 5953 1
(0.515969 0.241864 0.0667482 0.175419) 3050 5924 1
(0.19092 0.394755 0.15992 0.254405) 3027 5917 1
(0.370474 0.299412 0.0538046 0.276309) 3011 5886 1
(0.0429648 0.18501 0.478741 0.293284) 2980 5789 2
(0.000446869 0.19712 0.302343 0.50009) 2987 5801 2
(0.507559 0.0138842 0.232318 0.246239) 2961 5750 2
(0.568522 0.215537 0.185477 0.0304644) 2945 5719 1
(0.444784 0.277601 0.00804319 0.269571) 2936 5702 1
(0.180802 0.228009 0.419963 0.171226) 2908 5685 2
(0.282408 0.0182 0.340585 0.358806) 2906 5643 2
(0.158848 0.415346 0.125527 0.300279) 2908 5646 1
(0.153161 0.214606 0.208817 0.423417) 2881 5594 2
(0.644315 0.153075 0.0193003 0.183309) 2865 5562 2
(0.068342 0.340652 0.125176 0.465831) 2841 5516 2
(0.115279 0.442361 0.416844 0.0255165) 2821 5477 1
(0.0620133 0.467678 0.0368354 0.433474) 2826 5486 1
(0.412358 0.28804 0.185001 0.114601) 2804 5443 1
(0.639833 0.0791753 0.0982692 0.182723) 2784 5404 2
(0.315015 0.342492 0.0333181 0.309174) 2764 5368 1
(0.0094818 0.495259 0.306153 0.189106) 2742 5325 1
(0.0160512 0.0925934 0.396295 0.495061) 2744 5326 2
(0.28336 0.35325 0.1825 0.180889) 2722 5283 1
(0.117453 0.421002 0.441273 0.0202713) 2707 5257 2
(0.0301341 0.294077 0.484933 0.190856) 2680 5204 2
(0.347256 0.284631 0.0341848 0.333928) 2676 5233 1
(0.164441 0.00392184 0.41778 0.413858) 2666 5177 2
(0.386929 0.249628 0.306535 0.0569077) 2657 5160 2
(0.469652 0.159947 0.105227 0.265174) 2622 5089 2
(0.497049 0.251476 0.221218 0.0302573) 2610 5068 1
(0.0494875 0.465553 0.232885 0.252075) 2608 5061 1
(0.311773 0.340019 0.139204 0.209004) 2583 5012 1
(0.6069 0.19655 0.0299222 0.166628) 2575 5000 1
(0.37132 0.107448 0.204065 0.317168) 2540 4929 2
(0.226126 0.386937 0.355041 0.0318963) 2522 4896 1
(0.173901 0.20838 0.41305 0.204669) 2534 4920 2
(0.46154 0.258106 0.0111237 0.26923) 2514 4879 2
(0.0964173 0.451791 0.199924 0.251868) 2481 4814 1
(0.130562 0.38946 0.0063125 0.473665) 2494 4839 2
(0.646055 0.109309 0.176973 0.0676641) 2461 4777 2
(0.00302506 0.488987 0.380011 0.127977) 2440 4734 1
(0.00137344 0.0331526 0.464977 0.500497) 2445 4743 2
(0.4957 0.248165 0.0797047 0.176431) 2430 4714 1
(0.107655 0.446172 0.0814901 0.364682) 2400 4676 1
(1.51969e-05 0.0939088 0.405872 0.500204) 3880 96630 1
(0.00448232 0.497326 0.204751 0.293441) 3920 96628 2
(0.103726 0.14044 0.451913 0.303921) 4060 7932 2
(0.394189 0.298949 0.166273 0.140589) 4064 7939 1
(0.377164 0.307965 0.1827 0.132171) 3881 7582 1
(0.157189 0.265615 0.430259 0.146937) 4064 7939 2
(0.256197 0.0893146 0.279796 0.374693) 4023 7820 2
(0.604889 0.00195314 0.195607 0.197551) 4116 8003 2
(0.0103147 0.220657 0.274717 0.494311) 3983 7743 2
(0.048667 0.127695 0.480987 0.342651) 4027 7867 2
(0.409723 0.295683 0.222353 0.0722401) 4030 7835 1
(0.159105 0.41212 0.129351 0.299424) 3902 7623 1
(0.178246 0.0520638 0.414596 0.355094) 4012 7838 2
(0.424305 0.288263 0.172912 0.114519) 3965 7708 1
(0.134521 0.107115 0.435566 0.322797) 3740 7308 2
(0.0866806 0.198405 0.245854 0.46906) 4011 7797 2
(0.558444 0.21196 0.211631 0.0179647) 3968 7713 1
(0.0455112 0.380011 0.476335 0.0981432) 3973 7726 2
(0.204083 0.0773392 0.320802 0.397777) 3904 7589 2
(0.0394737 0.48064 0.321446 0.15844) 3932 7646 1
(0.00298091 0.465863 0.52235 0.00880654) 3932 7643 1
(0.81971 0.0891359 0.0770283 0.0141255) 3913 7645 1
(0.144456 0.110081 0.31795 0.427513) 3916 7613 2
(0.64133 0.0212932 0.179286 0.158091) 3824 7435 2
(0.316264 0.341383 0.0097036 0.33265) 3850 7483 1
(0.197557 0.15749 0.400883 0.244069) 3803 7394 2
(0.545017 0.227659 0.15485 0.072474) 3830 7447 1
(0.385754 0.111693 0.195688 0.306865) 3827 7439 2
(0.592372 0.125396 0.0786871 0.203545) 3808 7402 2
(0.156778 0.379691 0.335359 0.128172) 3836 7456 1
(0.0401057 0.206273 0.47965 0.273971) 3766 7322 2
(0.357642 0.313487 0.190414 0.138457) 3751 7329 1
(0.641161 0.179288 0.137807 0.0417438) 3682 7158 1
(0.485267 0.166723 0.25719 0.0908198) 3746 7283 2
(0.60002 0.199992 0.191685 0.00830281) 3706 7205 1
(0.851528 0.0744283 0.00601195 0.0680322) 3662 7119 1
(0.0528161 0.198267 0.275372 0.473545) 3708 7207 2
(0.654325 0.171131 0.0477644 0.126779) 3686 7163 1
(0.0145439 0.0144852 0.494177 0.476794) 3674 7179 2
(0.088063 0.45561 0.448443 0.00788342) 3649 7130 1
(0.558136 0.217674 0.133084 0.0911058) 3540 6879 1
(0.129851 0.434858 0.167245 0.268046) 3626 7047 1
(0.586182 0.153602 0.053108 0.207109) 3627 7049 2
(0.372208 0.313526 0.21958 0.0946858) 3606 7008 1
(0.360854 0.319167 0.195379 0.1246) 3589 6975 1
(0.075117 0.46207 0.179117 0.283697) 3585 6967 1
(0.351028 0.284418 0.0320827 0.332472) 3561 6919 2
(0.541791 0.228775 0.116836 0.112598) 3552 6905 1
(0.120413 0.119756 0.319704 0.440126) 3542 6883 2
(0.195136 0.401843 0.201272 0.201749) 3544 6887 1
(0.0857042 0.139365 0.317314 0.457617) 3529 6858 2
(0.700971 0.133358 0.0157075 0.149963) 3524 6848 2
(0.117139 0.373075 0.0669441 0.442843) 3512 6825 2
(0.308477 0.203907 0.358506 0.12911) 3491 6822 2
(0.287585 0.339908 0.274711 0.0977962) 3497 6834 1
(0.0178371 0.456939 0.341427 0.183797) 3495 6791 1
(0.592073 0.0400512 0.20415 0.163726) 3472 6749 2
(0.116255 0.205102 0.236455 0.442188) 4880 9493 2
(0.850391 0.0121435 0.0751053 0.0623607) 4940 9652 2
(0.189259 0.404732 0.245652 0.160357) 5106 9945 1
(0.0933728 0.295699 0.146892 0.464036) 5105 9942 2
(0.113379 0.438569 0.344625 0.103427) 5088 9948 1
(0.0261706 0.486956 0.00403746 0.482836) 4800 9336 1
(0.396253 0.299595 0.0656155 0.238537) 5025 9782 1
(0.0742748 0.462763 0.281453 0.18151) 4963 9661 1
(0.191707 0.379945 0.0238018 0.404545) 4926 9585 2
(0.24177 0.375938 0.12917 0.253122) 4520 8790 1
(0.227805 0.385889 0.121592 0.264713) 4945 9625 1
(0.00828683 0.0401018 0.455586 0.496025) 4904 9541 2
(0.309147 0.10707 0.344782 0.239001) 4821 9379 2
(0.337605 0.330769 0.327647 0.00397907) 4927 9587 1
(0.286513 0.356524 0.141901 0.215062) 4883 9501 1
(0.577343 0.0894575 0.210805 0.122395) 4862 9459 2
(0.181664 0.410544 0.205291 0.2025) 4840 9416 1
(0.112184 0.413045 0.0299685 0.444803) 4964 9661 2
(0.246853 0.366197 0.354234 0.0327168) 4843 9419 1
(0.507923 0.0700531 0.173483 0.24854) 4865 9462 2
(0.281745 0.361469 0.0219967 0.334788) 4831 9399 1
(0.266177 0.161037 0.365885 0.206901) 4745 9231 2
(0.678825 0.158475 0.00312338 0.159577) 4751 9241 2
(0.447012 0.265968 0.210521 0.0764984) 4670 9082 1
(0.458097 0.0686754 0.20267 0.270558) 4626 8997 2
(0.818786 0.0323033 0.0916354 0.0572757) 4582 8949 2
(0.462042 0.269303 0.209818 0.0588358) 4563 8876 1
(0.26318 0.131421 0.226037 0.379362) 4633 9010 2
(0.309025 0.345507 0.0033321 0.342137) 4616 8978 1
(0.00354932 0.159004 0.340103 0.497344) 4587 8921 2
(0.00633067 0.0776873 0.419518 0.496464) 4441 8636 2
(0.126082 0.437956 0.240905 0.195056) 4463 8681 1
(0.0151672 0.494628 0.415477 0.0747287) 4424 8603 1
(0.389479 0.168874 0.304418 0.137229) 4451 8658 2
(0.0814065 0.460968 0.121371 0.336255) 4428 8613 1
(0.328484 0.193951 0.142862 0.334703) 4361 8480 2
(0.564504 0.12204 0.0963078 0.217147) 4431 8617 2
(0.224439 0.313 0.0573921 0.405169) 4390 8536 2
(0.542164 0.159631 0.0648907 0.233314) 4321 8401 2
(0.746559 0.127123 0.0855062 0.0408116) 4343 8445 1
(0.301745 0.345941 0.125887 0.226427) 4301 8362 1
(0.185998 0.407848 0.182087 0.224067) 4335 8430 1
(0.250569 0.376177 0.0807328 0.292522) 4283 8330 1
(0.0202151 0.490924 0.233406 0.255455) 4262 8289 1
(0.117123 0.127723 0.309154 0.446) 4285 8331 2
(0.121212 0.429342 0.107696 0.341749) 4243 8288 1
(0.0711005 0.464789 0.0765295 0.387581) 4253 8270 1
(0.602345 0.198951 0.170889 0.0278158) 4250 8266 1
(0.438325 0.278543 0.198116 0.0850161) 4201 8206 1
(0.200827 0.400876 0.107041 0.291256) 4254 8274 1
(0.176912 0.209829 0.420287 0.192972) 4227 8257 2
(0.796894 0.0845805 0.0173394 0.101186) 4233 8231 2
(0.285498 0.356508 0.355779 0.00221492) 4180 8129 2
(0.743994 0.000557932 0.12741 0.128038) 4191 8148 2
(0.543559 0.215524 0.0377753 0.203142) 4172 8150 1
(0.0845515 0.0619763 0.394015 0.459457) 4140 8049 2
(0.53912 0.0048355 0.225489 0.230555) 4145 8059 2
(0.0419425 0.0393388 0.436412 0.482307) 4153 8074 2
(0.319169 0.33909 0.317877 0.0238639) 4131 8070 1
(0.696478 0.000669286 0.151253 0.1516) 4121 8011 2
(0.0573408 0.239301 0.224052 0.479306) 4124 8017 2
(0.05273 0.45656 0.0252583 0.465451) 47698 94715 2
(0.18068 0.00239871 0.409844 0.407077) 47560 94442 2
(0.501697 0.249329 0.0923588 0.156615) 47556 94434 1
(0.434279 0.282948 0.052231 0.230543) 47559 94438 1
(0.173402 0.413748 0.27006 0.14279) 47651 94622 1
(0.349201 0.325533 0.306625 0.0186415) 47602 94526 1
(0.533455 0.205743 0.0379853 0.222817) 47691 94701 2
(0.161626 0.418657 0.015077 0.40464) 47736 94792 1
(0.225665 0.13114 0.263804 0.379391) 47822 94963 2
(0.208807 0.290318 0.39528 0.105596) 47822 94966 2
(0.04284 0.494687 0.0130881 0.449385) 47866 95051 2
(0.353003 0.236986 0.313183 0.0968277) 47824 95055 2
(0.288463 0.138461 0.346606 0.22647) 47865 95137 2
(0.143608 0.0445021 0.424918 0.386972) 47864 95135 2
(0.350551 0.32453 0.212985 0.111934) 48049 95420 1
(0.503044 0.215065 0.0528213 0.229069) 47994 95307 2
(0.0485381 0.205553 0.27039 0.475519) 48080 95480 2
(0.0377008 0.142392 0.476863 0.343044) 48311 96029 2
(0.579126 0.216482 0.0617163 0.142675) 48303 95925 1
(0.112493 0.443919 0.294563 0.149026) 48310 95940 1
(0.169949 0.375237 0.390058 0.0647569) 48305 96017 2
(0.823889 0.0612817 0.0291266 0.085703) 48353 96025 2
(0.70468 0.152388 0.0933061 0.0496258) 48352 96023 1
(0.321649 0.339369 0.333148 0.00583398) 48355 96117 1
(0.402736 0.298636 0.00418645 0.294442) 48434 96188 1
(0.324646 0.183622 0.337419 0.154313) 48529 96395 2
(0.336094 0.295041 0.331686 0.0371796) 48530 96398 2
(0.156197 0.409237 0.00223544 0.43233) 5404 96397 1
(0.019786 0.092008 0.397977 0.490229) 5408 10549 2
(0.247829 0.368186 0.267445 0.11654) 5384 10500 1
(0.733189 0.133024 0.123572 0.0102145) 5388 10548 1
(0.773947 0.0958746 0.118012 0.0121664) 5367 10506 2
(0.359379 0.296668 0.330259 0.0136943) 5371 10474 1
(0.69727 0.0480991 0.156359 0.0982726) 5313 10398 2
(0.521468 0.239249 0.152762 0.0865211) 5310 10353 1
(0.359911 0.234845 0.0856824 0.319562) 43474 86268 2
(0.363485 0.318303 0.30194 0.0162715) 43473 86268 1
(0.000320719 0.500192 0.0162348 0.483252) 43518 86355 1
(0.82553 0.0859373 0.00289303 0.0856394) 43517 86353 2
(0.252993 0.143215 0.368646 0.235145) 43425 86257 2
(0.265431 0.0851042 0.282416 0.367049) 43479 86278 2
(0.423596 0.237265 0.0515372 0.287602) 43516 86352 2
(0.930358 0.0235653 0.0347337 0.0113433) 43519 86360 2
(0.260403 0.383541 0.316398 0.0396577) 43468 86255 1
(0.0609728 0.28343 0.468625 0.186972) 43645 86612 2
(0.234707 0.395786 0.015398 0.354109) 43513 86433 1
(0.38874 0.309502 0.190687 0.111071) 43781 86881 1
(0.0843502 0.242439 0.215923 0.457288) 43832 86984 2
(0.133821 0.260874 0.172995 0.43231) 43596 86512 2
(0.65544 0.172446 0.0553254 0.116788) 43597 86514 1
(0.47417 0.264249 0.0540607 0.207521) 43781 86881 1
(0.486505 0.201678 0.055293 0.256524) 43688 86696 2
(0.618097 0.0394804 0.151156 0.191266) 43590 86500 2
(0.294542 0.355746 0.0312764 0.318435) 43639 86597 1
(0.16064 0.000335978 0.549678 0.289346) 43588 189554 2
(0.329802 0.178148 0.202547 0.289503) 43633 86585 2
(0.169944 0.364873 0.373737 0.0914464) 43592 86591 2
(0.20018 0.186666 0.398864 0.214291) 43635 86592 2
(0.416064 0.271782 0.0207312 0.291424) 43683 86686 2
(0.228903 0.0725692 0.38091 0.317618) 43640 86687 2
(0.377477 0.311715 0.0836226 0.227185) 43966 87254 1
(0.512196 0.242489 0.0221911 0.223124) 43679 86680 1
(0.454873 0.273087 0.204685 0.0673561) 43728 86776 1
(0.105871 0.217619 0.245822 0.430688) 43727 86773 2
(0.11226 0.489455 0.39759 0.000695098) 43676 141082 1
(0.0452344 0.443079 0.0371596 0.474527) 43679 86678 2
(0.143724 0.222545 0.413161 0.220571) 43728 86863 2
(0.195673 0.0112135 0.391046 0.402068) 43821 86962 2
(0.00326064 0.406296 0.130702 0.459742) 43725 86769 2
(5.96491e-08 0.00479585 0.995204 8.34482e-09) 43676 141082 1
(0.183287 0.00796082 0.400636 0.408116) 44053 87425 2
(0.171774 0.433828 0.388605 0.0057924) 43773 86953 2
(0.141664 0.414482 0.0339469 0.409907) 43863 87045 2
(0.736343 0.106236 0.131418 0.0260019) 43815 86952 2
(3.87677e-07 6.80127e-08 0.662122 0.337878) 43764 189730 2
(0.191645 0.0297439 0.401274 0.377336) 43770 86947 2
(0.244875 0.357419 0.0441077 0.353598) 43860 87039 2
(0.866069 0.0674633 0.0146592 0.0518084) 43909 87137 1
(0.196337 0.792261 0.000478161 0.0109239) 43808 86936 1
(8.57342e-08 1.71726e-08 0.440083 0.559917) 43808 189774 2
(0.483766 0.258348 0.0774091 0.180477) 43812 86944 1
(0.597121 0.209993 0.133529 0.0593573) 43812 87031 1
(0.685082 0.165643 0.139467 0.00980825) 43906 87131 1
(0.035122 0.467244 0.481475 0.0161584) 43907 87136 2
(0.398146 0.223644 0.377429 0.00078118) 43852 141258 1
(0.20697 0.24574 0.375444 0.171845) 43858 87123 2
(0.0106334 0.49543 0.148803 0.345133) 43903 87128 1
(2.39751e-07 0.937574 0.0624259 7.53481e-08) 43896 141302 1
(0.421439 0.362547 0.215171 0.000842044) 43896 141302 1
(0.342985 0.280782 0.30462 0.0716131) 43902 87211 2
(0.577151 0.211902 0.100366 0.110581) 43948 87218 1
(0.127981 0.436728 0.323898 0.111392) 43897 87201 2
(3.39469e-09 6.8679e-09 0.0291743 0.970826) 43940 189906 2
(0.452328 0.274485 0.00949634 0.263691) 43993 87308 1
(0.0766844 0.461887 0.0573775 0.404051) 44045 87410 1
(0.310192 0.102605 0.242439 0.344764) 44224 87768 2
(0.142433 0.336331 0.406102 0.115134) 43992 87391 2
(0.294192 0.355519 0.0916147 0.258674) 43990 87302 1
(0.695674 0.00290675 0.151729 0.14969) 43988 87383 2
(0.0140762 0.493739 0.0367854 0.4554) 44271 87861 1
(0.292112 0.083069 0.278942 0.345876) 44033 87385 2
(0.390794 0.305802 0.0703963 0.233008) 44034 87390 1
(0.119217 0.392882 0.42416 0.0637407) 44084 87575 2
(6.11664e-10 3.85961e-10 0.694405 0.305595) 44028 189994 2
(0.141364 0.429215 0.0458812 0.38354) 44035 87390 1
(0.0999886 0.451693 0.113663 0.334656) 44031 87382 1
(0.262948 0.368758 0.235885 0.132409) 44081 87484 1
(0.806495 0.0965062 0.0102813 0.0867172) 44271 87862 1
(0.343809 0.05742 0.276245 0.322526) 44077 87473 2
(0.196719 0.402575 0.323199 0.0775068) 44077 87476 1
(0.437018 0.282229 0.138818 0.141935) 44076 87472 1
(0.939385 0.00615657 0.0302442 0.024214) 44127 87576 2
(0.185127 0.204727 0.406969 0.203178) 44364 88050 2
(0.153825 0.00654147 0.422811 0.416822) 44121 87564 2
(0.344065 0.173509 0.317153 0.165273) 44125 87657 2
(0.219038 0.391383 0.303554 0.0860252) 44309 87938 1
(0.494851 0.129381 0.1233 0.252469) 44217 87754 2
(0.130334 0.435139 0.26403 0.170497) 44316 87954 1
(0.269062 0.0585745 0.310104 0.36226) 44170 87659 2
(0.458107 0.286943 0.0712242 0.183725) 44123 87653 1
(0.175198 0.00118096 0.332368 0.491253) 44116 190082 2
(0.0153407 0.561174 0.380763 0.0427224) 44163 87645 1
(0.329801 0.287699 0.334542 0.0479583) 44408 88138 2
(0.671673 0.0667673 0.0976224 0.163937) 44167 87654 2
(0.112611 0.310595 0.133459 0.443334) 44167 87654 2
(0.719266 0.116799 0.130872 0.0330639) 44167 87741 2
(0.22321 0.182784 0.217518 0.376488) 44212 87743 2
(0.115796 0.0539845 0.388744 0.441475) 44211 87742 2
(0.457293 0.211616 0.111887 0.219205) 44205 87729 2
(0.0775362 0.461201 0.0130313 0.448231) 44214 87748 1
(0.0208995 0.457353 0.520761 0.000987236) 44204 141610 1
(0.178664 0.0216121 0.410386 0.389338) 44252 87826 2
(0.782842 0.0691289 0.0398951 0.108134) 44257 87834 2
(0.345355 0.141358 0.201434 0.311853) 44252 87823 2
(0.84854 0.0752413 0.0367495 0.0394688) 44251 87824 1
(0.239965 0.388842 0.312676 0.0585172) 44250 87907 2
(0.185849 0.412291 0.0398599 0.362) 44297 87913 1
(0.303324 0.348664 0.237729 0.110283) 44301 87922 1
(0.296761 0.13679 0.351283 0.215166) 44488 88298 2
(0.717324 0.01939 0.139077 0.124209) 44299 88005 2
(0.486551 0.249325 0.0172691 0.246855) 44348 88015 2
(0.00237479 0.252376 0.497986 0.247264) 44392 88106 2
(0.183567 0.113783 0.40786 0.294791) 44344 88010 2
(0.189329 0.414208 0.0986884 0.297774) 44343 88005 1
(0.120462 0.44077 0.134301 0.304468) 44344 88010 1
(0.0262176 0.134874 0.477496 0.361412) 44344 88095 2
(1.49268e-08 3.7245e-08 0.925469 0.0745311) 44336 190302 2
(0.297024 0.120469 0.231317 0.351189) 44384 88088 2
(0.158162 0.289966 0.403621 0.148251) 44389 88185 2
(0.445832 0.0475582 0.229729 0.276881) 44435 88190 2
(0.550217 0.162662 0.224409 0.0627125) 44481 88284 2
(0.719131 0.0927065 0.0479822 0.14018) 44431 88182 2
(0.472375 0.262117 0.00623083 0.259277) 44426 88174 1
(0.665884 0.167958 0.124008 0.0421496) 44428 88178 1
(0.0945871 0.483212 0.0844864 0.337715) 44431 88269 1
(0.170777 0.0306892 0.38526 0.413274) 44480 88279 2
(0.40843 0.289132 0.296901 0.00553749) 44469 88260 2
(0.792556 0.0281539 0.0992626 0.080028) 44472 88351 2
(0.522351 0.239448 0.169768 0.0684325) 44474 88270 1
(0.104955 0.450145 0.116995 0.327905) 44572 88463 1
(0.456327 0.2735 0.0525781 0.217594) 44570 88459 1
(0.126858 0.150718 0.428416 0.294008) 44522 88451 2
(0.168876 0.308032 0.136584 0.386508) 44517 88353 2
(0.58707 0.206489 0.00587757 0.200563) 44521 88362 1
(0.278862 0.0131962 0.360788 0.347153) 44611 88544 2
(0.23812 0.273945 0.123672 0.364262) 44521 88361 2
(0.435089 0.283478 0.080186 0.201247) 44565 88452 1
(0.379279 0.122476 0.188293 0.309952) 44751 88822 2
(0.183052 0.40941 0.343406 0.0641323) 44612 88544 1
(0.338542 0.327569 0.332876 0.00101188) 44512 141918 1
(0.0531414 0.11072 0.473147 0.362991) 44609 88540 2
(0.637154 0.183709 0.0311203 0.148017) 44609 88537 1
(0.403133 0.195498 0.103531 0.297838) 44558 88436 2
(0.0128707 0.450853 0.484109 0.0521668) 44757 88921 2
(0.464238 0.272484 0.153328 0.10995) 44747 88813 1
(0.504067 0.13869 0.24111 0.116133) 44655 88717 2
(0.309744 0.0746499 0.332098 0.283508) 44602 88611 2
(0.0262767 0.0437576 0.480332 0.449634) 44603 88613 2
(0.0419476 0.402753 0.129041 0.426259) 44647 88613 2
(0.519635 0.0824905 0.239801 0.158073) 44743 88808 2
(0.642561 0.0202324 0.177509 0.159697) 44650 88707 2
(0.356387 0.205832 0.11659 0.321191) 44694 88708 2
(0.652591 0.178568 0.0701943 0.0986465) 44787 88981 1
(0.0346375 0.0023961 0.145239 0.817727) 44732 190698 2
(0.475856 0.037024 0.232333 0.254786) 44734 88787 2
(0.166741 0.417819 0.0439749 0.371466) 44829 88980 1
(0.250602 0.107533 0.267397 0.374468) 44975 89270 2
(0.381448 0.309483 0.288654 0.0204149) 44878 89078 1
(0.331467 0.334911 0.289695 0.0439267) 44879 89078 1
(0.795246 0.102798 0.0206362 0.0813199) 44784 88890 1
(0.458764 0.148447 0.122584 0.270205) 44830 88980 2
(0.0503435 0.476359 0.427457 0.0458406) 44784 88888 1
(0.037729 0.50321 0.0126519 0.446409) 44828 88975 2
(0.077224 0.484756 0.305883 0.132137) 44779 88965 1
(0.653508 0.173686 0.0672131 0.105593) 44828 88976 1
(0.198193 0.40203 0.165731 0.234046) 44781 88882 1
(0.240346 0.380006 0.313611 0.0660372) 45018 89358 1
(0.0923504 0.0901779 0.367337 0.450135) 44918 89155 2
(0.731938 0.139199 0.041966 0.0868973) 44874 89155 1
(0.271391 0.374665 0.0978959 0.256048) 44870 89059 1
(0.416401 0.20716 0.280483 0.0959567) 44874 89155 2
(0.615293 0.192565 0.184914 0.00722816) 44918 89158 1
(0.1902 0.358388 0.389609 0.0618028) 44964 89335 2
(0.558242 0.221096 0.0649694 0.155693) 44918 89156 1
(0.105861 0.451391 0.056213 0.386535) 44916 89151 1
(0.444505 0.278331 0.245511 0.0316523) 45101 89522 1
(0.209463 0.0347775 0.392656 0.363103) 44914 89235 2
(0.475369 0.274586 0.0963123 0.153733) 44916 89239 1
(0.208656 0.0921554 0.379839 0.31935) 44910 89227 2
(0.474724 0.105228 0.253401 0.166647) 44914 89235 2
(0.256437 0.184107 0.371164 0.188292) 44959 89240 2
(0.116969 0.430346 0.415047 0.0376385) 44961 89329 2
(0.761146 0.00687555 0.112561 0.119417) 44961 89242 2
(0.373821 0.33049 0.278066 0.0176218) 45006 89331 1
(0.220853 0.0664078 0.327037 0.385702) 45005 89329 2
(0.394458 0.303436 0.0405018 0.261605) 44959 89240 1
(0.106469 0.0926731 0.35423 0.446628) 45050 89420 2
(0.358468 0.171577 0.311363 0.158592) 45050 89507 2
(0.23919 0.347861 0.0335507 0.379398) 45046 89412 2
(0.521528 0.200101 0.213206 0.0651651) 45043 89493 2
(0.764509 0.0869157 0.0362403 0.112335) 45093 89505 2
(0.812243 0.0938357 0.00333674 0.0905847) 45093 89505 1
(0.0279422 0.233556 0.253172 0.48533) 45088 89496 2
(0.00582948 0.502097 0.0229212 0.469152) 45138 89595 2
(0.250621 0.376119 0.182522 0.190739) 45087 89496 1
(0.183967 0.241665 0.407324 0.167044) 45134 89590 2
(0.144191 0.428432 0.407303 0.0200735) 45090 89502 1
(0.031905 0.510485 0.325633 0.131977) 45180 89679 1
(0.691469 0.155727 0.0329752 0.119828) 45183 89685 1
(0.263887 0.299712 0.0691059 0.367295) 45182 89684 2
(0.331855 0.163649 0.174771 0.329725) 45173 89666 2
(0.354257 0.223754 0.100134 0.321855) 45227 89774 2
(0.131782 0.434159 0.21805 0.216009) 45222 89764 1
(0.497683 0.252128 0.0283194 0.22187) 45317 89953 1
(0.248082 0.395128 0.26782 0.0889707) 45269 89857 1
(0.205416 0.397338 0.0280588 0.369187) 45271 89862 1
(0.699736 0.157417 0.0641102 0.0787367) 45267 89941 1
(0.28889 0.197967 0.339982 0.173162) 45267 89941 2
(0.126024 0.44475 0.375195 0.0540313) 45264 89935 1
(0.44566 0.277454 0.0879971 0.188888) 45312 89946 1
(0.416779 0.292852 0.234947 0.055422) 45361 90042 1
(0.180392 0.410151 0.256166 0.15329) 45314 89950 1
(0.39638 0.30326 0.278538 0.0218218) 45314 90035 1
(0.252878 0.374267 0.0541766 0.318679) 45359 90040 1
(0.524368 0.237771 0.00259383 0.235268) 45313 89946 1
(0.262786 0.32504 0.0611103 0.351064) 45358 90035 2
(0.106839 0.447495 0.420177 0.0254887) 45405 90130 1
(0.0862965 0.457606 0.278353 0.177744) 45359 90038 1
(0.62487 0.19441 0.103937 0.0767828) 45356 90119 1
(0.231185 0.437935 0.0244462 0.306434) 45351 90109 1
(0.326687 0.301182 0.336012 0.0361194) 45401 90124 2
(0.542765 0.228836 0.113205 0.115194) 45401 90124 1
(0.671702 0.164113 0.125801 0.0383836) 45492 90306 1
(0.335196 0.347991 0.0331677 0.283645) 45447 90301 1
(0.162468 0.442007 0.321511 0.074014) 45489 90297 1
(0.23757 0.219403 0.36893 0.174097) 45490 90387 2
(0.24577 0.379349 0.344145 0.0307368) 45488 90383 1
(0.209347 0.047355 0.348114 0.395184) 45534 90388 2
(0.100907 0.458305 0.0715908 0.369197) 45529 90377 1
(0.268573 0.142207 0.22471 0.36451) 45532 90384 2
(0.0514453 0.474845 0.263361 0.210349) 45535 90392 1
(0.329188 0.336191 0.309346 0.0252757) 45533 90386 1
(0.240277 0.108302 0.271818 0.379602) 45626 90572 2
(0.54205 0.116405 0.112504 0.229042) 45626 90572 2
(0.111603 0.445101 0.0568127 0.386483) 45530 90380 1
(0.442247 0.278906 0.0407954 0.238052) 45580 90480 1
(0.513968 0.253333 0.0890697 0.14363) 45577 90561 1
(0.115465 0.429457 0.0137164 0.441362) 45624 90568 2
(0.0901328 0.211624 0.24384 0.454403) 45619 90558 2
(0.0623959 0.469372 0.282795 0.185436) 45619 90558 1
(0.33195 0.340861 0.218258 0.108931) 45622 90651 1
(0.733374 0.0353354 0.100211 0.131079) 45666 90651 2
(0.028561 0.15959 0.482614 0.329235) 45761 90929 2
(0.84408 0.0792114 0.0583545 0.0183544) 45708 90823 1
(0.553324 0.223246 0.165699 0.0577306) 45707 90736 1
(0.375793 0.203485 0.311662 0.109061) 45754 90830 2
(0.260197 0.370557 0.0390714 0.330174) 45755 90832 1
(0.691629 0.163905 0.0126857 0.13178) 45753 90913 1
(0.245311 0.0312988 0.374592 0.348799) 45750 90907 2
(0.0375485 0.481444 0.384998 0.0960099) 45751 90824 1
(0.635514 0.118529 0.0638707 0.182087) 45849 91018 2
(0.188111 0.0155729 0.390912 0.405405) 45845 91009 2
(0.0467768 0.503424 0.367765 0.0820341) 45841 91001 1
(0.103537 0.448893 0.390055 0.0575151) 45847 91014 1
(0.404186 0.217607 0.297706 0.0805008) 45810 90942 2
(0.222604 0.397974 0.0104783 0.368944) 45843 91005 2
(0.593363 0.223958 0.168158 0.0145209) 45837 90993 1
(0.065827 0.451336 0.466142 0.016695) 45841 91004 2
(0.303681 0.348332 0.047374 0.300613) 45841 91002 1
(0.330046 0.0176449 0.334838 0.317471) 45892 91191 2
(0.521667 0.249656 0.217968 0.0107082) 45888 91095 1
(0.210978 0.401845 0.0685987 0.318578) 45882 91083 1
(0.0505602 0.47516 0.38524 0.0890397) 45889 91100 1
(0.308234 0.227479 0.118519 0.345767) 45886 91092 2
(0.726359 0.00486521 0.136744 0.132032) 45886 91094 2
(0.164188 0.418426 0.0882816 0.329104) 45888 91098 1
(0.625319 0.0975142 0.0902221 0.186944) 45858 91036 2
(0.475116 0.253391 0.0415935 0.2299) 45923 91165 2
(0.563499 0.00452598 0.21824 0.213734) 45927 91176 2
(0.295196 0.357114 0.251702 0.0959876) 45932 91271 1
(0.116345 0.120931 0.321182 0.441542) 45974 91268 2
(0.566449 0.137328 0.21645 0.0797731) 45968 91258 2
(0.295873 0.352731 0.31854 0.032856) 45972 91264 1
(0.0166663 0.417134 0.490719 0.0754802) 46021 91364 2
(0.526401 0.242583 0.169682 0.0613347) 46015 91437 1
(0.51759 0.241082 0.178215 0.0631135) 34938 69817 1
(0.0212621 0.490362 0.447823 0.0405534) 42430 84267 1
(0.172505 0.421637 0.324378 0.0814787) 42518 84355 1
(0.226766 0.12987 0.383945 0.259419) 41862 83131 2
(0.134828 0.183247 0.253653 0.428272) 42297 83913 2
(0.28177 0.332748 0.0337676 0.351715) 41816 82951 2
(0.179303 0.284168 0.131292 0.405237) 43359 86037 2
(0.133254 0.437511 0.249946 0.179288) 42341 84089 1
(0.230489 0.391811 0.0904617 0.287238) 42253 83913 1
(0.389664 0.312109 0.00532645 0.292901) 41855 83117 1