/*--------------------------------*- C++ -*----------------------------------*\
  =========                 |
  \\      /  F ield         | OpenFOAM: The Open Source CFD Toolbox
   \\    /   O peration     | Website:  https://openfoam.org
    \\  /    A nd           | Version:  7
     \\/     M anipulation  |
\*---------------------------------------------------------------------------*/
FoamFile
{
    version     2.0;
    format      ascii;
    class       scalarField;
    location    "0.1375/lagrangian/reactingCloud1";
    object      tTurb;
}
// * * * * * * * * * * * * * * * * * * * * * * * * * * * * * * * * * * * * * //


1216
(
1.785e-05
0.0003715
0.000313
0.002106
0.002558
0.00241606
0.000208
0.001109
0.00033435
0.006109
0.0023815
0.00186755
0.00023835
0.00232376
0.00021435
0.005965
0.00177155
0.00038835
0.000784574
0.005821
2.235e-05
0.0010482
0.00577263
0.0054705
0.0022302
0.005701
0.000262
0.0018315
0.00177175
0.000533
0.00162856
0.005533
0.00081185
0.00029523
0.005509
0.005485
0.00161
0.0002567
0.00169619
0.005365
0.00114755
0.00034855
0.00112355
0.00187479
0.00522063
0.00105155
0.00139424
0.005221
0.0016782
0.00140905
0.005101
0.0002302
0.0005737
0.0027072
0.005077
0.004981
0.001463
0.004933
0.00469305
0.00069155
0.00031035
0.0006602
0.00021666
0.001573
0.001549
0.00040885
0.001501
0.001477
0.001453
0.001429
0.001405
0.001381
0.001357
0.001333
0.001309
0.001285
0.0004045
0.001237
0.001213
0.001189
0.001165
0.001141
0.001117
0.001093
0.001069
0.001045
0.001021
0.000997
0.000973
0.000949
0.00034905
0.000901
0.000877
0.000853
0.000829
0.000805
0.000781
0.000780625
0.00018105
0.000733
0.000709
0.000685
0.000661
0.000637
0.000613
0.000589
0.000565
0.000541
0.000517
0.000493
0.000469
0.000445
0.000421
0.000397
0.000373
0.000349
0.000325
0.000301
0.000277
0.000253
0.000229
0.000205
0.000181
0.000157
0.000133
0.000109
8.5e-05
6.1e-05
3.7e-05
1.3e-05
0.00105532
0.000869
0.000881
0.00245705
0.0015502
0.002821
0.002749
0.002701
0.002725
0.002677
0.002629
0.0006532
0.002581
0.002605
0.00113255
0.002557
0.002533
0.002485
0.002509
0.002437
0.002413
0.002389
0.002365
0.002341
0.00229263
0.002317
0.002269
0.002293
0.002245
0.002221
0.002173
0.002125
0.000773734
0.002149
0.002077
0.0006845
0.002053
0.002029
0.001981
0.001957
0.00069755
0.001933
0.001909
0.001885
0.001837
0.001861
0.00082485
0.001765
0.000408587
0.001789
0.001717
0.001741
0.001693
0.00166863
0.001669
0.001645
0.001621
2.8e-05
0.000193
0.0004542
0.000244283
0.004021
4.835e-05
0.000172
9.21914e-05
0.00280385
0.0003102
3.05e-05
0.00192954
0.00125005
0.003877
0.00023334
0.0002382
0.000161252
6.4e-05
0.000190143
0.003853
0.003685
0.003733
0.003613
0.003541
0.003589
0.00030705
0.003637
0.003445
0.003421
0.003517
5e-06
0.003493
0.00298905
0.003253
0.003277
0.0005742
0.003229
0.003181
0.0004597
0.003349
0.0009175
0.003061
0.00254505
0.001909
0.003133
0.003205
0.002965
0.002989
0.0011247
0.002941
0.003013
0.002917
0.000785825
0.002869
0.002845
0.0008112
0.00236517
0.002773
0.002797
0.00165759
0.002893
0.0011878
0.00115472
0.004837
0.000859102
0.0010555
0.00059555
0.001013
0.000857741
0.000475
0.00045155
0.004693
0.00090505
0.004645
0.004621
0.000928092
0.004525
0.004453
0.00082755
0.004357
0.00084155
0.004381
0.000709227
0.00056381
0.000595304
0.004261
0.0007545
0.000589666
0.000524796
0.000387332
0.0005192
0.000253
0.000358034
0.004189
0.004117
0.004165
0.0026587
0.00311385
0.0033852
0.0038787
0.00128755
0.0055128
0.00126285
0.00436505
0.0029302
0.0022105
0.00322605
0.00400085
0.001509
0.0027467
0.00073585
0.0048897
0.00164535
0.0082015
0.0001917
0.000637
0.007665
0.00344685
0.00598426
0.0023382
0.00172922
0.0002942
0.00354305
0.00152805
0.0016022
0.000230045
0.00451785
0.0034137
0.003823
0.00267955
0.00185208
0.00086685
0.00191885
0.00184285
0.00267905
0.0014765
0.00069955
0.00287235
0.00411605
0.007586
0.0014995
0.0028387
0.00223785
0.00147885
0.00228135
0.00221411
4.27e-05
0.00341335
0.000890505
0.0032842
0.0038876
0.001335
0.000265092
0.0026102
0.0036192
0.0024295
0.00092405
0.0029865
0.0001962
0.00428335
0.00147667
0.00425935
0.001675
0.00211535
0.000910033
0.0015267
0.00697404
0.0008245
0.0046045
0.00275664
0.003084
0.0020468
0.00268605
0.00427784
0.00263505
0.0010742
0.00201835
0.00294635
0.00441935
0.00217205
0.0038997
0.000478637
0.00251723
0.00325201
0.00180305
0.0016635
0.00301508
0.00303255
0.00239505
0.00601955
0.00089555
0.000674
0.0016135
0.0003182
0.000988
0.00637678
0.009949
0.004877
0.00122385
0.00112776
0.0003197
0.0008057
0.00243685
0.0010227
0.00339535
0.0003652
0.0006212
0.00154616
0.000633176
0.00269368
0.00294155
0.0029447
0.001309
0.00490135
0.005925
0.00371835
0.0029067
0.00369435
0.000365007
0.002301
0.00362905
0.0020042
0.0023762
0.0060492
0.00033055
4.135e-05
0.0010347
0.00287155
0.00314305
0.00043205
0.00226871
0.0020842
0.0005357
0.009205
0.00229431
0.00154635
0.0011425
0.004069
0.00550784
0.009037
0.0005227
0.00119505
0.00177705
0.00092355
0.000619073
0.00307035
0.00112805
0.00454955
0.0024687
0.00208105
0.00315585
0.00196882
0.000340652
0.003637
0.008629
0.0035617
0.003565
0.00448705
0.0014835
0.00161835
0.00073905
0.00122205
0.00263006
0.0023847
0.00257105
0.003413
0.0020057
0.003341
0.00190735
0.008341
0.00462801
0.00421955
0.0014777
0.00117185
0.00124305
0.00296555
0.00251835
0.00168282
0.0015097
0.000312288
0.008077
0.00102205
0.00188555
0.008029
0.0009762
0.00154735
0.00437862
0.000838
0.0041975
0.00151175
0.0013947
0.00497474
0.0002672
0.00199035
0.0008407
0.00126111
0.00166124
0.000525
0.00370935
0.007621
0.00309835
0.0008727
0.00104185
0.0006387
0.0022235
0.00337955
0.00171335
0.00116685
0.0009855
0.002453
0.007453
0.002381
0.00325955
0.0005447
0.000764
0.00313955
0.00188882
0.00077935
6.75e-05
0.007213
0.00304355
0.0017127
0.00335664
0.0002412
0.00125105
0.00355009
0.001183
0.00292355
0.001212
0.007069
0.00282755
0.00328412
0.00321823
0.0021792
0.00041935
0.001829
0.000448083
0.00085155
0.00103035
0.006805
0.00032335
0.0005242
0.00110485
0.00270755
0.00050605
0.003864
0.001661
0.006685
0.00293918
0.001613
0.000458
0.00129317
0.006637
0.00073655
0.00273069
0.001589
0.00038135
0.00355425
0.006541
0.006589
0.0010355
0.0023435
0.006469
1.135e-05
0.00141064
0.006421
0.0161284
0.00347155
1.7e-06
0.00884705
0.00716085
0.00709285
0.0072682
0.00667505
0.00481785
0.00651305
0.00814255
0.00546755
0.00270605
0.00591985
0.00240755
8.605e-05
0.00059135
0.00630585
0.00564935
0.00329785
0.0048292
0.00211335
0.00281805
0.0051547
0.0055635
0.0059692
0.00116505
0.00520785
0.00629705
0.00580421
0.0046037
0.00340879
0.00277085
0.0045697
0.00419305
0.00201005
0.0017777
0.00254705
0.0047572
0.0039862
0.0048955
0.0007162
0.00518005
0.000246162
0.0041877
0.00329631
0.005182
0.00334508
0.0020812
0.0008997
0.00321355
0.00382355
0.00351505
0.0045177
0.00561805
0.00425435
0.00097135
0.00344555
0.00506785
0.00278085
0.00159235
0.00318535
0.00307285
0.0052995
0.00447635
0.00490655
0.00631555
0.0039897
0.00533835
0.00366921
0.00335035
0.00553635
0.00524235
0.00480421
0.00517035
0.00180073
0.00215154
0.002726
0.00465935
0.0003957
0.00212005
0.0005695
0.00343105
0.004806
0.00478705
0.00135349
0.00182285
0.003276
0.00398805
0.00384055
0.0001257
0.00437105
0.0026702
0.00621705
0.00363235
0.00203285
0.000786492
0.005104
0.0005637
0.00380055
0.00322205
0.00425285
0.00352405
0.00130285
0.00157849
0.00254485
0.0021185
0.0047102
0.00592905
0.00323205
0.000945
0.00074235
0.0007672
0.00273524
0.00241255
0.00114567
3.755e-05
0.00300735
0.00123535
0.00148855
0.00423435
0.000898249
0.00106405
0.00054085
0.00081955
0.00358155
0.0023172
0.0052267
0.00253955
0.00511655
0.00343355
0.00138768
0.00512685
0.00354035
0.00107485
0.00505385
0.0045007
0.00180305
0.0024362
0.00139105
0.00044985
0.00292855
0.000262411
0.0035732
0.0008125
0.00080857
0.00147405
0.00450505
0.0041013
0.0014897
0.0038487
0.00432735
0.00394085
0.00662035
0.0050922
0.0048632
0.0024317
0.0054576
0.0020027
0.00471455
0.000726363
0.00273434
0.00435135
4.85e-06
0.00471632
0.00354235
0.0020297
0.00566855
0.00448867
0.00493805
0.00229003
0.0038702
0.00525105
0.0004452
0.0050232
0.00421235
0.00184905
0.00149505
0.00224721
0.00083635
0.00182905
0.00205355
0.0020257
0.00010235
0.0040087
0.0051247
0.00452485
0.00340305
0.00214955
0.00045905
0.00204717
0.00156
0.00353205
0.0019775
0.005574
0.000610163
0.00102221
0.0025542
0.00181701
0.00345255
0.0010992
0.0027845
0.00255921
0.00276935
0.00420035
0.0046447
0.005994
0.0022277
0.00420955
0.00243535
0.0047622
0.00204055
0.00299985
0.00286505
0.00467255
0.00345381
0.0031147
0.001173
0.0017
0.00226422
0.0037242
0.00409955
0.000978
0.006285
0.00374755
0.00398505
0.002292
0.00108671
0.00546185
0.00466085
0.00112035
0.0016617
0.0010242
0.00176235
0.00357035
0.0013567
0.00164235
0.00300061
0.00455705
0.00178522
0.0031482
0.00095135
0.00169771
0.00456476
0.00283305
0.00332485
0.00178331
0.0030585
0.0038047
0.00185213
0.00184722
0.00602055
0.00398821
0.00084705
0.00119455
0.00029835
0.001707
0.00310835
0.00013235
0.00205605
0.00465235
0.0035647
0.00315621
0.00015635
0.0005227
0.00166035
0.000893276
0.00238255
0.0034877
0.0019147
0.00398605
0.0030292
0.0004502
0.0032287
0.00514705
0.00132935
0.0035142
0.00444305
0.000486135
0.0043507
0.00233055
0.005733
0.0027782
0.0027302
0.00365403
0.00484383
0.00444185
0.00773385
0.0052477
0.0032502
0.00237005
0.00079085
0.00292255
0.00418865
0.00341603
0.00235421
0.00332505
0.007493
0.00348855
0.00393285
0.00198505
0.00389956
8.20004e-05
0.0028317
0.00378373
0.0047952
0.00194255
0.0025672
0.0113842
0.00065205
0.00753055
0.00765705
0.00186305
0.0035707
0.00230501
0.0110616
0.00450135
0.000213202
0.0102107
0.0077692
0.00660735
0.0047872
0.0095132
0.0102939
0.00703235
0.000677199
0.0103776
0.0085897
0.000377666
0.0102997
0.00107394
0.0107909
0.00898269
0.00470785
0.00424435
0.0025147
0.0022255
0.00567429
0.00483654
0.00569335
0.0111774
0.0103861
0.0108597
0.0064295
0.00627355
0.006679
0.00759355
0.00772455
0.00983885
0.0054547
0.0104499
0.0102787
0.0039142
0.00953664
0.00175021
0.0013905
0.00429322
0.00833471
0.00756857
0.0066897
0.0102407
0.00196869
0.009844
0.00960835
0.0034465
0.0085727
0.0087295
0.00803635
0.00347335
0.0103857
0.0092285
0.0081937
0.0108795
0.00100314
0.0108262
0.0050762
0.008445
0.0106525
0.00792435
0.0017822
0.00953205
0.00459085
0.003508
0.00547205
0.00676623
0.00130573
0.00900771
0.00847855
0.00510904
0.000257702
0.0064087
0.00456305
0.00914955
0.00831335
0.00743785
0.00918605
0.00963885
0.00966885
0.00323718
0.0095282
0.00615905
0.0072457
0.00312785
0.009927
0.0011978
0.00894659
0.0039827
0.00874655
0.002023
0.00998269
0.00458565
0.00487585
0.0103484
0.0098488
0.00533785
0.0086175
0.0005782
0.00483485
0.0052662
0.00629992
0.00593635
0.0061197
0.0028647
0.00289977
0.00123385
0.00621043
0.0024742
0.0087877
0.00131367
0.00986505
0.0037372
0.00135503
0.0094642
0.0003102
0.0079702
0.00867485
0.0011332
0.0061127
0.00446969
0.009228
0.00201972
0.00205385
0.00716685
0.000857
0.00073435
0.00089585
0.00483447
0.00542016
0.0048442
0.000392202
0.00772355
0.00797255
0.00426905
0.00529477
0.0028765
0.00967035
0.00628455
0.00240518
0.00062885
0.001268
0.00685605
0.007042
0.00888371
0.00721055
0.0044302
0.00699134
0.00708305
0.000846708
0.008419
0.0049312
0.00023285
0.00856685
0.00781405
0.00212335
0.00890785
0.00265547
0.0041255
0.0089837
0.0024477
0.00334349
0.00727805
0.00366198
0.0073747
0.00016585
0.0029595
0.0046065
0.00566385
0.00476335
0.00085455
0.00746735
0.0038042
0.008284
0.00687216
0.00244147
0.0043795
0.0021652
0.00242905
0.00267002
0.00788105
0.00121835
0.00405955
0.0025292
0.00748867
0.00872255
0.00811835
0.00487485
0.0082615
0.00110421
0.0021572
0.00508955
0.0090457
0.0079357
0.0041015
0.007682
0.0078252
0.00291616
0.00771952
0.005636
0.00748055
0.00458635
0.0069197
0.0046547
0.00695405
0.00280291
0.00713355
0.0019267
0.008472
0.0081453
0.00648955
0.001073
0.00800935
0.0006092
0.0049675
0.00302607
0.000874302
0.0051892
0.00467905
0.00273785
0.00794135
0.00220299
0.00780555
0.00438205
0.00690085
0.0013678
0.00420235
0.0024155
0.0044062
0.00358055
0.0056825
0.0054075
0.007543
0.0070582
0.0026892
0.00732555
0.0073352
0.00769405
0.00348735
0.0078337
0.000489591
0.000833496
0.00362285
0.0070007
0.00439805
4.005e-05
0.00180871
0.00374585
0.0011072
0.00883055
0.0007755
0.001371
0.0050727
0.00197735
0.0047392
0.00599005
0.00827135
0.0059122
0.00543014
0.00380835
0.00755321
0.00116555
0.00349712
0.00066435
0.0043092
0.0033077
0.00079335
0.00577622
0.00177335
0.0032762
0.001421
0.00588271
0.00780985
0.0065752
0.00375505
0.00709855
0.00466055
0.00642744
0.00070505
0.006917
0.00597185
0.0062637
0.000584022
0.00010955
0.0028625
0.005847
0.00439835
0.00835935
0.0055832
0.00264485
0.00476455
0.000771203
0.00266785
0.0020295
0.0029007
0.0066111
0.00037355
0.00629404
0.0021075
0.0031252
0.00653655
0.000568576
0.00137635
0.00542455
0.00658135
0.0042757
0.00407455
0.00520005
0.00315155
0.00311721
0.0058802
0.0057087
0.0060005
0.00502685
0.005734
0.0059735
0.0016692
0.0060762
0.00605856
0.0056585
0.0184925
0.0149192
0.0153131
0.0154619
0.0172572
0.014732
0.0117949
0.00370105
0.0145275
0.0127602
0.0106589
0.0019435
0.00688805
0.0058682
0.0067292
0.0104532
0.0098605
0.00768155
0.0080295
0.0142327
0.00497655
0.0118681
0.0131612
0.0012397
0.0232317
)


// ************************************************************************* //
