/*--------------------------------*- C++ -*----------------------------------*\
  =========                 |
  \\      /  F ield         | OpenFOAM: The Open Source CFD Toolbox
   \\    /   O peration     | Website:  https://openfoam.org
    \\  /    A nd           | Version:  7
     \\/     M anipulation  |
\*---------------------------------------------------------------------------*/
FoamFile
{
    version     2.0;
    format      ascii;
    class       vectorField;
    location    "0.1375/lagrangian/reactingCloud1";
    object      U;
}
// * * * * * * * * * * * * * * * * * * * * * * * * * * * * * * * * * * * * * //


1216
(
(397.598 -3.28663 6.32913)
(410.58 -14.1127 -0.77503)
(436.825 -1.38872 -4.17691)
(436.318 2.01759 -5.42205)
(439.895 -5.12537 2.32027)
(434.687 -0.0482681 1.14526)
(425.26 2.0835 -0.303752)
(443.006 0.556432 -0.563093)
(439.784 -1.42934 -5.87323)
(440.649 -0.0369641 2.13733e-06)
(427.873 0.0894499 4.00904)
(439.532 1.46496 -1.8541)
(439.929 -0.0786859 0.00329805)
(433.461 -1.18201 -1.6049)
(441.52 6.22411 -4.56748)
(440.729 -0.00779985 1.53943e-07)
(439.16 -0.165646 -0.170391)
(423.527 -0.438189 -0.489267)
(431.322 -4.11038 9.80642)
(440.474 -0.0100164 -2.00327e-06)
(439.966 0.29039 0.958821)
(403.206 -1.06903 1.57441)
(440.093 -0.0165931 -6.15525e-07)
(440.107 -12.2571 -22.0853)
(434.391 -5.26491 -2.48239)
(439.801 0.00393237 -1.60111e-05)
(415.936 -0.752575 -0.319584)
(435.01 1.47346 1.20676)
(439.037 -10.1684 5.29609)
(438.829 1.99239 -0.420188)
(436.131 3.31116 -2.46625)
(439.93 0.016298 -4.2484e-08)
(420.073 -5.61579 -13.1693)
(425.337 -2.64902 -4.80705)
(439.238 0.126981 -2.94204e-07)
(439.133 0.154949 -9.26202e-05)
(426.939 4.32066 3.29242)
(397.918 4.17054 10.4699)
(434.689 -3.17936 -0.997835)
(438.971 0.255809 -7.48616e-06)
(437.628 6.74066 -1.4261)
(413.764 1.37416 2.82646)
(438.674 6.27762 14.7845)
(341.335 7.58266 -3.40695)
(438.855 0.269908 -2.15268e-05)
(436.016 2.70381 2.11223)
(438.424 1.98256 2.26175)
(438.675 0.369515 -2.74197e-06)
(433.543 -2.89528 0.790121)
(422.978 6.26424 5.13256)
(436.825 1.00375 -6.30463e-05)
(405.662 4.9353 -1.81161)
(373.519 0.512323 0.167015)
(434.075 -13.7755 11.8904)
(436.438 1.11892 -9.05563e-05)
(437.311 0.577436 -3.07311e-07)
(428.005 2.33281 -4.26527)
(435.802 1.14965 -5.3114e-05)
(431.089 -10.4449 -11.9955)
(436.653 2.5143 3.21917)
(103.112 28.258 3.15899)
(116.988 29.1055 -3.84744)
(92.4855 13.9779 10.9689)
(126.773 12.5461 0.000417169)
(131.082 7.38861 -0.000104774)
(126.312 6.21013 -8.17045)
(121.105 24.1677 -0.00217224)
(135.147 5.69685 -0.000102207)
(136.419 4.58999 -0.000175339)
(134.406 14.3661 -0.000219705)
(134.152 18.9491 0.000274656)
(130.744 26.953 0.000286942)
(135.651 23.8923 0.00040188)
(138.901 21.3436 9.6926e-05)
(142.247 13.3689 -0.000167547)
(143.781 8.81055 -0.000240314)
(66.9112 5.41433 -3.13793)
(146.084 2.74463 -1.50186e-05)
(148.41 13.8534 -0.000334986)
(149.944 12.608 -0.000932028)
(152.885 22.3478 -0.00186919)
(150.222 4.22048 -0.00010527)
(155.913 16.2081 -0.00197615)
(158.958 20.5359 -0.000274556)
(153.735 5.43573 -0.000144938)
(161.624 14.9206 -0.000154684)
(161.923 13.7017 -0.00224673)
(157.764 7.18844 -0.000297583)
(160.939 9.24902 -0.000311406)
(158.756 5.42895 -0.000100563)
(160.324 10.0893 -3.05426)
(163.293 7.36216 -0.00126782)
(169.441 11.0193 -0.000195439)
(165.868 6.92962 -0.00140011)
(160.09 1.73622 -1.32709e-05)
(163.493 4.58647 0.000129225)
(165.567 4.89463 -8.85379e-05)
(164.092 4.33135 8.73585e-05)
(176.615 -1.29865 -2.95373)
(166.215 3.97575 0.000279041)
(166.548 1.75142 -0.00203034)
(166.144 1.30903 -0.00157747)
(165.96 2.88643 4.7845e-05)
(166.785 2.41853 0.00055075)
(166.609 2.13702 0.000250294)
(166.437 1.93043 -0.000820764)
(166.952 1.21002 -0.000395007)
(166.298 1.52062 0.000260044)
(166.68 0.625369 0.00058123)
(165.471 1.40686 -0.000607189)
(164.365 -0.00382044 -0.000144243)
(164.512 0.485753 2.12997e-05)
(165.689 1.0395 -1.77192e-06)
(164.676 0.278254 -4.75772e-05)
(166.052 0.141304 -6.78883e-05)
(165.296 0.801582 -1.80112e-05)
(165.537 0.786821 0.000150697)
(165.891 0.246677 0.000216889)
(165.199 0.390676 -3.10917e-05)
(153.641 -0.183185 -6.15443e-05)
(165.765 0.11516 -4.34254e-06)
(165.381 0.407601 -2.76555e-05)
(165.436 0.440669 -2.922e-05)
(165.008 -0.135392 1.15065e-05)
(165.491 0.40696 5.01141e-05)
(165.608 -0.0312603 1.86247e-06)
(105.626 -0.112144 -0.000139565)
(165.606 0.414586 3.509e-05)
(165.575 0.560871 2.9976e-05)
(165.419 -0.151644 -7.44057e-06)
(23.9681 -4.17866 0.276379)
(22.6522 1.50599 2.88366)
(78.046 -18.7366 4.06121)
(108.071 -26.1979 -18.6158)
(86.6747 -16.2059 -1.34186)
(113.541 -15.7734 -0.000663114)
(108.302 -14.2327 -0.000390832)
(129.352 -4.37996 2.12068e-06)
(103.487 -13.0988 0.001469)
(117.17 -11.6468 -0.000104988)
(119.97 -9.23843 0.00126475)
(95.7923 -11.298 0.515061)
(122.148 -6.47034 -2.48353e-06)
(109.337 -11.3067 0.00124995)
(58.373 -2.60239 0.415486)
(120.258 -7.02567 -1.23572e-05)
(114.632 -8.56763 3.78811e-05)
(121.002 -4.51896 0.00132854)
(103.461 -9.38741 0.000566674)
(119.053 -4.55358 0.000680659)
(118.097 -4.45313 8.32086e-05)
(118.782 -3.72256 1.23951e-06)
(120.561 -2.09132 0.000270221)
(102.214 -5.37109 0.000174916)
(113.713 -3.33328 6.37678e-06)
(98.8241 -4.91482 0.00152285)
(114.455 -2.7617 0.000442612)
(108.262 -3.96734 0.000903158)
(110.314 -2.66201 0.00098729)
(120.02 -0.845215 1.3669e-05)
(107.512 -0.972959 0.00185959)
(115.404 -0.0298967 3.49618e-05)
(86.0336 -4.28467 6.14695)
(107.047 -0.136011 0.00152789)
(107.184 1.77965 9.80022e-05)
(90.1983 -0.596761 -11.1436)
(110.379 2.21077 0.00172538)
(106.784 3.36574 8.70198e-05)
(120.56 1.46791 -1.08179e-06)
(113.521 4.17436 1.3853e-06)
(37.2073 16.6975 -3.88334)
(107.388 6.57051 0.00194425)
(110.864 6.45346 0.00155828)
(108.707 8.03589 0.00256568)
(116.439 7.05257 0.00153459)
(105.825 9.78867 0.00236445)
(81.2934 5.04516 4.34683)
(123.225 5.41674 0.000450041)
(89.6782 10.043 -0.987823)
(104.638 13.516 0.00302593)
(120.244 9.88695 0.000954577)
(107.729 15.2451 0.0019539)
(124.984 6.98692 0.00153129)
(125.285 7.68225 -0.000344811)
(128.611 2.3099 1.04322e-05)
(128.814 4.14422 -0.000136151)
(128.085 7.0113 0.000111617)
(173.144 -28.5324 8.52229)
(262.425 -19.0243 -0.00970414)
(344.911 -29.8391 6.7094)
(340.726 -18.1613 0.0414271)
(339.334 -10.2622 4.48559e-05)
(102.751 -20.7401 -5.34392)
(323.258 -24.4598 1.95555)
(308.284 -23.0843 -4.74761)
(288.805 -45.9394 -4.08535)
(88.26 -27.546 -2.30473)
(304.492 -30.5428 -4.59057)
(286.361 -47.7833 3.30843)
(245.919 -62.5808 3.12002)
(292.661 -28.2388 -0.00614665)
(289.951 -50.9096 -2.67859)
(269.77 -42.6022 3.65648)
(268.441 -67.0487 2.39432)
(316.968 -17.6068 8.32089)
(262.251 -46.3383 -1.29757)
(268.516 -38.8705 0.00052944)
(253.322 -20.5998 -0.000769421)
(223.204 -41.039 0.00107222)
(228.276 -23.2688 0.000359538)
(204.601 -25.3324 0.000298549)
(190.297 -36.1318 0.000674047)
(173.068 -46.9153 2.81337)
(173.422 -41.0318 0.000737288)
(196.861 -15.9515 5.76102e-05)
(196.51 -9.74295 1.36527e-05)
(181.844 -32.6784 0.00143618)
(131.681 -42.3293 0.739104)
(155.216 -35.5937 0.00221335)
(146.882 -40.7287 -5.39767)
(162.632 -17.6758 0.000854711)
(157.259 -23.3092 0.00249529)
(125.553 -33.3143 -6.28569)
(159.211 -18.3271 0.000702647)
(151.925 -18.6255 -3.5338e-05)
(117.941 -27.9401 -1.68642)
(134.924 -31.16 0.000957483)
(115.158 -18.3879 -5.94257)
(149.524 -9.0947 0.000587686)
(131.197 -36.681 -5.29201)
(123.892 -31.8626 4.77037)
(132.402 -23.6863 -0.000214012)
(123.372 -26.0976 -0.00173476)
(139.66 -11.3588 0.000345641)
(136.928 -14.9787 0.000170378)
(101.064 -28.3102 2.7823)
(140.422 -8.26181 0.000919685)
(131.325 -19.0848 -0.000202692)
(137.221 -10.2392 0.000356007)
(89.5352 -20.1506 0.299639)
(131.868 -11.9258 -1.05694e-06)
(131.649 -10.4522 -3.58532e-05)
(74.9318 -21.2474 5.10206)
(127.827 -33.0036 5.01907)
(130.287 -7.79345 -6.50315e-06)
(127.51 -11.1709 -6.08481e-06)
(109.226 -19.7168 -8.54319)
(116.177 -17.5515 -0.000719317)
(348.38 11.1051 -9.45704)
(433.992 -0.065337 4.80556)
(434.185 1.27561 -6.21973e-05)
(432.969 1.58054 -0.690438)
(409.529 1.15125 -6.41363)
(432.198 2.16801 -2.39293)
(432.022 -4.61238 6.13617)
(428.377 2.5525 12.634)
(429.751 -4.50891 -0.877976)
(428.908 2.80744 -1.05279)
(427.361 1.54128 3.69478e-06)
(431.563 -0.131855 13.863)
(426.432 1.32188 2.41449e-06)
(426.438 1.1626 1.20893e-06)
(330.561 18.2513 9.34364)
(422.855 0.574303 1.27442e-05)
(419.191 0.176778 0.00014331)
(378.546 2.16401 -6.4032)
(408.335 -0.315514 1.43802e-05)
(402.581 3.23666 0.768509)
(406.789 -0.489527 5.49594e-05)
(402.623 -0.736406 2.80014)
(405.495 -0.0533798 0.264708)
(395.588 -3.06843 -0.315785)
(399.688 -0.333506 -2.04412e-06)
(387.294 -2.78425 -4.05043)
(386.955 -4.42429 -2.84595)
(368.968 -7.28316 -2.54233)
(390.612 -3.1938 -0.105318)
(367.196 10.9505 -0.784639)
(395.832 -5.18821 -3.42172)
(385.364 2.85791 4.0384)
(385.61 -1.12838 0.000618469)
(377.85 -0.620564 9.53263e-05)
(377.695 -2.1826 -0.000313454)
(322.471 -5.98854 8.59506)
(337.622 0.127712 -0.00988884)
(336.226 3.2026 -3.8876)
(338.182 1.24806 2.81288)
(355.801 -1.25505 6.57804)
(327.618 20.474 -0.479116)
(346.346 -4.30701 3.28008)
(333.281 16.4657 -1.17933)
(368.249 8.76454 2.52088)
(357.216 0.0745728 -2.64337)
(372.339 13.533 9.49753)
(341.387 0.133883 -1.52612)
(325.014 9.0981 5.07948)
(406.766 -3.44761 2.51845)
(401.401 5.32623 0.480851)
(335.414 11.5843 -11.3064)
(371.311 0.611031 13.1153)
(433.764 -5.82493 2.01789)
(408.642 -5.17823 -4.74049)
(443.043 0.577081 0.367778)
(434.592 -10.1611 0.277275)
(439.686 0.322265 -5.47525)
(438.008 -8.53185 -3.41899)
(413.805 -2.58906 7.35814)
(419.1 11.9151 4.58617)
(306.626 2.40619 8.068)
(432.173 -14.5594 20.5419)
(405.222 -7.28141 3.7464)
(417.315 -2.06868 -1.02095)
(437.905 1.73218 -0.746179)
(449.727 -9.40426 -8.83149)
(410.405 -2.83614 -3.15761)
(368.746 11.8898 -2.2766)
(441.046 -2.1135 9.54347)
(442.675 0.00141768 -0.0481752)
(327.771 1.07715 -4.56227)
(408.999 -2.12677 6.36731)
(386.066 -0.56294 0.192419)
(416.276 -6.50723 -1.01407)
(437.218 0.00239519 0.0943975)
(436.891 -2.61955 -6.57545)
(412.902 -4.69464 -1.34352)
(368.937 5.70358 2.31348)
(445.413 -11.0392 11.0695)
(437.031 0.00250366 0.0868841)
(436.412 -1.83482 0.454689)
(440.336 -8.11135 0.0125829)
(397.525 5.40654 1.15743)
(400.413 1.6634 13.9212)
(442.485 0.649333 -0.817281)
(424.582 -2.01423 -2.82742)
(410.72 -1.96114 8.53573)
(450.541 0.322577 -0.0613087)
(445.614 -17.8142 -0.875362)
(428.291 1.40378 0.324833)
(401.819 -2.15883 -2.67604)
(442.466 -0.189134 -1.71728)
(450.606 0.000994159 0.0457764)
(403.125 -6.35403 4.75028)
(367.787 23.6565 -3.38292)
(350.433 0.876985 5.83963)
(417.228 -3.58598 -1.4033)
(436.287 -5.81124 -28.9854)
(440.57 -3.6627 -1.22761)
(331.787 4.94852 -2.30948)
(434.892 -2.10112 -0.201142)
(439.75 -4.32582 -6.62427)
(380.595 5.89639 -1.12448)
(449.505 0.00021386 0.00622305)
(446.515 -3.4644 4.38106)
(450.501 -8.63905 -8.28411)
(408.853 -2.91891 4.66692)
(346.643 17.8633 14.4076)
(438.06 -0.11087 -0.00485298)
(426.472 -7.72147 -9.13705)
(440.704 -2.66325 -2.1093)
(398.362 5.95924 -1.44208)
(305.207 7.44341 1.80674)
(439.341 0.315314 -3.49579)
(407.815 -5.08632 -9.97076)
(356.651 -4.58587 -5.29079)
(375.84 2.42709 8.69318)
(342.056 17.5693 5.88153)
(399.353 0.970278 -2.4962)
(426.532 -11.791 7.19504)
(442.458 0.725487 1.19715)
(442.735 -6.88568 -3.27875)
(287.512 13.9904 8.98425)
(431.645 -0.483965 -0.0119759)
(445.643 -8.76554 11.3818)
(429.983 -4.67678 -12.0769)
(418.351 -6.91618 10.1579)
(435.443 3.56489 -7.30764)
(441.533 -8.37008 7.71215)
(407.172 -1.90151 1.78277)
(441.05 0.0368866 -0.982384)
(442.841 -1.51304 -2.25691)
(423.207 -5.79121 -5.0819)
(446.389 0.96118 3.63821)
(439.996 -8.23529 5.25459)
(442.864 0.0846896 -6.80614e-05)
(444.742 -4.85122 -4.39844)
(403.877 -7.26572 9.21243)
(346.989 -4.98353 -0.463758)
(435.695 5.85747 -14.8585)
(381.172 9.62877 16.869)
(381.137 -0.883258 -4.86067)
(406.829 -12.207 -0.104437)
(435.299 -0.409643 0.00830091)
(422.629 0.521921 -1.15471)
(420.81 0.842222 -4.89656)
(446.248 0.00201921 0.0999332)
(443.357 -2.76326 0.921659)
(408.712 1.38257 7.06807)
(404.572 -1.78704 -1.8572)
(373.346 -0.0203388 -2.1637)
(439.64 -3.57884 0.760153)
(439.96 -14.7905 15.3187)
(432.315 -6.60762 -7.95192)
(437.164 -0.593423 -0.308275)
(393.052 8.26555 -1.82755)
(437.875 -10.9054 7.91713)
(448.744 -1.11443 -13.7193)
(435.801 1.20463 -6.28374)
(362.2 7.84303 9.1267)
(389.107 5.75257 3.98458)
(407.339 -0.401691 -0.0230368)
(436.945 -8.59121 12.2571)
(418.835 3.36811 -0.141709)
(387.931 9.35393 7.62006)
(433.69 15.0906 -0.330872)
(418.271 -0.554828 -10.6027)
(351.876 15.3193 -5.56494)
(397.692 -0.740676 -0.410213)
(446.028 0.45157 -0.965604)
(416.625 1.11353 0.830604)
(429.523 -6.57147 -2.60239)
(442.93 0.0556703 2.10495e-05)
(337.638 -2.06908 -1.4991)
(368.382 10.3772 -6.16212)
(401.809 4.85954 -5.78401)
(441.663 -10.4655 -0.920488)
(443.279 -13.3482 -6.33773)
(442.774 0.0138601 -0.000100189)
(410.375 -5.21398 -4.89891)
(439.432 2.36611 8.1921)
(439.704 -1.18695 0.552002)
(404.453 -3.4054 10.7032)
(443.515 0.155882 2.23464)
(437.365 -11.1957 -5.25859)
(392.215 -12.5918 -3.90953)
(352.602 12.8186 -0.30595)
(376.835 5.70252 -5.76989)
(382.985 9.10835 1.31303)
(436.684 -6.98342 -3.84013)
(420.494 -0.493605 -0.167795)
(441.261 3.33109 -4.50929)
(436.076 -1.00375 -0.991182)
(442.799 -0.0169112 1.12937e-07)
(433.777 -8.07216 -4.24841)
(453.37 -8.09506 -5.91528)
(355.184 10.9832 -2.04384)
(418.961 -6.08885 32.5994)
(422.048 -4.38971 4.16901)
(440.096 -1.5132 -1.33425)
(417.836 4.37042 0.899248)
(415.669 -0.476238 -4.99546)
(396.752 -0.533196 -0.263196)
(423.337 -2.53909 -0.953858)
(437.768 -1.34327 3.24846)
(361.033 5.04633 -2.12445)
(439.184 -4.50837 5.94119)
(440.636 3.4316 1.28306)
(442.764 -0.0333542 3.06936e-06)
(446.569 -7.08961 -1.63123)
(434.139 -2.61045 -1.58384)
(438.057 -14.9871 3.24235)
(434.517 -0.755697 0.192439)
(422.045 -0.0412397 -5.24752)
(425.067 -4.82921 5.37723)
(440.964 -1.85316 1.52871)
(428.351 -3.19761 2.35721)
(420.466 -6.51882 1.46287)
(449.888 0.0318293 0.373159)
(442.644 -0.0280406 1.86957e-05)
(432.298 -2.88139 -0.468542)
(445.668 -14.8191 5.54938)
(442.592 -0.0216245 -1.18711e-05)
(422.411 3.69063 -5.27376)
(443.275 -17.2449 -6.34284)
(431.621 -7.80879 -0.0690711)
(443.576 0.904305 -6.75826)
(440.11 -8.02372 -1.62375)
(421.21 4.76789 8.20741)
(433.259 -3.10106 -0.143291)
(443.385 -18.8883 -6.95116)
(430.035 2.43162 -12.0658)
(435.843 -9.69467 6.75122)
(393.275 4.97824 5.45559)
(441.503 -7.5714 -1.69279)
(423.726 -0.14072 0.516749)
(441.404 0.499217 -0.0442584)
(441.786 -5.05563 -2.03664)
(442.415 0.00429098 3.71423e-06)
(427.736 -11.5397 3.7835)
(409.76 -3.39669 -21.8716)
(426.166 -0.968239 0.330232)
(432.998 -9.29395 -1.8497)
(415.328 -1.36773 0.271069)
(441.456 -0.729433 1.00096)
(429.501 -2.86375 13.3471)
(404.583 -2.24861 -0.351679)
(424.205 2.46921 -2.63325)
(440.98 -2.4736 -9.71471)
(442.361 0.00610025 6.62201e-06)
(439.484 1.75545 1.57372)
(435.801 0.303063 1.24057)
(396.897 -4.34184 3.43322)
(430.706 5.06472 -0.992541)
(438.9 -1.17985 -2.95239)
(432.72 -5.61062 -0.241179)
(439.229 -0.922606 4.56627)
(427.87 -3.21207 -0.738102)
(442.082 0.0156857 -4.83354e-06)
(440.746 -4.14085 -13.8104)
(433.868 -4.75731 -3.18644)
(456.559 -5.13681 -0.820258)
(381.268 -0.739799 -1.52475)
(385.079 -1.86505 9.31918)
(445.041 -14.3884 -8.44255)
(412.15 1.17092 1.51793)
(439.495 -1.06563 0.798074)
(419.979 2.01958 -0.454564)
(441.649 -0.0075437 3.4144e-06)
(445.106 -7.2512 1.92289)
(439.516 -2.35863 1.2512)
(436.634 -1.44078 -5.97211)
(352.352 12.055 4.91092)
(440.927 5.37886 4.13039)
(442.879 -6.4892 3.62898)
(434.059 -3.11912 -0.538237)
(426 -0.23517 0.0723098)
(436.713 4.84015 -2.92615)
(441.502 0.00473062 -1.04315e-06)
(440.952 -0.216865 0.103209)
(359.88 6.99353 1.74419)
(395.81 1.61331 1.6944)
(414.173 -1.66057 -1.73485)
(371.067 12.9244 1.1028)
(347.936 9.47388 7.14353)
(435.761 7.69005 3.2958)
(441.578 -0.000707393 -3.30956e-06)
(437.239 -3.28506 -0.0622089)
(440.106 -0.569208 -1.2555)
(358.57 2.36593 10.5253)
(419.071 -0.378618 -0.00540594)
(441.446 -0.00854908 -1.33523e-06)
(383.011 -2.81239 -8.65642)
(433.199 -6.60993 7.35004)
(433.609 5.7449 -1.58376)
(420.498 -11.9158 2.51313)
(363.781 17.1264 -12.5592)
(441.519 -0.0034371 -3.87515e-06)
(441.081 -0.0357031 5.1916e-07)
(424.907 -2.11317 -2.06923)
(439.163 -0.892529 -0.906816)
(441.373 -0.0103357 2.18511e-06)
(439.634 1.01203 0.42904)
(401.261 3.11794 -7.18809)
(441.001 -0.0343938 -4.91855e-06)
(269.217 30.9219 -7.58588)
(269.165 -3.60261 -1.15637)
(265.476 6.39878 -5.43463)
(268.306 30.935 -7.57773)
(277.222 11.9401 -4.47855)
(218.848 25.979 2.1717)
(247.375 27.8817 1.8988)
(291.332 24.4048 19.9231)
(269.965 27.1544 -3.84299)
(281.624 7.53315 2.92315)
(298.805 21.5933 -5.19056)
(342.008 2.3557 8.51875)
(339.017 -17.3182 -5.43603)
(364.428 -2.82372 7.79806)
(340.714 -3.82297 -29.5157)
(362.461 2.69935 4.48544)
(364.323 0.364705 6.98005)
(344.808 6.983 -10.7871)
(334.105 9.42763 1.60892)
(310.265 9.46046 -3.74284)
(366.416 -2.60158 0.571326)
(383.367 -9.3936 2.93193)
(336.256 -7.34336 1.7331)
(336.765 19.9099 13.2728)
(368.366 4.07429 -1.61612)
(366.55 2.36603 -25.8402)
(388.005 -3.45452 1.85509)
(333.912 24.0946 -0.576469)
(396.589 -2.61835 6.17427)
(391.614 0.00393035 -0.147243)
(383.424 -0.162773 -2.05135)
(387.982 1.87487 1.09554)
(366.409 8.405 1.63868)
(381.212 0.185772 5.84941)
(297.715 20.3936 13.7302)
(400.421 -3.93262 -42.2034)
(392.809 4.09141 2.01321)
(391.322 -0.0538468 0.0583591)
(383.499 -9.3171 -3.07264)
(388.744 -4.98856 -1.50521)
(393.069 0.0289542 -1.11472)
(389.119 -4.74331 1.2597)
(375.846 5.20734 3.69769)
(401.918 10.4952 8.9564)
(371.182 12.3715 8.72869)
(405.081 4.34602 2.90953)
(387.412 7.8512 -7.29684)
(394.795 0.00151563 0.0618053)
(394.784 0.073192 5.4122)
(396.876 -0.243995 0.00399689)
(396.178 -4.59764 3.66581)
(387.564 -3.56817 0.980459)
(396.075 2.09483 16.0866)
(386.438 2.48687 -1.28461)
(358.809 -1.55597 -0.896838)
(406.948 -4.03354 3.04514)
(346.27 -10.2092 -29.9224)
(397.141 0.861859 -1.3274)
(376.593 3.78849 5.93379)
(386.379 -7.26613 9.55356)
(393.595 0.421029 4.9535)
(394.406 -7.72838 -11.7474)
(347.223 -5.41864 7.78172)
(382.425 -2.50201 -1.37413)
(383.118 11.1453 5.3627)
(364.897 3.03429 -18.6558)
(320.031 9.99508 -1.90373)
(404.29 -1.20635 -1.38606)
(404.351 2.02607 7.67191)
(406.358 0.487808 -4.16196)
(395.464 7.37718 1.09173)
(391.49 -10.2408 -5.5631)
(386.8 2.95063 1.13423)
(404.772 0.000213691 0.00657464)
(346.952 10.644 -19.0739)
(399.622 8.03901 5.66609)
(402.582 0.00777932 -0.346566)
(332.854 7.35898 -7.88866)
(388.98 -1.23361 0.0349001)
(378.266 6.93505 -5.49212)
(375.093 -4.62531 -3.69861)
(381.751 3.70657 6.3826)
(341.359 7.98198 -1.42218)
(423.633 -15.0192 -14.4747)
(337.219 15.8071 -1.1558)
(411.708 0.00160566 -0.061482)
(395.566 -0.721376 -1.58024)
(411.198 3.72498 1.42845)
(371.168 11.4084 -2.45434)
(408.867 -0.309797 -8.17171)
(402.734 9.78469 9.94793)
(352.761 0.986427 1.48055)
(383.103 -6.21826 -12.1106)
(411.533 -0.6165 -0.732775)
(383.796 -1.04858 -5.89174)
(417.983 -5.22325 -4.99765)
(403.957 0.605522 6.08225)
(404.669 -0.526633 -0.160279)
(369.463 9.23698 -4.6944)
(380.666 7.43206 -1.74374)
(386.664 -3.09868 1.27982)
(406.078 -2.39042 -2.63907)
(368.262 -3.61097 -1.74933)
(404.887 -11.0602 -1.72755)
(415.629 -0.109686 0.0239359)
(336.424 2.86828 10.7263)
(414.996 -0.0286412 -0.0573794)
(374.895 -0.207033 0.751667)
(414.14 -0.333058 -0.121793)
(398.603 -0.615231 -0.0179063)
(403.899 -11.4507 12.7119)
(403.116 -10.4237 -4.80242)
(413.774 -5.71126 2.62317)
(417.573 6.8944e-05 -0.00350435)
(380.375 -2.36524 2.14709)
(336.932 -2.50285 -12.4285)
(374.618 14.8313 -5.42986)
(412.763 -6.79437 1.54771)
(301.895 -0.342285 1.05169)
(424.96 -26.8025 -15.6312)
(398.969 -1.91502 8.31655)
(414.54 0.872744 0.804083)
(416.127 7.32917 -9.91777)
(398.342 2.38826 2.30081)
(408.513 0.0031399 -0.666184)
(340.339 26.5356 -3.76356)
(377.299 5.56568 6.07623)
(399.809 -0.593715 -5.55185)
(377.115 4.02503 -4.31176)
(366.735 0.318828 -0.182194)
(403.37 0.670555 -2.13461)
(424.803 3.68418 -9.9438)
(345.038 6.16821 -5.9038)
(367.48 2.66891 -13.9242)
(421.704 -0.845882 -3.58885)
(421.909 -0.55557 0.156584)
(345.474 2.13849 2.28138)
(327.605 2.78157 1.11128)
(354.918 7.08099 -9.64842)
(422.206 0.754782 3.54858)
(422.169 -5.50851 1.18361)
(426.988 -15.9153 3.46597)
(435.128 0.00729858 0.226541)
(399.907 -0.543848 -0.0215506)
(405.103 -0.610491 -0.128645)
(423.41 0.29308 1.37128)
(412.107 0.614341 -14.3279)
(351.683 3.55302 -0.713309)
(374.48 3.12404 -0.796757)
(376.78 22.3521 -17.068)
(428.401 0.00249702 -0.0883827)
(286.616 11.7294 -6.66373)
(432.212 -12.2866 2.66345)
(309.055 13.9874 4.70085)
(393.771 2.30614 2.3254)
(420.513 -7.59107 -0.327983)
(408.251 -3.42533 10.349)
(418.347 2.83101 -1.06468)
(429.662 2.89955 -3.78572)
(426.349 -5.1214 -3.29787)
(427.522 0.00124444 0.0392327)
(430.991 -0.834555 -0.163721)
(366.298 -2.82532 -2.82434)
(342.799 9.57742 1.64695)
(416.86 -3.21927 14.0003)
(380.613 2.99463 -0.443984)
(410.692 -0.871672 -0.40964)
(420.414 -8.00324 10.2363)
(431.287 0.416018 -0.418026)
(424.197 1.47941 3.13052)
(431.793 0.869068 -6.47204)
(383.269 -3.3951 -11.9156)
(364.665 3.87072 5.56352)
(432.288 1.17222 0.585672)
(296.32 16.2983 6.31771)
(396.436 -0.437747 0.0982213)
(430.244 -0.557306 0.652459)
(361.355 -2.68906 3.68454)
(428.823 4.28732 7.3853)
(404.669 -9.50144 4.16947)
(423.094 1.75449 -10.3692)
(394.921 -4.54327 3.52529)
(339.732 13.075 10.0712)
(409.674 -0.763185 -0.0272867)
(389.588 7.39024 0.656556)
(432.218 -2.03275 -7.5261)
(410.029 -1.72148 7.63973)
(345.334 -0.215624 2.11)
(400.329 7.43848 -1.47794)
(396.344 -7.43401 -1.97697)
(431.217 -5.41647 -2.04933)
(422.513 -1.5039 3.58264)
(344.844 0.524466 1.90184)
(434.081 4.57137e-05 -0.00204632)
(428.017 -1.34708 -0.567415)
(424.431 -0.967924 1.35472)
(434.027 0.00258888 -0.156173)
(428.986 -3.54793 -13.5735)
(429.852 0.000371552 -0.0147088)
(309.651 10.1581 -1.59788)
(435.545 0.00194856 -0.0831225)
(377.011 -0.821 -1.30761)
(436.322 0.200185 0.246332)
(406.448 2.0305 -3.88668)
(385.281 -2.98655 -8.79339)
(427.962 1.3484 -3.89933)
(435.608 1.74898 -0.480799)
(408.286 -2.92464 3.24928)
(431.703 -4.7084 10.9399)
(381.229 3.02999 -1.119)
(437.771 -9.76153 5.22791)
(364.174 0.78028 -0.105346)
(394.347 -3.99871 -3.40702)
(374.769 -0.936107 -0.136242)
(338.985 15.0421 6.12286)
(427.226 5.01276 0.761724)
(410.498 0.838453 7.26023)
(347.708 -4.13036 2.36447)
(401.965 -1.47717 -6.09356)
(439.942 0.00154122 -0.050773)
(382.736 3.55721 10.833)
(384.389 7.89876 2.02187)
(435.992 5.99714 -1.44062)
(430.868 -5.03077 -1.37241)
(392.004 -1.2438 -0.371484)
(400.726 -0.78377 -0.658074)
(417.178 -0.733329 -1.13527)
(433.557 0.00395064 -0.130438)
(339.404 13.3406 -4.88631)
(394.791 -1.64996 -2.28896)
(404.49 -0.00442829 -1.52352)
(400.822 -16.7884 -2.58488)
(402.802 -5.93905 -0.103669)
(436.036 -0.63164 -0.0969789)
(375.535 -0.595181 0.00649132)
(296.588 4.37249 -2.2622)
(434.562 -3.15422 -2.58999)
(438.096 -0.315809 0.00404279)
(369.976 -0.473171 -0.00675541)
(438.291 0.00284146 0.13638)
(431.943 -6.31773 -2.76221)
(420.147 0.188427 0.217239)
(440.067 0.00163816 0.0485322)
(394.318 9.08483 -1.40317)
(433.243 5.80027 -4.74676)
(402.14 -0.956513 -0.722019)
(444.482 0.000330212 -0.0164863)
(439.027 0.0214136 -0.0230673)
(441.463 -1.57179 -2.51262)
(418.225 3.73147 2.41287)
(440.758 1.46603 1.04848)
(323.302 9.5572 1.57661)
(437.751 1.41203 5.63282)
(313.842 1.27704 -2.33045)
(428.801 -4.89232 -5.68009)
(346.218 7.48374 6.22227)
(426.413 -3.44716 3.4008)
(375.546 0.482915 3.38779)
(436.113 0.820835 -4.81607)
(377.495 -3.11071 3.92039)
(350.617 10.1541 -2.78266)
(427.573 4.90915 -3.76475)
(438.774 0.000563169 -0.0202126)
(428.865 6.47101 5.62506)
(430.32 3.73264 -9.59579)
(364.453 5.4752 2.32513)
(442.258 4.84054 4.91773)
(387.095 2.188 14.7465)
(399.715 7.00193 -6.01986)
(423.579 -2.81537 3.79659)
(426.818 -6.24976 22.5432)
(346.882 5.68402 0.534891)
(405.923 17.7705 -6.43116)
(435.316 1.99185 -2.03539)
(351.415 -2.77651 2.23882)
(422.074 6.08826 7.44207)
(414.892 -2.88382 5.18467)
(430.002 -4.47081 -2.5371)
(441.204 0.00317121 -0.0748331)
(440.754 -0.311984 4.64271)
(403.607 -6.10942 -3.40504)
(431.568 -2.91152 0.497166)
(413.144 -2.23894 -2.25361)
(406.517 0.384278 4.3424)
(436.258 0.66495 -4.03294)
(445.872 -2.59301 -5.77595)
(377.081 1.68528 1.78169)
(442.717 -8.97026 1.09548)
(337.978 -1.66025 1.23139)
(425.41 -1.48617 -1.17889)
(438.969 0.253993 -1.56193)
(401.524 -7.00165 -3.67826)
(430.553 -5.5728 -24.5906)
(421.096 1.50158 -0.90753)
(443.213 -1.82068 1.52178)
(441.192 0.000427983 0.0287243)
(316.726 -11.3485 2.92168)
(438.849 -7.06891 -1.45868)
(352.207 1.06675 4.17528)
(402.965 -0.0491477 5.70598)
(406.077 -2.62463 -0.491834)
(421.185 7.02177 3.47243)
(444.223 2.52395 0.233328)
(416.516 -1.36934 -1.00431)
(433.449 -0.269017 -6.9412)
(297.831 22.1203 -1.02055)
(382.943 2.26224 -3.30172)
(278.265 8.5674 -3.42504)
(290.031 11.389 12.9816)
(320.062 -10.9688 -11.1582)
(314.24 3.19834 1.17476)
(315.907 -4.26583 -1.67103)
(319.025 -0.6537 1.65631)
(314.9 2.5322 1.05121)
(333.148 4.74136 -1.90872)
(305.725 14.5886 -5.36901)
(301.874 0.487495 -1.74891)
(338.119 -1.18899 17.28)
(313.795 -3.43343 -12.5736)
(306.251 11.8186 -2.45934)
(302.007 -0.482542 1.61825)
(302.18 17.3563 14.6561)
(312.547 17.1473 -13.4331)
(339.303 0.000713009 0.0495527)
(312.673 1.11026 -14.0921)
(331.464 3.3628 1.43138)
(337.713 3.5441 -0.677653)
(330.08 7.54125 1.50747)
(350.664 9.69825 -2.4932)
(328.608 2.89856 2.41073)
(346.199 3.8829 -3.00467)
(319.434 -4.26046 -1.87978)
(338.384 -0.00923931 0.0235717)
(342.55 0.000918601 -0.0703522)
(300.571 4.58157 -7.08708)
(298.416 4.36094 -11.3065)
(328.796 -0.0048015 -0.115361)
(307.175 6.53228 -6.5472)
(337.039 6.37049 -2.94947)
(283.856 -3.65115 -4.02141)
(347.356 2.75106 -10.9923)
(338.996 0.0633233 -0.00712458)
(321.588 5.52921 7.34156)
(343.814 -0.00640353 -0.200886)
(338.415 -2.51361 -7.06454)
(328.355 2.45422e-05 -0.066235)
(347.882 -19.416 -28.1498)
(307.539 12.2257 3.06437)
(306.78 6.12733 -7.90918)
(334.011 -1.32659 -11.2787)
(314.136 6.46965 -12.8563)
(324.304 8.55413 -5.14924)
(330.52 -7.81059 -27.2937)
(343.212 -0.000342254 -0.0556473)
(332.543 0.0419494 -1.43318)
(333.875 19.1117 -4.89834)
(342.656 -0.000166635 -0.0116887)
(336.46 0.101377 -2.81673)
(345.359 0.00396918 -0.0716806)
(324.144 3.31094 3.44564)
(339.751 0.132569 0.131666)
(335.929 0.000921847 0.00498855)
(326.513 0.190858 1.9235)
(342.056 -0.0329014 -0.011873)
(274.383 -8.80228 -14.1266)
(325.07 -1.24417 -6.34652)
(353.703 -0.000158319 -0.0421419)
(345.325 2.33867 -6.67978)
(311.971 -2.03945 1.07589)
(338.653 -1.90105 12.6555)
(332.646 3.78399 -1.17537)
(340.533 1.65482 7.8362)
(340.527 -0.141488 -0.0505484)
(339.976 3.24926 -14.9878)
(340.729 0.000160323 0.0185163)
(338.646 -0.783888 0.296544)
(359.403 -0.00012202 -0.016642)
(331.489 4.90033 8.61824)
(334.959 1.33287 0.16893)
(339.832 -0.000873069 0.0456924)
(332.335 8.44405 2.3432)
(264.66 24.2277 -32.5737)
(339.16 7.2794 -8.00184)
(329.906 5.35395 -13.1455)
(336.518 6.28938 -2.61826)
(321.744 26.4544 24.8481)
(343.951 -0.000219924 0.0603307)
(336.334 -1.55647 10.1912)
(349.061 2.01196 7.18209)
(349.498 0.00231716 -0.0941011)
(314.243 -5.09633 5.97976)
(290.745 20.7723 -24.1819)
(339.218 -0.212562 0.984254)
(344.621 1.59534 1.07417)
(326.292 -1.39814 -4.95052)
(335.881 0.0575359 -5.03899)
(344.658 1.52372 8.53489)
(339.316 -4.96856 -3.64647)
(330.797 31.3675 4.48564)
(354.593 -7.26617 -36.0852)
(331.604 13.8266 -18.7089)
(335.821 0.982029 -1.23105)
(313.861 0.38546 0.510682)
(346.474 0.483208 1.37582)
(352.809 0.32199 2.60498)
(347.28 2.6691 -3.11985)
(324.878 -9.13641 5.84713)
(338.138 -5.10683 15.7213)
(335.149 0.0258289 -0.757142)
(332.066 3.80466 9.88777)
(345.334 -0.0416835 0.0210732)
(333.907 2.61674 -2.57408)
(350.032 1.08405 -0.990151)
(330.275 6.92425 -1.14141)
(298.315 -1.40555 -1.16215)
(342.859 7.46029 4.52104)
(349.461 -1.76881 -2.83441)
(310.992 2.15722 6.39276)
(343.158 12.6345 32.1318)
(348.026 8.74749 -3.40383)
(338.434 -0.230132 4.22225)
(345.461 1.03357 4.28387)
(335.927 27.7827 -13.873)
(369.777 5.33879 12.3261)
(327.825 15.2239 -8.25239)
(346.074 0.00147698 -0.0529077)
(345.277 13.4026 -18.4068)
(348.72 -0.0941263 0.208637)
(359.959 0.0121305 0.0169721)
(342.325 6.95085 -5.65621)
(331.27 8.65233 10.4934)
(350.19 3.06403 -4.56128)
(345.007 -1.99005 -2.84468)
(317.857 16.8519 23.1233)
(342.879 5.09628 -8.91449)
(335.056 1.38816 17.8688)
(345.712 -15.3176 -9.86623)
(320.159 10.01 12.8204)
(347.851 2.93988 -2.47104)
(349.668 1.80153 9.79713)
(350.789 0.0044001 -0.103137)
(338.345 1.05677 -0.650366)
(343.847 -6.39633 -9.93309)
(344.833 -1.99854 6.43158)
(314.594 0.0980123 -0.281142)
(332.988 -1.50407 0.251198)
(349.179 -3.10725e-05 -0.0582215)
(346.411 2.27342 1.37402)
(344.301 -2.33411 -8.14507)
(386.657 -0.0024018 0.411083)
(343.529 7.51181 -1.92003)
(347.598 -3.01214 0.389199)
(362.377 -16.2671 -39.3989)
(361.215 1.57805 12.6194)
(353.858 -6.17128e-05 -0.0149998)
(317.343 6.12962 -6.14795)
(339.274 7.89786 15.1355)
(351.222 0.821762 -1.20241)
(338.675 -2.38588 11.74)
(355.704 2.08293 0.566173)
(348.988 0.149456 -0.252782)
(363.818 5.66822 7.28015)
(355.233 7.25766e-05 -0.0593023)
(353.313 2.82504 0.349727)
(345.982 4.31935 0.895196)
(352.311 2.72483 1.62156)
(356.529 0.396899 -0.856963)
(355.876 16.1911 15.1325)
(363.136 0.211075 -3.09777)
(310.188 27.0616 -1.28367)
(363.539 -10.7778 -5.37126)
(346.827 -1.26532 -2.22524)
(359.587 4.87378 -0.581616)
(346.209 13.0632 -1.17713)
(360.521 -0.858111 3.75946)
(357.031 -0.000474406 0.0253838)
(357.695 0.000639277 -0.0425306)
(281.052 0.663416 -4.20925)
(357.26 6.70292 -26.8103)
(358.804 0.00370736 0.105352)
(357.524 -0.0494864 4.16232)
(359.959 7.48974 -22.709)
(294.877 16.6378 -6.43059)
(397.786 -29.2138 6.7162)
(357.262 0.00288684 0.122673)
(363.131 0.52323 -0.134237)
(350.499 15.2649 -2.3057)
(352.329 -0.160726 0.647821)
(357.151 0.573273 -0.167011)
(330.922 8.13793 3.3704)