/*--------------------------------*- C++ -*----------------------------------*\
  =========                 |
  \\      /  F ield         | OpenFOAM: The Open Source CFD Toolbox
   \\    /   O peration     | Website:  https://openfoam.org
    \\  /    A nd           | Version:  7
     \\/     M anipulation  |
\*---------------------------------------------------------------------------*/
FoamFile
{
    version     2.0;
    format      ascii;
    class       vectorField;
    location    "0.1375/lagrangian/reactingCloud1";
    object      UTurb;
}
// * * * * * * * * * * * * * * * * * * * * * * * * * * * * * * * * * * * * * //


1216
(
(-9.61124 -2.7566 6.3292)
(-23.2146 -13.8184 -0.77476)
(6.64832 -1.03109 -4.1769)
(0.375486 2.27202 -5.42197)
(1.57061 -4.94761 2.32041)
(-0.387094 0.248658 1.14539)
(-0.506503 2.49095 -0.303751)
(3.77226 0.68848 -0.563092)
(-0.379288 -1.3571 -5.87323)
(0 0 0)
(-5.44534 0.407029 4.00905)
(1.23069 1.63959 -1.85406)
(0.00348119 0.00253422 0.00333918)
(-1.56292 -0.894921 -1.6049)
(1.90678 6.32318 -4.56748)
(0 0 0)
(0.0296075 -0.0451497 -0.170374)
(1.96266 -0.0287034 -0.489172)
(11.39 -3.68712 9.80656)
(0 0 0)
(0.402959 0.347054 0.958905)
(-2.31266 -0.591051 1.57454)
(0 0 0)
(0.239525 -12.251 -22.0853)
(-2.18758 -5.11638 -2.48238)
(0 0 0)
(0.0581998 -0.455402 -0.319425)
(0.836909 1.59274 1.20682)
(-0.390355 -10.2132 5.29619)
(-0.140038 1.95562 -0.420092)
(-0.0805706 3.35612 -2.46606)
(0 0 0)
(10.4174 -5.34537 -13.1692)
(6.69678 -2.52835 -4.80698)
(0 0 0)
(0 0 0)
(-6.96384 4.16943 3.29265)
(-13.4622 4.15812 10.47)
(3.00649 -3.40503 -0.997739)
(0 0 0)
(1.30663 6.38787 -1.426)
(-1.24479 1.16224 2.82647)
(2.08178 5.88878 14.7846)
(-9.67339 7.15272 -3.40685)
(0 0 0)
(-1.25826 2.134 2.11225)
(2.39084 1.40945 2.26178)
(0 0 0)
(-0.397814 -3.61893 0.790176)
(-0.46253 5.32008 5.13302)
(0 0 0)
(-0.0567673 3.9664 -1.81107)
(-0.679722 -0.372213 0.167125)
(-2.06777 -14.9489 11.8904)
(0 0 0)
(0 0 0)
(0.364506 0.834251 -4.26508)
(0 0 0)
(-4.45212 -11.7076 -11.9954)
(2.30893 0.918128 3.21917)
(0.393513 0.631648 3.13442)
(14.9624 1.94075 -3.84747)
(10.0523 -0.0818063 10.9697)
(0 0 0)
(0 0 0)
(-5.22703 -24.9506 -8.17027)
(0 0 0)
(0 0 0)
(0 0 0)
(0 0 0)
(0 0 0)
(0 0 0)
(0 0 0)
(0 0 0)
(0 0 0)
(0 0 0)
(0.342132 1.69346 -3.13468)
(0 0 0)
(0 0 0)
(0 0 0)
(0 0 0)
(0 0 0)
(0 0 0)
(0 0 0)
(0 0 0)
(0 0 0)
(0 0 0)
(0 0 0)
(0 0 0)
(0 0 0)
(-8.3978 -2.12358 -3.05113)
(0 0 0)
(0 0 0)
(0 0 0)
(0 0 0)
(0 0 0)
(0 0 0)
(0 0 0)
(8.49463 -4.9233 -2.95133)
(0 0 0)
(0 0 0)
(0 0 0)
(0 0 0)
(0 0 0)
(0 0 0)
(0 0 0)
(0 0 0)
(0 0 0)
(0 0 0)
(0 0 0)
(0 0 0)
(0 0 0)
(0 0 0)
(0 0 0)
(0 0 0)
(0 0 0)
(0 0 0)
(0 0 0)
(0 0 0)
(0 0 0)
(0 0 0)
(0 0 0)
(0 0 0)
(0 0 0)
(0 0 0)
(0 0 0)
(0 0 0)
(0 0 0)
(0 0 0)
(0 0 0)
(0.00400412 -0.460904 0.276167)
(-2.65192 5.01909 2.88326)
(-2.91414 -5.13831 4.07466)
(-4.6001 -10.3106 -18.6157)
(3.23303 -5.68852 -1.34063)
(0 0 0)
(0 0 0)
(0 0 0)
(0 0 0)
(0 0 0)
(0 0 0)
(-0.398175 -0.243095 0.51499)
(0 0 0)
(0 0 0)
(0.651809 0.238409 0.417828)
(0 0 0)
(0 0 0)
(0 0 0)
(0 0 0)
(0 0 0)
(0 0 0)
(0 0 0)
(0 0 0)
(0 0 0)
(0 0 0)
(0 0 0)
(0 0 0)
(0 0 0)
(0 0 0)
(0 0 0)
(0 0 0)
(0 0 0)
(-4.46709 -6.68599 6.14635)
(0 0 0)
(0 0 0)
(0.258817 -4.84099 -11.1446)
(0 0 0)
(0 0 0)
(0 0 0)
(0 0 0)
(-8.37836 6.72469 -3.89427)
(0 0 0)
(0 0 0)
(0 0 0)
(0 0 0)
(0 0 0)
(0.397241 -7.17889 4.34107)
(0 0 0)
(-1.13313 -5.02765 -0.989994)
(0 0 0)
(0 0 0)
(0 0 0)
(0 0 0)
(0 0 0)
(0 0 0)
(0 0 0)
(0 0 0)
(-4.66421 5.71506 8.5263)
(-0.561675 -1.34617 -0.00936423)
(1.06446 -18.6865 6.71205)
(-0.774489 -5.97551 0.0418727)
(0 0 0)
(4.30601 5.44426 -5.34223)
(-2.54406 -5.27479 1.95605)
(-6.55077 3.68061 -4.74157)
(-5.50917 -14.9295 -4.07688)
(-0.515689 -2.94561 -2.27484)
(1.41665 -1.96199 -4.58405)
(-0.535966 -6.59659 3.30977)
(-1.03258 -2.47338 3.11982)
(0 0 0)
(6.66307 -7.7842 -2.67427)
(-1.99201 6.732 3.65796)
(8.1382 -3.77251 2.38667)
(4.05431 10.2334 8.33498)
(3.7394 3.79771 -1.3012)
(0 0 0)
(0 0 0)
(0 0 0)
(0 0 0)
(0 0 0)
(0 0 0)
(-0.448377 -4.21474 2.81353)
(0 0 0)
(0 0 0)
(0 0 0)
(0 0 0)
(-1.15031 -5.48986 0.738152)
(0 0 0)
(-1.50746 -7.29795 -5.40238)
(0 0 0)
(0 0 0)
(2.60813 0.411263 -6.28816)
(0 0 0)
(0 0 0)
(-3.43426 4.28702 -1.68317)
(0 0 0)
(0.577989 11.9699 -5.94025)
(0 0 0)
(2.23008 -9.28776 -5.29528)
(0.253716 -4.599 4.76755)
(0 0 0)
(0 0 0)
(0 0 0)
(0 0 0)
(-1.81555 -3.27453 2.78416)
(0 0 0)
(0 0 0)
(0 0 0)
(-1.80602 0.608366 0.292726)
(0 0 0)
(0 0 0)
(-13.0461 -4.38868 5.10921)
(8.75529 -14.7176 5.01913)
(0 0 0)
(0 0 0)
(6.98253 -0.929286 -8.54325)
(0 0 0)
(1.86012 9.16512 -9.45722)
(3.53965 -2.00316 4.80555)
(0 0 0)
(-0.221352 -0.168769 -0.690407)
(2.55041 -1.05218 -6.41343)
(-0.447045 0.437168 -2.39291)
(1.08669 -6.51352 6.13619)
(-0.376902 0.56577 12.634)
(1.3287 -6.1718 -0.877973)
(0.886935 1.13771 -1.05297)
(0 0 0)
(5.89494 -2.09427 13.863)
(0 0 0)
(0 0 0)
(-11.0137 17.0816 9.34341)
(0 0 0)
(0 0 0)
(1.64938 2.68989 -6.40321)
(0 0 0)
(0.563235 3.69788 0.767511)
(0 0 0)
(-0.369127 0.0779408 2.8001)
(0.522662 0.69854 0.264684)
(6.73048 -2.23245 -0.315792)
(0 0 0)
(-4.76041 0.0470984 -4.05134)
(1.46825 -1.41609 -2.84779)
(-5.83586 -4.09099 -2.54028)
(-0.105846 -0.705257 -0.105114)
(-4.12463 15.0843 -0.783278)
(6.26342 -2.79624 -3.42174)
(-1.04568 6.06635 4.03817)
(0 0 0)
(0 0 0)
(0 0 0)
(-13.4228 -6.1403 8.59505)
(-0.00850455 0.0065037 -0.00989504)
(-0.855828 3.06723 -3.8876)
(-1.23879 1.15664 2.81284)
(-2.8467 -0.91661 6.57782)
(9.53469 20.0092 -0.47911)
(1.07144 -4.26747 3.28005)
(0.878701 16.2254 -1.17934)
(-0.48706 9.25071 2.52051)
(-4.09038 0.449895 -2.64342)
(9.7184 13.9344 9.49704)
(-3.99577 0.103395 -1.52627)
(4.00713 8.56121 5.07949)
(-4.86636 -3.00965 2.51847)
(1.00813 6.0242 0.480842)
(-10.4614 11.5654 -11.3064)
(-4.42149 1.16043 13.1153)
(-7.80062 -5.76234 2.01787)
(-11.5509 -4.81486 -4.7405)
(0.561246 0.577764 0.367778)
(-7.55182 -10.0833 0.277287)
(3.24055 0.727301 -5.47516)
(-0.982139 -8.20453 -3.41905)
(-7.60856 -2.28778 7.35824)
(12.5528 12.5142 4.58627)
(-1.76137 1.76326 8.06802)
(-7.79699 -14.2133 20.5419)
(-8.54263 -6.77882 3.74637)
(-0.236812 -1.68913 -1.02082)
(-4.7449 1.73944 -0.74618)
(8.53903 -9.13434 -8.83166)
(0.683019 -2.22894 -3.15734)
(-2.47797 12.4153 -2.27661)
(8.0605 -1.72455 9.54302)
(-0.0176026 -0.630384 1.76285)
(12.4157 0.446075 -4.56227)
(5.53264 -1.45147 6.3669)
(0.569417 -0.002683 0.192301)
(-4.89795 -6.15667 -1.0141)
(-5.58377 -0.361335 -1.95356)
(10.3044 -2.37653 -6.57547)
(-0.903448 -4.08534 -1.34322)
(-1.40696 6.20114 2.31347)
(2.58755 -11.0206 11.0695)
(-5.81269 -1.37866 3.47806)
(-3.68896 -1.50254 0.454712)
(0.490039 -7.78037 0.0125198)
(1.29419 5.93065 1.15729)
(17.9255 2.25001 13.9212)
(-0.40941 0.681577 -0.817282)
(-5.46282 -1.79638 -2.82734)
(-9.56624 -1.43087 8.53566)
(7.62813 -6.85679 0.395236)
(2.68781 -17.7836 -0.875364)
(-3.33802 1.60372 0.325015)
(-12.9314 -1.48596 -2.67603)
(-0.335686 -0.0435921 -1.71736)
(7.66104 -3.12436 -2.60766)
(-2.11069 -5.76451 4.75032)
(15.1024 23.7402 -3.38293)
(4.98681 0.672816 5.83962)
(0.0306459 -2.97313 -1.40341)
(4.94471 -5.53978 -28.9854)
(-0.0832536 -3.55471 -1.22761)
(-3.68168 4.47994 -2.30949)
(-2.57484 -1.98802 -0.201128)
(7.19909 -4.04715 -6.62432)
(-0.518175 6.47485 -1.1249)
(6.50213 -0.624793 -0.217165)
(15.5073 -3.10302 4.38105)
(8.00957 -8.56797 -8.28406)
(2.25078 -2.43153 4.66694)
(12.1467 17.3669 14.4075)
(-0.0148776 -0.00570369 -0.00482774)
(-11.509 -7.59774 -9.13706)
(-1.028 -2.63925 -2.10925)
(7.72747 6.59498 -1.44209)
(4.09219 6.75728 1.80676)
(1.31927 0.441841 -3.4958)
(-2.07795 -4.60692 -9.97095)
(0.483464 -4.44997 -5.29081)
(-0.917025 2.94686 8.69318)
(14.3119 16.968 5.88153)
(0.9094 1.50792 -2.49619)
(-3.56555 -11.3904 7.19549)
(-0.56455 0.726034 1.19715)
(0.289178 -6.90742 -3.27872)
(-15.1671 13.2944 8.98427)
(0.0172288 -0.00988048 -0.0119821)
(12.3503 -8.36963 11.3818)
(-0.515989 -4.16739 -12.0768)
(-2.33231 -6.39238 10.1578)
(1.54156 3.96586 -7.30765)
(-1.43513 -8.40733 7.71216)
(-0.973043 -1.44046 1.78277)
(-1.98298 0.036401 -0.982383)
(1.33562 -1.51322 -2.25691)
(7.74774 -5.37966 -5.08189)
(4.63021 0.942156 3.63829)
(-2.60378 -8.318 5.25459)
(0 0 0)
(3.33893 -4.82391 -4.39839)
(-15.2406 -6.84894 9.21248)
(-1.5815 -5.20298 -0.46377)
(3.11003 6.34104 -14.8585)
(-3.90987 10.1909 16.8688)
(-0.11041 -0.350315 -4.86068)
(-15.3619 -11.7813 -0.104419)
(-0.0154487 -0.00870359 0.00832914)
(0.278594 0.936378 -1.15466)
(-2.63689 1.25137 -4.89667)
(3.22092 -3.04665 -5.1099)
(0.861144 -2.81767 0.921651)
(-7.94208 1.80829 7.06814)
(4.84009 -1.17007 -1.85721)
(-2.90872 0.483932 -2.16371)
(3.2878 -3.19121 0.76017)
(-2.91901 -14.8819 15.3187)
(-10.0162 -6.61225 -7.95192)
(1.11697 -0.245697 -0.308254)
(9.55567 8.79939 -1.82758)
(-5.09065 -10.9761 7.9171)
(6.2927 -1.11839 -13.7193)
(-3.59718 1.46883 -6.28373)
(0.268045 8.13222 9.12662)
(16.2967 6.24213 3.98456)
(0.0779033 0.170274 -0.0229615)
(-4.65246 -8.4811 12.2573)
(-4.52272 3.72841 -0.141709)
(-8.38839 9.93077 7.62006)
(14.3278 15.5053 -0.330739)
(-0.998068 -0.125618 -10.6027)
(-3.5798 15.3184 -5.56494)
(3.5756 -0.18044 -0.410202)
(3.02802 0.442798 -0.965603)
(-1.14072 1.58147 0.830602)
(4.91241 -6.2046 -2.60236)
(0 0 0)
(2.70012 -2.6825 -1.49931)
(1.52587 10.7714 -6.16225)
(1.18508 5.43106 -5.78409)
(-1.21442 -10.4995 -0.920478)
(0.558977 -13.3519 -6.33772)
(0 0 0)
(9.73404 -4.66124 -4.89891)
(-1.4228 2.53326 8.19211)
(-1.94966 -1.06533 0.552027)
(-1.2943 -2.86467 10.7032)
(0.580167 0.155714 2.23464)
(-5.49473 -11.2033 -5.25858)
(-32.2277 -12.15 -3.90951)
(2.54706 12.4732 -0.30596)
(4.98034 6.17083 -5.76992)
(13.7807 9.53891 1.31302)
(1.74154 -6.72914 -3.84012)
(-0.362022 -0.00640798 -0.167787)
(3.53923 3.52749 -4.50922)
(0.752592 -0.760502 -0.990828)
(0 0 0)
(-3.32015 -7.86633 -4.2484)
(10.895 -8.05554 -5.91527)
(3.5201 10.6771 -2.04384)
(3.72564 -5.58959 32.5994)
(2.24942 -3.89292 4.16902)
(-1.83165 -1.45375 -1.33423)
(-0.47743 4.86437 0.899269)
(-2.52891 0.0174802 -4.99546)
(0.517711 -0.00266548 -0.263214)
(0.452092 -2.07257 -0.953854)
(-0.728483 -1.18207 3.24852)
(0.909893 5.27623 -2.12446)
(-2.31749 -4.46203 5.9412)
(2.89334 3.61814 1.28323)
(0 0 0)
(4.86167 -7.0498 -1.63121)
(-5.6155 -2.49557 -1.58383)
(6.83191 -14.6366 3.24271)
(2.01682 -0.406645 0.19244)
(-0.335056 0.410115 -5.2475)
(-3.90137 -4.43277 5.37729)
(0.940158 -1.74903 1.52874)
(0.499386 -2.78971 2.35722)
(-1.63153 -6.08207 1.46289)
(7.70904 0.0431756 0.373176)
(0 0 0)
(-1.44848 -2.54196 -0.468475)
(10.9649 -14.4955 5.54939)
(0 0 0)
(-2.36406 4.09427 -5.27371)
(0.684548 -17.2246 -6.34284)
(-10.16 -7.79186 -0.0690606)
(1.82346 0.924353 -6.75826)
(0.561338 -7.88535 -1.6234)
(5.11486 5.19931 8.20742)
(2.99306 -2.73868 -0.143253)
(0.750201 -18.8765 -6.95116)
(10.2046 2.84046 -12.0658)
(-6.33773 -9.71043 6.75123)
(-0.072713 5.53501 5.45558)
(5.0446 -7.31507 -1.69259)
(1.34803 0.24436 0.516752)
(-0.163925 0.526478 -0.0442107)
(0.485467 -5.00888 -2.03654)
(0 0 0)
(-11.8478 -11.3891 3.78354)
(14.2916 -2.84636 -21.8716)
(0.531749 -0.606788 0.330247)
(0.639585 -8.98452 -1.84969)
(1.00857 -0.927506 0.27108)
(3.3288 -0.511828 1.00097)
(0.002038 -2.53516 13.3472)
(5.99807 -1.70875 -0.351674)
(-0.826818 2.82924 -2.63323)
(0.356781 -2.38957 -9.71464)
(0 0 0)
(3.44356 2.00549 1.57376)
(-0.995573 0.540961 1.24058)
(-9.5663 -3.8327 3.43322)
(8.39339 5.44495 -0.992371)
(0.564798 -1.00113 -2.95214)
(1.16167 -5.31332 -0.241066)
(-1.85605 -0.873218 4.56629)
(-8.07847 -2.97094 -0.738096)
(0 0 0)
(-0.388442 -4.09598 -13.8104)
(16.1257 -4.33177 -3.18644)
(16.9042 -5.00203 -0.820222)
(-6.59848 -0.188258 -1.52476)
(-0.766245 -1.31083 9.31917)
(3.11575 -14.3991 -8.44255)
(-3.2015 1.62006 1.51793)
(0.230532 -0.927312 0.798192)
(1.46143 2.44431 -0.45455)
(0 0 0)
(3.47299 -7.24321 1.92289)
(3.35161 -2.13427 1.25129)
(1.7419 -1.18028 -5.97209)
(-6.19816 12.3518 4.91074)
(-0.0416258 5.40509 4.1304)
(1.55633 -6.48115 3.62898)
(-0.290878 -2.84264 -0.538234)
(1.62177 0.148967 0.0723261)
(-3.02061 4.95348 -2.92602)
(0 0 0)
(-0.205982 -0.211456 0.103215)
(0.0719056 7.37359 1.74417)
(0.255063 2.16501 1.69441)
(-25.5636 -1.56266 -1.7345)
(-8.11522 13.4962 1.10277)
(-7.86378 9.30971 7.14351)
(6.21405 8.02527 3.29602)
(0 0 0)
(-1.54173 -3.12648 -0.062148)
(-0.186167 -0.505571 -1.2555)
(-4.00176 2.82542 10.5252)
(-0.0212103 0.0486498 -0.00527901)
(0 0 0)
(-12.9354 -2.25422 -8.65643)
(-5.29024 -6.44231 7.35009)
(-3.21525 5.97466 -1.58376)
(7.68782 -11.4441 2.51314)
(12.4259 16.7561 -12.5592)
(0 0 0)
(0 0 0)
(1.12566 -1.71795 -2.06917)
(0.212545 -0.768978 -0.906818)
(0 0 0)
(-1.23048 1.06816 0.429044)
(3.01599 3.6821 -7.18811)
(0 0 0)
(18.0696 30.9053 -7.58588)
(-1.51033 -3.97387 -1.15634)
(-0.954871 -8.65891 -4.76074)
(18.0501 30.8718 -7.57767)
(6.12181 11.5802 -4.47848)
(-37.4204 25.8114 2.17186)
(-2.66099 27.7945 1.89895)
(16.7968 24.0154 19.9231)
(-2.87047 26.7841 -3.84285)
(2.40252 7.18865 2.92321)
(22.8428 21.2701 -5.19055)
(-20.2675 2.77732 8.51874)
(-44.8119 -16.8943 -5.43609)
(-13.426 -2.3885 7.79804)
(19.2865 -3.84117 -29.5158)
(5.56459 3.28044 5.2642)
(4.3742 0.7669 6.98004)
(-3.57231 7.28227 -10.7871)
(-11.5407 9.69677 1.60891)
(1.60307 9.29577 -3.74292)
(-0.61755 -2.1581 0.571291)
(2.73932 -8.96308 2.9318)
(7.49577 -7.27555 1.73309)
(8.83897 19.9632 13.2726)
(-0.829837 4.53009 -1.61629)
(-2.6146 2.8293 -25.8403)
(3.51337 -3.07124 1.85503)
(11.4725 24.0757 -0.576482)
(8.6858 -2.38041 6.17428)
(1.56169 -0.881055 3.77409)
(-5.37046 0.138967 -2.05137)
(-1.50458 2.08591 1.09554)
(-0.869923 8.86334 1.63855)
(-8.31682 0.485833 5.84939)
(-23.1791 20.3172 13.7302)
(19.3577 -3.44042 -42.2037)
(-0.413863 4.20921 2.01321)
(-2.14084 -3.75701 -0.692404)
(-0.208381 -8.89733 -3.07268)
(-1.01246 -4.5783 -1.50529)
(-1.1605 0.0328064 -1.11472)
(-0.280571 -4.29974 1.25968)
(1.6756 5.7027 3.69749)
(6.81153 10.53 8.95642)
(8.93214 12.8071 8.72868)
(11.8998 4.55799 2.90952)
(4.37623 8.30727 -7.29702)
(-1.69983 -4.36409 -3.48771)
(1.40514 0.377134 5.41221)
(0.958928 -0.0401206 0.00398033)
(0.776616 -4.3384 3.66582)
(-7.95375 -3.23963 0.980403)
(20.7136 2.59997 16.0864)
(-0.933946 2.96898 -1.28473)
(-7.12369 -1.08942 -0.896942)
(8.92066 -3.8338 3.04513)
(-13.0529 -9.79646 -29.9226)
(-0.664961 1.10701 -1.32743)
(5.58207 4.29501 5.93349)
(-15.8049 -7.10251 9.55354)
(7.98748 0.954797 4.95347)
(12.7667 -7.17711 -11.7474)
(27.5443 -5.51163 7.7817)
(1.29123 -1.95026 -1.37422)
(14.396 11.6388 5.36248)
(10.2638 3.40189 -18.6561)
(6.83172 9.82256 -1.90373)
(3.61236 -0.873271 -1.38611)
(17.1846 2.57054 7.67188)
(1.57068 0.52604 -4.16197)
(11.4564 7.93004 1.09156)
(2.52296 -9.74846 -5.56316)
(3.05508 3.51786 1.13423)
(-1.01874 -0.548191 -0.341342)
(-11.4064 11.0534 -19.0739)
(-5.19676 8.35721 5.66606)
(-3.03246 -1.42668 7.46051)
(1.61628 7.40718 -7.88867)
(-0.33725 -0.64758 0.0348357)
(-0.179447 7.47478 -5.49242)
(-5.07753 -4.02995 -3.69863)
(-11.715 4.28359 6.38252)
(-0.655127 8.18613 -1.4222)
(13.9951 -14.9708 -14.4747)
(0.861307 15.9043 -1.15599)
(2.58761 -5.77574 -2.71669)
(-6.83914 -0.195125 -1.58037)
(3.22075 4.02757 1.42845)
(12.8328 11.8172 -2.45436)
(-0.769236 -0.0968167 -8.17174)
(-0.896377 10.3103 9.94774)
(2.481 1.29856 1.4805)
(-2.52392 -5.59567 -12.1109)
(0.556587 -0.562437 -0.732777)
(-0.133831 -0.424625 -5.89175)
(9.93026 -4.75521 -4.99766)
(-8.26132 0.617518 6.08227)
(0.315549 -0.00162463 -0.160431)
(-13.3294 9.85603 -4.69445)
(9.34401 7.97461 -1.74376)
(-4.51989 -2.46974 1.27976)
(0.570904 -1.86307 -2.63908)
(3.15068 -3.13012 -1.74949)
(35.6071 -10.5363 -1.72773)
(3.20596 -1.87684 0.112484)
(13.6506 2.77763 10.7263)
(0.548044 -7.69861 -1.58495)
(1.96045 0.355373 0.751516)
(0.0201244 -0.188682 -0.121794)
(0.0257542 -0.0147697 -0.0179113)
(-9.14942 -11.1419 12.7119)
(-4.23224 -9.8985 -4.80257)
(3.31019 -5.28198 2.62305)
(1.65495 -0.333682 0.157911)
(-1.17165 -1.73448 2.14666)
(3.62506 -2.45628 -12.4285)
(-4.01751 15.4404 -5.42988)
(-1.72616 -6.43485 1.54774)
(-1.36811 -0.691541 1.05169)
(5.76875 -26.6596 -15.6312)
(-9.32066 -1.39413 8.31654)
(-3.6138 0.960316 0.804085)
(23.6013 7.98436 -9.91785)
(1.59537 3.03619 2.30053)
(-4.61757 0.418056 -0.666226)
(16.8017 26.4113 -3.76356)
(-0.080985 6.16469 6.07622)
(-2.8106 0.0194273 -5.5519)
(-1.35388 4.63276 -4.3118)
(-7.8305 0.895403 -0.182321)
(0.777678 1.28951 -2.13463)
(5.22417 3.79212 -9.94383)
(5.09591 6.31403 -5.90381)
(-7.97108 3.25482 -13.9243)
(13.862 -0.294603 -3.58888)
(0.582582 -0.535758 0.156585)
(-4.81097 2.43449 2.28102)
(-3.18706 2.76664 1.11126)
(-4.32515 7.49063 -9.64848)
(1.996 1.0028 3.54859)
(-0.595892 -5.42084 1.18362)
(7.30232 -15.6445 3.46599)
(11.78 -2.04807 7.1141)
(0.0731261 0.159832 -0.0215535)
(0.314686 0.0404453 -0.128716)
(-0.46344 0.2977 1.37129)
(15.6423 1.32135 -14.3279)
(2.2934 3.83581 -0.713318)
(-0.265621 3.70937 -0.79682)
(16.8868 22.7716 -17.068)
(3.86203 -0.59896 -2.42638)
(-6.87914 11.281 -6.66372)
(8.14767 -12.1286 2.66346)
(11.4389 13.5618 4.70086)
(5.08775 2.96305 2.32518)
(1.58013 -7.22735 -0.327905)
(-1.25147 -2.76988 10.349)
(-5.08338 3.02801 -1.06467)
(2.97135 2.96149 -3.7857)
(16.6897 -4.48328 -3.29789)
(-0.504942 -2.76636 -2.20993)
(2.79238 -0.795503 -0.163721)
(1.53651 -2.34498 -2.8244)
(2.60311 12.8259 -13.2347)
(0.00213771 -2.65919 14.0003)
(-0.740521 3.64184 -0.444092)
(3.57518 -0.180419 -0.410154)
(-3.99295 -7.6879 10.2364)
(2.80047 0.511118 -0.418032)
(1.26715 1.83629 3.13045)
(1.74624 0.885206 -6.47205)
(-0.769505 -2.75331 -11.9157)
(2.29845 4.32303 5.56317)
(2.11905 1.24184 0.585673)
(-7.97396 15.8907 6.31769)
(2.19775 0.201874 0.098013)
(13.4739 0.0754627 0.652241)
(5.01539 -2.32106 3.68453)
(-1.71179 4.46172 7.38535)
(2.82205 -8.88983 4.16929)
(8.76979 2.44107 -10.3692)
(-9.82295 -3.93553 3.52533)
(-0.101497 13.1793 10.0712)
(-0.0110082 -0.109197 -0.02732)
(-4.83028 8.03312 0.656382)
(0.276405 -1.85125 -7.52612)
(-0.62813 -1.07455 7.6394)
(-18.2979 0.250333 2.10962)
(12.5017 8.11011 -1.47811)
(5.95731 -6.74702 -1.977)
(3.86855 -4.88615 -2.04937)
(1.53104 -0.840497 3.5826)
(0.799148 0.688277 1.9017)
(-0.18596 -0.190902 0.0931822)
(0.533179 -0.80531 -0.567448)
(-1.70608 -0.364598 1.35472)
(-0.246765 -0.699953 3.52997)
(11.7007 -2.87214 -13.5735)
(-5.37625 -1.97717 -0.491206)
(-11.0126 9.92971 -1.59788)
(-0.125958 -1.83224 3.78235)
(0.0782859 -0.197923 -1.30763)
(1.12585 0.324756 0.246333)
(1.53858 2.59376 -3.8867)
(-13.1401 -2.28989 -8.79341)
(1.63628 1.99766 -3.8998)
(1.82841 2.2176 -0.480824)
(-0.390955 -2.37824 3.24927)
(12.7065 -4.1133 10.9401)
(-6.24771 3.72259 -1.11909)
(2.24205 -9.33676 5.22793)
(-0.390636 1.2546 -0.105355)
(2.18154 -3.27976 -3.4075)
(-0.00910438 -0.335505 -0.136449)
(11.5435 14.9081 6.12281)
(1.74268 5.64329 0.761732)
(0.677933 1.3629 7.26025)
(6.33326 -4.03296 2.36446)
(7.44153 -0.739496 -6.09358)
(2.5151 -2.48832 -2.91163)
(-13.9289 4.30227 10.8329)
(0.0833542 8.54759 2.02187)
(-1.16129 6.30508 -1.4406)
(-6.46267 -4.71998 -1.37241)
(0.0677681 -0.530272 -0.37194)
(2.64037 -0.0386148 -0.658084)
(-0.439311 -0.266029 -1.13542)
(-5.12314 -4.52417 6.91085)
(-3.14325 13.4504 -4.88632)
(-0.339503 -0.921983 -2.28959)
(1.63496 0.751409 -1.52361)
(-8.15476 -16.2494 -2.58488)
(-2.5731 -5.21798 -0.103723)
(-2.0984 -0.34833 -0.096994)
(0.00673931 0.00490606 0.00646439)
(-17.3229 3.99985 -2.26219)
(7.62012 -2.7288 -2.58988)
(0.00517245 -0.0147053 0.00393177)
(-0.0286903 0.0658064 -0.00714068)
(-1.06904 -1.43084 4.54399)
(3.77282 -5.92335 -2.76228)
(-0.213836 0.577874 0.217261)
(0.355194 -3.45276 2.73994)
(-1.04811 9.77985 -1.40317)
(2.42227 6.13045 -4.7468)
(3.96537 -0.233323 -0.7221)
(4.59949 -0.25928 0.655709)
(-0.933026 -2.4914 -0.56977)
(3.50047 -1.32159 -2.51266)
(-0.66448 4.21937 2.41282)
(0.640405 1.50937 1.04848)
(-11.3083 9.50148 1.5765)
(-2.14168 1.51213 5.63296)
(2.1732 0.859644 -2.33043)
(-9.22655 -4.73528 -5.68012)
(-13.1598 7.87914 6.22224)
(-2.51437 -3.25648 3.40082)
(-19.2345 1.10214 3.38783)
(0.411566 0.941959 -4.81573)
(-4.99328 -2.46078 3.92029)
(-5.6492 10.4975 -2.78267)
(1.57166 5.21189 -3.76475)
(-1.93909 -1.50937 -1.11982)
(-4.04033 6.59037 5.62509)
(6.73543 4.14143 -9.59526)
(-3.26025 5.98325 2.32503)
(13.9158 5.08311 4.91777)
(-1.54145 2.81798 14.7465)
(2.23539 7.58782 -6.01986)
(-0.356465 -2.29175 3.79712)
(-1.9022 -5.94853 22.5434)
(1.61496 5.8092 0.534883)
(16.6193 18.4016 -6.4312)
(1.6826 2.04289 -2.03539)
(1.37682 -2.56138 2.23878)
(8.30253 6.84352 7.44215)
(-7.87313 -2.25809 5.18462)
(-0.0387557 -4.21047 -2.53716)
(-0.259487 -6.78919 3.52061)
(8.55623 -0.176525 4.6428)
(-0.994807 -5.49857 -3.40519)
(-5.89005 -3.02909 0.497177)
(-3.86066 -1.51479 -2.25369)
(-1.18886 0.995488 4.34252)
(2.60292 0.787069 -4.03295)
(8.90026 -2.6729 -5.77553)
(0.268186 2.27641 1.78159)
(1.68434 -9.15297 1.09553)
(-2.85622 -1.63367 1.23133)
(8.10343 -0.763476 -1.1789)
(-1.02472 0.0642184 -1.56158)
(9.45734 -6.39612 -3.67838)
(8.5249 -4.87031 -24.5907)
(-7.77809 2.02299 -0.907552)
(4.45789 -1.91585 1.52173)
(-0.777906 -0.0277422 0.311739)
(0.783078 -11.7679 2.9216)
(-3.12138 -7.10671 -1.45868)
(-1.43029 1.33767 4.17526)
(-8.11304 0.473929 5.70606)
(0.15755 -2.1136 -0.491796)
(9.32139 7.53612 3.47219)
(2.06301 2.51804 0.233327)
(-1.04799 -0.85133 -1.00414)
(-2.60546 0.0327141 -6.94094)
(-7.183 21.5842 -1.02055)
(2.5727 2.90674 -3.30178)
(-6.98837 8.72364 -3.42507)
(0.381264 11.5672 12.9816)
(12.6727 -10.7368 -11.1582)
(3.06654 3.42711 1.17475)
(-14.0961 -4.09151 -1.67106)
(-0.756934 -0.441767 1.65631)
(-17.7821 2.68307 1.05121)
(-4.65566 4.77021 -1.90873)
(-3.45377 14.7792 -5.36903)
(-0.00938737 0.624203 -1.7489)
(-0.349562 -1.18779 17.2795)
(-18.7888 -3.27429 -12.5736)
(-17.9749 12.0086 -2.45934)
(3.33093 -0.346237 1.61827)
(10.148 17.4838 14.6561)
(6.85483 17.3487 -13.4331)
(1.57318 -2.40095 -2.89181)
(-13.7646 1.28533 -14.0921)
(-6.51266 3.36808 1.43138)
(2.17873 3.64403 -0.677653)
(1.68578 7.72515 1.50746)
(12.8221 9.70534 -2.4932)
(0.362895 3.0803 2.41074)
(7.5244 3.89324 -3.00468)
(0.890935 -4.08439 -1.87975)
(0.189651 -2.54424 -0.591999)
(4.43572 -5.10122 4.01926)
(-3.53764 4.71752 -7.08712)
(3.16411 4.4606 -11.3065)
(-11.9181 -7.14535 7.10924)
(-2.79661 6.67146 -6.54719)
(-0.0924497 6.45957 -2.94947)
(-59.2688 -3.623 -4.02141)
(14.5081 2.89906 -10.9923)
(-0.0286254 0.0656577 -0.00712454)
(3.03321 5.705 7.34158)
(4.67489 -1.35151 5.7771)
(1.35158 -2.39574 -7.06455)
(-12.3611 -5.49337 -3.48639)
(6.5208 -19.4063 -28.1498)
(-11.2942 12.3827 3.06438)
(-1.74115 6.24016 -7.90918)
(-6.40832 -1.29248 -11.2787)
(5.39426 6.58563 -12.8563)
(-5.31574 8.71724 -5.14928)
(-8.27122 -7.68466 -27.2938)
(2.13768 -3.21383 -3.339)
(-11.5381 -2.34823 7.90929)
(8.77175 19.2721 -4.89837)
(1.64337 -0.264104 0.586098)
(-5.68569 0.104371 -2.81673)
(3.76309 -3.05429 -4.44793)
(-4.20573 3.46877 3.44565)
(2.95236 0.271188 0.131666)
(-6.13911 -0.516355 0.147077)
(-16.6836 0.228248 1.9235)
(-0.0102119 0.00780936 -0.0118815)
(-71.2187 -8.76576 -14.1266)
(-18.14 -1.17387 -6.34652)
(12.3744 -0.697563 1.76411)
(4.74682 2.42389 -6.67979)
(-0.809619 -1.94645 1.07583)
(-1.04056 -1.7801 12.6555)
(-6.56193 3.90982 -1.17537)
(-1.71077 1.71259 7.8362)
(-0.0901699 -0.0339509 -0.0505555)
(-2.94818 3.25935 -14.9878)
(-2.42803 -1.38876 1.04674)
(-1.20604 -0.660423 0.296533)
(17.6414 -1.69517 -0.589207)
(3.48849 5.05534 8.61822)
(-0.707175 1.48431 0.168928)
(-3.89047 -3.56453 -2.5119)
(-0.452796 8.59994 2.3432)
(-35.0353 24.2334 -32.5737)
(-3.50557 7.35742 -8.00185)
(0.910363 5.5085 -13.1455)
(-4.60114 6.40895 -2.61827)
(-20.5468 26.5548 24.8481)
(-0.406729 -2.4742 3.38038)
(-4.41046 -1.42013 10.1912)
(5.1513 2.04838 7.1821)
(4.2227 -2.56135 -4.69714)
(-8.85986 -4.96304 5.97975)
(-0.528981 20.7507 -24.1818)
(-2.45607 -0.08759 0.984248)
(1.63923 1.68747 1.07417)
(-17.0288 -1.27097 -4.95053)
(-3.30664 0.207224 -5.03902)
(0.796953 1.60218 8.53488)
(-6.31425 -4.91495 -3.64648)
(2.92717 31.5201 4.48556)
(12.5097 -7.14687 -36.0852)
(3.09199 13.9796 -18.709)
(2.2743 1.14482 -1.23105)
(-0.445038 0.468829 0.510629)
(0.578158 0.497946 1.37582)
(6.3 0.324254 2.60498)
(2.43095 2.74658 -3.11985)
(-0.0874 -8.99507 5.84713)
(-3.69866 -4.95042 15.7213)
(-10.5051 0.112529 -0.757155)
(-12.7136 3.9269 9.88775)
(-1.54066 -2.91548 0.103977)
(2.1682 2.78123 -2.57409)
(6.63324 1.21064 -0.990156)
(-7.86692 7.09338 -1.14146)
(-2.36488 -1.41993 -1.16214)
(3.56658 7.61997 4.52103)
(8.67052 -1.60551 -2.83449)
(1.48724 2.20598 6.39276)
(4.52438 12.7982 32.1318)
(6.49197 8.90179 -3.40384)
(-7.14815 -0.0863912 4.22225)
(-3.62018 1.05636 4.28388)
(1.34985 27.9548 -13.873)
(22.5315 5.39583 12.3261)
(-18.0664 15.3558 -8.25239)
(-3.19718 -0.333933 -1.47752)
(26.2311 13.5091 -18.4069)
(0.617751 -0.00291074 0.208624)
(10.7921 -1.5578 0.358383)
(2.10036 7.12948 -5.65623)
(-6.24567 8.83813 10.4934)
(-0.169322 3.08111 -4.56129)
(-4.87305 -1.91202 -2.84468)
(7.46805 16.8916 23.1233)
(-0.0618519 5.27664 -8.9145)
(-6.02402 1.58101 17.8687)
(2.05895 -15.1382 -9.86627)
(0.960651 10.1144 12.8204)
(-3.11097 2.99771 -2.47106)
(-1.02409 1.87218 9.79714)
(-0.861456 -3.03041 -5.31782)
(3.22443 1.24622 -0.650386)
(-7.73611 -6.29333 -9.9331)
(-5.97295 -1.91093 6.43158)
(-1.09967 0.174176 -0.281143)
(0.397204 -1.32042 0.251189)
(-2.90316 -5.85417 -2.46071)
(-5.56526 2.3303 1.37401)
(-3.41304 -2.15882 -8.1451)
(34.7689 -18.2736 -16.571)
(-1.3072 7.7049 -1.92014)
(-0.40795 -2.82559 0.389184)
(9.42464 -16.1792 -39.3989)
(8.28482 1.61823 12.6194)
(0.0114849 -1.322 0.792121)
(5.08233 6.1706 -6.14795)
(12.9432 8.04792 15.1354)
(-3.37729 0.831678 -1.20241)
(-3.61019 -2.17006 11.74)
(0.37048 2.09569 0.566173)
(-0.17701 0.346488 -0.252791)
(13.2965 5.83497 7.28015)
(-0.294945 -1.89624 3.1418)
(4.27305 3.02024 0.349718)
(-9.19389 4.41712 0.895186)
(-2.46574 2.82002 1.62156)
(0.57574 0.429789 -0.856964)
(0.779392 16.2608 15.1325)
(8.43022 0.302884 -3.09778)
(-9.03569 27.1514 -1.28378)
(7.42569 -10.7076 -5.37129)
(-10.753 -1.23564 -2.22524)
(10.1868 5.0777 -0.581627)
(3.22342 13.2836 -1.17713)
(3.26686 -0.857049 3.75947)
(-0.906688 -0.553555 1.17269)
(0.0417225 -4.04772 -1.91066)
(-6.51334 0.716392 -4.20925)
(8.63449 6.91729 -26.8105)
(0.850802 -5.60728 5.91594)
(3.43394 0.130078 4.16231)
(4.02446 7.62781 -22.709)
(-2.76882 16.531 -6.43058)
(43.126 -32.1611 9.3766)
(-2.29253 -5.4914 6.92663)
(3.8351 0.538112 -0.134237)
(10.2168 15.4832 -2.30571)
(0.334155 0.0614575 0.647812)
(-2.18786 0.646181 -0.167012)
(-3.05122 8.32531 3.37037)
(-17.7595 4.04357 15.8052)
(-0.816432 1.04996 1.73127)
(2.39005 0.263072 7.54541)
(9.761 -4.8084 0.78903)
(7.53766 2.27924 -11.6788)
(7.00657 -5.39556 -12.2458)
(-1.21304 -0.235913 -3.59858)
(-5.06787 1.70714 0.821418)
(17.0421 10.1493 -5.49169)
(-8.41794 -3.38716 3.96329)
(-5.08146 0.845417 -3.77995)
(3.21927 0.346465 16.238)
(-0.750668 -3.25085 -2.08363)
(-4.11839 -5.33391 5.57033)
(-13.8454 -5.77128 -5.68215)
(-26.2136 0.648369 22.0107)
(5.58706 11.3914 -26.6928)
(-10.5818 12.1498 7.39919)
(-8.42161 -8.01319 2.01324)
(-12.1455 3.63666 -17.3925)
(-0.64941 -0.393257 -1.67843)
(-18.7115 11.5842 9.63376)
(-2.29032 11.5427 6.66341)
(-11.9875 -2.49725 1.08984)
(2.94501 -0.441693 -0.533296)
(9.6859 5.65378 -8.5589)
(0.480369 0.415396 -1.4911)
(4.0304 4.88829 -1.05989)
(-4.24096 16.0268 11.3561)
(-2.94176 -9.19944 34.8635)
(0.441948 -0.0439834 -0.886241)
(-1.5741 6.9378 2.5883)
(-1.53764 -3.42684 3.56015)
(-0.547002 0.66954 -8.56691)
(0.627436 -0.661387 -0.785095)
(7.01807 -4.43892 8.90626)
(0.870632 -3.46767 2.66532)
(-10.4901 3.84559 -1.64967)
(19.3313 3.59653 -4.74598)
(-3.19583 26.1096 19.2006)
(-1.94434 2.83338 2.29479)
(-25.5675 -0.586346 21.3671)
(-15.0858 16.6779 -16.3044)
(10.1697 10.3376 16.3185)
(0.193774 1.70745 27.6662)
(-11.6449 23.9257 -16.2685)
(-6.48603 -5.00782 -0.506641)
(-4.16686 7.419 23.9917)
(-1.6565 -0.797816 -7.91256)
(-16.8134 37.2111 -12.5785)
(-23.5427 -7.05809 -21.8885)
(7.41802 -3.69347 -14.8696)
(-1.18531 8.02825 4.90812)
(-1.04904 2.51356 0.419057)
(-0.0395357 -0.0222739 0.0213156)
(-2.45955 -11.181 -17.3037)
(-4.08006 20.4422 -3.74851)
(4.08424 10.5072 -19.361)
(4.71168 -8.95399 -8.71588)
(-10.8054 -5.55694 0.912084)
(-7.73043 3.16774 3.80725)
(-9.51291 0.978931 4.4813)
(-2.46827 -8.12041 -0.723816)
(2.44454 0.888055 -4.20648)
(1.31596 -7.16643 7.71206)
(-25.6123 8.9553 -6.21581)
(1.24187 -19.7172 0.0317281)
(-0.0716419 -2.03428 -1.13773)
(-2.859 18.1881 -37.7963)
(-9.72033 -10.5294 21.521)
(-1.07786 -9.77419 -5.37393)
(1.04949 -0.821682 2.70697)
(-7.98649 0.100278 -21.276)
(0.433384 -3.28072 17.0899)
(-10.9017 12.9062 9.90313)
(-6.73941 -8.47136 -1.39537)
(27.9667 -21.6371 9.89091)
(1.90992 4.50147 3.12695)
(-7.22926 -2.27309 0.228104)
(-0.0782893 4.11597 -2.72253)
(0.216862 -0.11059 -0.208041)
(-7.82884 6.45388 -0.245298)
(3.91173 6.4593 1.72708)
(1.10093 5.61657 7.76034)
(0.361857 1.21624 -1.49975)
(4.96418 -2.74078 13.3207)
(0.664267 2.0443 -1.7956)
(-0.0466624 -0.0178892 -0.0151418)
(0.920828 0.070731 -0.702837)
(0.586024 -6.83832 -3.70486)
(7.01678 1.02609 -2.23758)
(-25.2453 -11.8589 -4.65446)
(-2.74018 -7.48371 6.16704)
(1.06572 -9.80929 -11.6628)
(-2.41625 -3.24774 0.140938)
(-10.2845 4.45664 -5.21775)
(-1.15516 -0.702286 -0.526065)
(-0.567162 -0.0100391 -0.262864)
(-5.132 4.48576 -0.79866)
(6.80278 6.29635 -1.38722)
(-4.36773 19.2909 1.48798)
(-17.164 -1.11541 -13.8254)
(17.8556 -3.82022 21.1397)
(-7.42392 1.68161 6.17209)
(-14.5937 3.79564 -1.70279)
(0.471654 -0.0299915 -0.203109)
(21.3487 15.2258 -5.12078)
(-7.16631 4.15349 2.16128)
(-0.571079 -0.325432 -6.97764)
(0.573515 -1.84644 3.165)
(9.13176 14.2065 4.65571)
(-5.96875 -1.98937 -9.42189)
(4.93249 -4.51327 -0.236078)
(0.590767 -0.394046 0.661648)
(5.54559 0.100029 5.71875)
(1.1476 6.85757 0.547361)
(-0.651584 -0.929297 0.475041)
(29.0509 31.4384 -0.670603)
(22.7611 -0.469586 12.3506)
(-3.21616 -1.84156 -3.30254)
(0.876897 -1.00064 0.544605)
(-0.629977 -6.15652 -1.16569)
(-5.40265 6.57405 -3.38904)
(-3.6311 3.16593 -4.60576)
(-15.8507 -0.0384067 5.65188)
(2.70418 -2.62204 -2.27998)
(-4.28587 2.03391 -7.95881)
(3.90463 -4.42387 -6.598)
(-0.921991 -0.00910607 -0.491688)
(-7.98072 6.55687 -2.11993)
(34.9018 -10.5584 15.6697)
(-0.817605 1.37616 -0.15283)
(6.30308 -3.21473 -2.60388)
(5.69869 1.279 -9.62836)
(-1.25818 4.04315 11.9272)