/*--------------------------------*- C++ -*----------------------------------*\
  =========                 |
  \\      /  F ield         | OpenFOAM: The Open Source CFD Toolbox
   \\    /   O peration     | Website:  https://openfoam.org
    \\  /    A nd           | Version:  7
     \\/     M anipulation  |
\*---------------------------------------------------------------------------*/
FoamFile
{
    version     2.0;
    format      ascii;
    class       scalarField;
    location    "0.15/lagrangian/reactingCloud1";
    object      age;
}
// * * * * * * * * * * * * * * * * * * * * * * * * * * * * * * * * * * * * * //


1205
(
0.008313
0.006681
0.006729
0.006657
0.006537
0.006297
0.006441
0.006609
0.006249
0.006321
0.006129
0.006225
0.006153
0.006465
0.006585
0.006033
0.006009
0.005961
0.006105
0.006273
0.006081
0.005841
0.005793
0.010593
0.010977
0.006057
0.005769
0.005937
0.005649
0.005865
0.005913
0.006177
0.005601
0.005673
0.005577
0.005697
0.005721
0.007233
0.005625
0.005481
0.011001
0.005505
0.005529
0.005409
0.005433
0.005361
0.005889
0.009753
0.005553
0.005265
0.005313
0.005457
0.005193
0.005385
0.005097
0.006417
0.005217
0.005289
0.005169
0.005049
0.005073
0.004977
0.004953
0.002481
0.001593
0.001569
0.001545
0.001521
0.001497
0.001473
0.001449
0.001425
0.001401
0.001377
0.001353
0.001329
0.001305
0.001281
0.001257
0.001233
0.001209
0.001185
0.001161
0.001137
0.001113
0.001089
0.001065
0.001041
0.001017
0.000993
0.000969
0.000945
0.000921
0.000897
0.000873
0.000849
0.000825
0.000801
0.000777
0.000753
0.000729
0.000705
0.000681
0.000657
0.000633
0.000609
0.000585
0.000561
0.000537
0.000513
0.000489
0.000465
0.000441
0.000417
0.000393
0.000369
0.000345
0.000344625
0.000321
0.000297
0.000273
0.000249
0.000225
0.000201
0.000177
0.000153
0.000129
0.000105
8.1e-05
5.7e-05
3.3e-05
9e-06
0.006201
0.004713
0.003657
0.002961
0.002865
0.002841
0.002793
0.002769
0.002745
0.002721
0.002673
0.002697
0.002577
0.002601
0.002553
0.002529
0.00248063
0.002505
0.002649
0.002457
0.002409
0.002433
0.002361
0.002385
0.002313
0.002265
0.002289
0.002241
0.002217
0.002337
0.002169
0.002193
0.002145
0.002625
0.002121
0.002097
0.002049
0.002073
0.002025
0.001977
0.002001
0.001953
0.001881
0.001905
0.001929
0.001833
0.001857
0.001809
0.001761
0.001785
0.001737
0.001689
0.001665
0.001641
0.001617
0.001713
0.004257
0.004305
0.00444863
0.004089
0.00404063
0.004017
0.004449
0.003945
0.004065
0.003897
0.003777
0.003921
0.005337
0.003753
0.003873
0.003801
0.004377
0.003969
0.003849
0.003729
0.007137
0.003705
0.005985
0.003825
0.003609
0.003489
0.003465
0.003513
0.003681
0.003561
0.004137
0.003369
0.003585
0.003633
0.003393
0.003321
0.003417
0.003441
0.003345
0.003297
0.003225
0.004041
0.003177
0.003249
0.003201
0.003537
0.003273
0.00473663
0.003081
0.003129
0.003105
0.003009
0.002937
0.003057
0.002889
0.003153
0.002985
0.002913
0.003033
0.002817
0.004857
0.004881
0.004809
0.004761
0.004929
0.004833
0.004641
0.004737
0.005241
0.005001
0.004785
0.004617
0.005025
0.004569
0.004593
0.004521
0.008361
0.004905
0.004689
0.005817
0.004545
0.004329
0.004497
0.004353
0.004425
0.005745
0.005121
0.004161
0.004401
0.004185
0.004113
0.005145
0.004233
0.004281
0.004209
0.003993
0.004665
0.004473
0.014601
0.014361
0.015609
0.013689
0.013497
0.0132806
0.013545
0.014313
0.013617
0.013593
0.015897
0.013041
0.012921
0.013017
0.013065
0.012729
0.012969
0.012513
0.012033
0.012153
0.012297
0.012009
0.012801
0.012561
0.012201
0.011865
0.013425
0.012393
0.013377
0.011913
0.012321
0.011937
0.011985
0.013185
0.011889
0.012249
0.011841
0.011745
0.011625
0.011577
0.011553
0.011529
0.011601
0.011793
0.011697
0.012057
0.011721
0.012753
0.012441
0.011409
0.012177
0.012609
0.011385
0.011673
0.011505
0.011649
0.011457
0.011193
0.011145
0.011241
0.011289
0.011769
0.011217
0.011097
0.011361
0.011049
0.011265
0.012105
0.011313
0.011025
0.010833
0.010713
0.010761
0.011121
0.011817
0.010953
0.010737
0.011337
0.010545
0.010617
0.010641
0.010497
0.010881
0.010473
0.010329
0.011169
0.010809
0.010905
0.010305
0.0103526
0.010521
0.010257
0.010233
0.011073
0.010209
0.010017
0.010161
0.010449
0.010665
0.010857
0.010353
0.010065
0.011481
0.010401
0.009897
0.009825
0.010425
0.010929
0.009849
0.010689
0.010281
0.012417
0.009705
0.010785
0.009801
0.010569
0.010185
0.009873
0.009945
0.009729
0.009561
0.009993
0.009681
0.009441
0.010041
0.010113
0.009513
0.010137
0.009969
0.009777
0.009537
0.009489
0.009657
0.009417
0.009369
0.009297
0.009273
0.009345
0.014505
0.009225
0.009153
0.009393
0.009177
0.009321
0.009201
0.009081
0.009249
0.009105
0.009585
0.014961
0.009057
0.009033
0.014097
0.008985
0.008961
0.009009
0.008889
0.008793
0.009129
0.008697
0.008817
0.00891263
0.008769
0.008937
0.008673
0.010377
0.008649
0.008529
0.009465
0.008841
0.008577
0.008721
0.008457
0.008745
0.008865
0.008601
0.011433
0.008409
0.008265
0.008337
0.008217
0.008481
0.008169
0.008241
0.008097
0.008289
0.008049
0.008385
0.007929
0.007977
0.008625
0.007881
0.007905
0.008553
0.008505
0.007857
0.007785
0.008433
0.009609
0.008145
0.007833
0.007953
0.007665
0.012585
0.007641
0.008913
0.007761
0.007713
0.007737
0.007689
0.008121
0.007617
0.007593
0.008193
0.007545
0.007809
0.007401
0.007425
0.007497
0.007305
0.007329
0.007353
0.011961
0.009633
0.007257
0.007521
0.007185
0.007473
0.008073
0.007161
0.007113
0.007377
0.007569
0.007065
0.006969
0.010089
0.006945
0.006897
0.007281
0.006849
0.007209
0.006921
0.007041
0.006777
0.006825
0.006993
0.006801
0.009921
0.006705
0.007449
0.008025
0.007017
0.006633
0.008001
0.007089
0.006561
0.006513
0.006393
0.006489
0.006369
0.006873
0.006345
0.006753
0.024489
0.023145
0.024201
0.020649
0.018873
0.018513
0.018273
0.017313
0.016329
0.023457
0.024369
0.022905
0.020025
0.022353
0.019329
0.022377
0.019425
0.019617
0.019377
0.021609
0.019665
0.019137
0.019833
0.019233
0.020745
0.019353
0.019545
0.023385
0.019521
0.019281
0.019089
0.019017
0.019473
0.019113
0.019209
0.020409
0.018825
0.018993
0.018609
0.021633
0.019065
0.018681
0.018945
0.018729
0.018705
0.019929
0.018465
0.018585
0.021369
0.018321
0.023025
0.020217
0.0182726
0.020721
0.018561
0.019257
0.018369
0.018201
0.018657
0.018225
0.018033
0.021657
0.018489
0.017985
0.018009
0.018153
0.017865
0.018177
0.018345
0.020433
0.017721
0.0177206
0.018417
0.019497
0.018249
0.018849
0.017817
0.017481
0.017841
0.018633
0.017913
0.017769
0.026217
0.017937
0.018753
0.018537
0.017433
0.017385
0.017601
0.017409
0.017889
0.018081
0.017241
0.017361
0.0192086
0.017577
0.018777
0.017529
0.017457
0.017145
0.016953
0.017121
0.017025
0.021825
0.018897
0.016881
0.016857
0.022689
0.017289
0.018441
0.016761
0.018801
0.020361
0.016617
0.016833
0.017049
0.0168086
0.018129
0.016665
0.016689
0.017265
0.020097
0.016713
0.019761
0.016641
0.016473
0.016521
0.016569
0.017001
0.017505
0.018057
0.016377
0.016593
0.016185
0.018105
0.016353
0.017337
0.016113
0.016041
0.016425
0.015945
0.016449
0.015921
0.016737
0.016905
0.019161
0.017697
0.017217
0.016089
0.015753
0.016017
0.015729
0.016281
0.015777
0.015561
0.015993
0.016065
0.016401
0.015681
0.015657
0.015441
0.015489
0.015417
0.015465
0.015369
0.015345
0.017193
0.015273
0.015201
0.015297
0.015177
0.015633
0.018297
0.017745
0.015537
0.015513
0.015129
0.015705
0.015081
0.016209
0.015057
0.014985
0.017793
0.014937
0.014889
0.016257
0.014913
0.014865
0.015393
0.015585
0.015033
0.021105
0.017169
0.014721
0.014769
0.016161
0.015105
0.015249
0.017961
0.014625
0.0147926
0.016233
0.015321
0.015873
0.014481
0.014553
0.017649
0.015849
0.014577
0.014649
0.015969
0.016809
0.014409
0.014265
0.014169
0.014145
0.0161126
0.014337
0.015009
0.014193
0.0141686
0.014121
0.017673
0.014217
0.013953
0.014529
0.016785
0.014049
0.015153
0.014433
0.013977
0.016977
0.016497
0.015225
0.013905
0.014817
0.015825
0.014241
0.013737
0.017097
0.015801
0.014073
0.013929
0.013785
0.017073
0.013641
0.013833
0.013881
0.013809
0.017625
0.014025
0.013569
0.0143366
0.013713
0.023505
0.014697
0.013857
0.013329
0.013449
0.013473
0.016137
0.017553
0.014289
0.016545
0.014001
0.014457
0.013353
0.013665
0.013305
0.012945
0.013233
0.012897
0.012993
0.013113
0.014745
0.014793
0.018393
0.013089
0.013521
0.012777
0.012849
0.013761
0.012705
0.013281
0.013401
0.012681
0.013257
0.012633
0.014673
0.016929
0.013161
0.014841
0.012825
0.016305
0.012369
0.012537
0.012273
0.013137
0.012489
0.012345
0.012657
0.012465
0.014385
0.012225
0.012873
0.012081
0.012129
0.013209
0.030729
0.031065
0.028209
0.027537
0.029001
0.027105
0.026793
0.029025
0.026601
0.026721
0.026625
0.026817
0.026985
0.026529
0.026769
0.027441
0.026673
0.031905
0.027921
0.026313
0.026169
0.026937
0.027249
0.026289
0.027345
0.026073
0.026049
0.029145
0.027849
0.025953
0.025977
0.026433
0.028305
0.025929
0.027009
0.026361
0.026193
0.033945
0.026001
0.026553
0.030345
0.026481
0.026865
0.025785
0.025689
0.025905
0.027993
0.0269606
0.026121
0.026025
0.025617
0.025761
0.025809
0.025377
0.025353
0.025833
0.025521
0.025713
0.028641
0.027033
0.025497
0.026913
0.025569
0.025161
0.025401
0.026097
0.025329
0.028065
0.025065
0.0252086
0.026457
0.025305
0.026577
0.025113
0.025857
0.027945
0.024969
0.035049
0.028257
0.025449
0.033417
0.024825
0.025545
0.025473
0.025593
0.028689
0.026385
0.028521
0.024753
0.024729
0.032169
0.024921
0.025137
0.026265
0.025641
0.024705
0.024897
0.025281
0.024393
0.024273
0.025665
0.024129
0.024513
0.024801
0.024345
0.025041
0.024849
0.024777
0.024057
0.024417
0.024465
0.024321
0.023769
0.024225
0.024297
0.024081
0.026697
0.023721
0.024681
0.023529
0.023673
0.025185
0.023433
0.023697
0.023793
0.024561
0.026409
0.028569
0.026241
0.023337
0.024633
0.023409
0.024249
0.023217
0.024657
0.023553
0.026649
0.025017
0.023265
0.023289
0.027057
0.023001
0.023361
0.023193
0.023241
0.023097
0.022833
0.022785
0.023601
0.022737
0.024153
0.022881
0.0247286
0.023985
0.022761
0.022569
0.023913
0.023745
0.022929
0.026145
0.024873
0.022545
0.023313
0.026337
0.023625
0.022857
0.022953
0.023865
0.025881
0.022713
0.023073
0.022449
0.022497
0.0243206
0.022185
0.024441
0.023169
0.023481
0.024585
0.021921
0.022809
0.022113
0.023121
0.022329
0.0234086
0.022257
0.023577
0.022593
0.021705
0.024033
0.022041
0.021681
0.022521
0.0245846
0.022617
0.027609
0.021537
0.024009
0.023649
0.022401
0.021993
0.022473
0.022305
0.022089
0.021417
0.021177
0.021441
0.021729
0.021129
0.021009
0.021321
0.021561
0.021777
0.020841
0.021057
0.024993
0.021873
0.021345
0.0230006
0.022017
0.021465
0.022233
0.022665
0.020865
0.020985
0.022209
0.020625
0.022281
0.020577
0.023841
0.024105
0.020913
0.020529
0.022425
0.021249
0.020553
0.020961
0.021033
0.0209606
0.030249
0.024537
0.021201
0.021297
0.021513
0.021585
0.020769
0.021489
0.021801
0.020337
0.020265
0.021273
0.020793
0.020481
0.025089
0.020457
0.021945
0.023961
0.021393
0.022977
0.020073
0.019953
0.022641
0.020121
0.020505
0.023889
0.022065
0.020313
0.020193
0.021849
0.030537
0.020289
0.020817
0.021081
0.0232886
0.021897
0.021753
0.019737
0.023817
0.020601
0.019713
0.020937
0.020145
0.019905
0.019785
0.020889
0.019593
0.020049
0.021225
0.019809
0.019689
0.020169
0.023937
0.022161
0.019569
0.019449
0.024177
0.020697
0.019857
0.022137
0.021153
0.019041
0.019977
0.019305
0.020001
0.018969
0.020673
0.019881
0.019401
0.023049
0.018921
0.019185
0.020385
0.019641
0.020241
0.036585
0.033249
0.032505
0.028857
0.028233
0.031545
0.032985
0.028977
0.034161
0.028713
0.035961
0.030153
0.031401
0.030177
0.029625
0.027777
0.025737
0.027729
0.027465
0.029313
0.025257
0.027369
0.025233
0.027297
0.025209
0.029865
0.027801
0.021969
0.025425
0.024945
0.028833
0.026505
0.030873
0.024609
)


// ************************************************************************* //
