/*--------------------------------*- C++ -*----------------------------------*\
  =========                 |
  \\      /  F ield         | OpenFOAM: The Open Source CFD Toolbox
   \\    /   O peration     | Website:  https://openfoam.org
    \\  /    A nd           | Version:  7
     \\/     M anipulation  |
\*---------------------------------------------------------------------------*/
FoamFile
{
    version     2.0;
    format      ascii;
    class       labelField;
    location    "0.15/lagrangian/reactingCloud1";
    object      cellId;
}
// * * * * * * * * * * * * * * * * * * * * * * * * * * * * * * * * * * * * * //


1205
(
91
22
22
124
57
16
53
51
82
84
75
115
113
116
111
183
182
180
293
365
293
288
323
361
402
435
395
435
386
470
432
425
426
465
498
538
503
618
573
570
611
571
607
641
675
673
709
746
781
778
812
841
837
869
862
905
894
893
895
918
947
943
999
942
1043
1027
1015
1003
988
640
950
949
924
925
886
883
862
856
831
825
807
787
768
745
743
706
707
681
672
646
623
622
603
587
540
551
520
503
484
484
468
445
422
403
409
280
363
353
357
323
305
240
266
241
248
226
208
211
192
184
166
145
129
133
111
84
71
63
47
25
0
4
955
995
975
956
937
1040
999
917
938
897
1034
982
946
837
902
881
885
818
820
819
845
842
851
801
697
767
698
745
750
677
705
678
683
637
683
664
647
642
625
605
601
558
545
561
496
528
521
498
487
501
462
442
420
398
400
397
1004
963
944
1027
1029
988
882
950
844
827
856
784
380
728
703
685
501
562
582
625
360
606
360
523
567
489
490
446
382
383
341
433
383
385
409
437
365
344
285
307
290
262
294
246
269
180
224
182
212
187
166
150
136
105
93
42
24
25
23
8
433
434
487
485
545
545
565
570
626
655
626
677
681
703
704
700
819
791
869
925
977
1001
1031
361
361
358
338
347
320
325
308
277
241
179
165
172
163
163
56
9
54
23
0
15
30
15
155
159
113
114
244
150
146
193
279
233
143
146
145
144
277
234
232
141
276
182
275
187
182
228
184
400
231
273
266
227
268
265
272
265
269
398
312
352
304
395
354
349
352
605
350
395
394
392
385
390
434
390
384
428
431
428
476
470
472
597
467
555
553
548
550
684
544
594
551
590
545
594
592
587
585
630
628
843
673
758
668
672
670
670
710
755
753
750
744
792
789
967
784
790
967
786
790
827
834
877
831
834
875
918
824
864
871
871
872
871
875
904
905
910
912
946
955
956
950
954
108
10
9
5
5
22
23
8
19
38
210
15
37
39
19
49
38
35
33
37
54
163
55
32
241
90
90
91
124
121
161
153
159
195
160
232
155
266
194
224
335
299
227
264
260
331
370
287
328
298
327
331
324
365
362
401
396
362
433
432
464
465
466
462
465
535
572
499
499
640
584
571
570
570
532
617
566
619
570
566
568
604
599
602
629
663
662
664
658
659
661
654
657
688
734
686
686
751
715
750
780
745
742
746
811
806
833
868
833
831
867
830
864
862
896
890
892
924
921
950
951
948
990
983
970
1008
1008
1034
1033
1024
1032
1025
1033
1050
1058
546
645
443
724
632
689
753
737
1033
39
69
8
53
59
17
126
51
20
22
56
53
83
80
18
62
20
19
117
19
49
50
143
112
175
18
83
15
106
73
105
44
107
46
45
78
85
46
140
152
75
197
114
138
211
104
102
230
164
226
135
104
82
131
193
194
285
161
193
193
259
191
223
220
293
344
221
310
247
337
253
341
217
320
365
223
225
277
247
273
276
306
338
245
275
284
361
254
364
365
337
305
306
302
281
311
302
331
440
422
361
393
368
309
361
388
385
420
357
420
387
389
464
357
368
389
386
448
385
385
413
461
417
414
441
425
443
394
474
442
442
442
503
472
502
471
501
463
450
531
499
530
559
558
588
531
561
556
559
558
526
553
553
585
555
585
585
567
584
554
614
585
581
534
596
609
647
613
609
641
644
612
610
599
641
639
670
640
637
701
668
637
629
559
665
639
698
699
693
581
726
757
619
727
756
721
721
758
646
753
749
783
710
815
754
750
752
749
781
786
751
782
782
738
810
777
811
746
811
840
811
809
767
735
784
805
868
731
833
836
771
870
898
866
897
804
864
861
861
895
797
861
892
895
895
792
924
923
893
923
917
822
850
952
851
951
842
978
978
982
975
977
974
978
973
875
874
878
1001
1007
1005
1006
1015
1015
1021
1020
1016
1012
1013
935
931
1025
932
1039
1038
1034
1039
1032
1048
1048
1047
1046
1043
955
1053
1061
1058
1054
1061
60
36
31
166
159
6
58
53
26
72
81
51
133
24
51
120
104
127
51
131
48
48
50
50
101
73
148
50
102
76
24
72
251
96
120
101
150
302
120
148
146
80
168
150
176
145
168
246
170
169
256
195
194
149
168
172
192
247
300
321
192
323
222
218
241
199
216
291
216
244
217
298
240
240
216
348
240
295
351
243
160
265
318
317
291
372
369
288
288
338
453
336
418
392
416
336
360
392
360
336
438
360
361
387
385
409
466
517
433
411
464
408
411
408
435
461
546
412
434
459
432
486
456
433
509
482
563
532
588
504
560
545
459
480
561
509
587
504
504
533
586
528
528
530
552
529
552
552
580
576
578
580
633
602
578
577
686
604
600
693
656
624
602
662
654
624
684
707
691
624
732
627
602
682
662
678
655
648
648
653
674
672
678
674
730
674
696
698
699
758
698
695
720
725
722
748
725
721
782
774
720
776
718
718
742
742
741
741
764
766
764
790
788
788
787
820
814
813
842
810
834
866
868
835
839
836
833
863
861
833
859
863
835
888
891
859
891
890
860
238
886
861
860
889
883
881
880
884
883
879
883
905
878
915
902
935
930
908
900
901
901
932
925
931
937
938
923
924
955
263
944
948
951
949
944
956
944
960
950
947
944
948
947
944
975
968
966
983
971
968
971
986
999
993
990
989
994
992
998
1003
988
1010
1012
1017
1011
1041
1032
1032
1027
1032
1036
1040
1036
1040
674
803
984
461
1026
232
272
338
324
291
279
445
426
485
443
488
568
605
697
265
607
688
800
848
872
224
920
965
563
996
522
342
1039
642
)


// ************************************************************************* //
