/*--------------------------------*- C++ -*----------------------------------*\
  =========                 |
  \\      /  F ield         | OpenFOAM: The Open Source CFD Toolbox
   \\    /   O peration     | Website:  https://openfoam.org
    \\  /    A nd           | Version:  7
     \\/     M anipulation  |
\*---------------------------------------------------------------------------*/
FoamFile
{
    version     2.0;
    format      ascii;
    class       vectorField;
    location    "0.15/lagrangian/reactingCloud1";
    object      coordinates;
}
// * * * * * * * * * * * * * * * * * * * * * * * * * * * * * * * * * * * * * //


1205
(
(1.74951 0.103614 -3.08741e-07)
(1.81414 0.0786506 1.64922e-08)
(1.80724 0.07766 5.15903e-08)
(1.72051 0.108672 -2.09818e-07)
(1.7738 0.0948872 -7.65838e-08)
(1.80917 0.0315539 2.21956e-13)
(1.7839 0.0710291 -1.73427e-08)
(1.76936 0.056547 9.14394e-07)
(1.76662 0.0465956 -1.59178e-07)
(1.74537 0.0642431 -3.87006e-08)
(1.74679 0.00895403 2.99444e-14)
(1.73396 0.0523507 8.66e-08)
(1.74055 0.0389945 -8.07477e-13)
(1.73504 0.0633032 -2.03733e-07)
(1.73259 0.0286068 4.89123e-07)
(1.68408 0.0396502 -3.29922e-13)
(1.68224 0.0335145 -2.44578e-14)
(1.66838 0.023664 -1.55958e-15)
(1.60448 0.0764965 3.64082e-08)
(1.5697 0.0875979 2.83571e-07)
(1.60757 0.0740634 1.49017e-07)
(1.60362 0.0384426 -7.6028e-14)
(1.58399 0.0356922 -1.41385e-12)
(1.57256 0.0574673 3.45613e-07)
(1.53642 0.0967508 -7.55703e-07)
(1.529 0.0856003 -6.03363e-08)
(1.54893 0.052468 -3.44822e-12)
(1.52435 0.0864579 -8.48016e-08)
(1.53563 0.00395813 -7.68444e-14)
(1.50414 0.0880872 4.13155e-08)
(1.52668 0.0689909 1.93164e-07)
(1.51859 0.0220557 7.81772e-07)
(1.51029 0.0232267 -2.10263e-13)
(1.50621 0.0538735 -1.16921e-12)
(1.48435 0.0388013 9.10757e-14)
(1.46622 0.0707169 -4.47994e-08)
(1.46786 0.0733936 -9.3005e-08)
(1.41868 0.120255 -2.38953e-07)
(1.43045 0.0709377 -5.11115e-08)
(1.43098 0.048837 -1.39095e-12)
(1.41115 0.092326 -9.83045e-08)
(1.43067 0.057645 2.70664e-07)
(1.41313 0.065857 -3.40793e-09)
(1.39126 0.0599885 -2.07609e-08)
(1.38928 0.0589367 1.7746e-08)
(1.37821 0.0477114 -9.82397e-12)
(1.35983 0.0569633 1.07582e-07)
(1.3479 0.0786127 1.72753e-07)
(1.33121 0.0850951 -4.53665e-08)
(1.32109 0.0634342 -2.66151e-07)
(1.31015 0.0675608 3.34102e-08)
(1.29988 0.0816408 -2.83814e-08)
(1.29987 0.0516661 -1.45884e-12)
(1.27364 0.0847311 8.18365e-08)
(1.27945 0.0357658 -4.71314e-14)
(1.26179 0.125134 -3.26018e-07)
(1.26374 0.0737466 -4.5874e-09)
(1.25672 0.0644154 1.53124e-07)
(1.25337 0.0756217 -4.66045e-07)
(1.24094 0.0479098 -5.28984e-12)
(1.22288 0.0619352 -2.66835e-08)
(1.22263 0.0390826 -2.41049e-13)
(1.19563 0.0496714 -8.81639e-13)
(0.408423 0.131864 1.02439e-07)
(0.428603 0.125922 1.3862e-10)
(0.424863 0.0952119 -1.96481e-11)
(0.420832 0.037736 -7.32066e-13)
(0.420352 0.12576 1.22629e-11)
(0.416212 0.0887329 2.81925e-11)
(0.345181 0.129245 -4.83289e-07)
(0.40821 0.069843 -3.70457e-11)
(0.405422 0.0735266 7.96119e-12)
(0.404405 0.115626 2.88922e-11)
(0.401665 0.107933 -3.26731e-11)
(0.396928 0.0999289 -1.38473e-11)
(0.395095 0.119105 1.71844e-13)
(0.392036 0.126267 -4.19529e-12)
(0.384113 0.0276595 -3.87347e-12)
(0.381113 0.0574572 -1.34614e-11)
(0.38064 0.100397 -1.07768e-10)
(0.375659 0.0887581 -2.88906e-11)
(0.371916 0.0837885 -4.60378e-12)
(0.36768 0.0789964 -3.20504e-11)
(0.366012 0.101531 -7.76629e-11)
(0.363464 0.109124 -1.00301e-11)
(0.35734 0.0875276 -3.64759e-11)
(0.353867 0.0813049 -8.08208e-12)
(0.351683 0.123805 -9.41496e-12)
(0.344518 0.0515594 -8.06663e-14)
(0.342981 0.0861659 -1.01684e-10)
(0.339799 0.10742 -1.22922e-11)
(0.336583 0.112801 -6.6129e-11)
(0.331538 0.110213 6.67971e-13)
(0.327112 0.0810331 9.54425e-13)
(0.322372 0.123782 -5.76947e-07)
(0.317931 0.0539503 -1.1306e-11)
(0.314471 0.123183 1.38735e-07)
(0.311692 0.107367 2.80865e-11)
(0.307274 0.0980051 3.55463e-12)
(0.303784 0.100951 1.71433e-11)
(0.298771 0.0723186 -7.82454e-12)
(0.295319 0.0912528 -6.21531e-11)
(0.291606 0.110349 -6.83338e-11)
(0.287374 0.105257 1.43178e-11)
(0.283091 0.0668985 1.36881e-11)
(0.256082 0.12674 -4.95484e-07)
(0.275658 0.10909 -3.38469e-11)
(0.271295 0.0426663 1.34439e-12)
(0.267449 0.019361 -4.26082e-13)
(0.26387 0.103352 -1.88975e-12)
(0.259087 0.0930944 2.95158e-11)
(0.246264 0.125411 -5.00384e-13)
(0.251205 0.089052 -1.26654e-11)
(0.247279 0.119226 2.52858e-11)
(0.243438 0.0726435 5.13702e-12)
(0.23957 0.0862705 1.34784e-12)
(0.236047 0.0763667 -4.77964e-12)
(0.235573 0.0546729 1.94373e-12)
(0.231838 0.0488546 4.49315e-12)
(0.227867 0.101459 1.29275e-11)
(0.22336 0.0864963 7.24437e-12)
(0.219595 0.0940562 -2.5044e-13)
(0.215725 0.0650854 -5.20755e-13)
(0.211523 0.0410461 2.19073e-12)
(0.207523 0.0572802 -1.91699e-12)
(0.203808 0.102965 -1.42847e-12)
(0.199703 0.0530467 2.54784e-12)
(0.196233 0.107083 7.42225e-12)
(0.19224 0.0783098 -8.66237e-13)
(0.18821 0.0941478 1.39486e-11)
(0.182219 0.127786 -7.72363e-14)
(0.179447 0.103078 1.06102e-14)
(0.55211 0.153042 1.78794e-07)
(0.557884 0.150784 9.31408e-09)
(0.554998 0.150061 1.88102e-10)
(0.551616 0.144958 -2.16261e-07)
(0.545047 0.138121 -3.11941e-08)
(0.565668 0.108866 1.53091e-11)
(0.556996 0.117222 1.09107e-12)
(0.540661 0.137601 1.63972e-08)
(0.54473 0.129922 1.06288e-11)
(0.537442 0.133693 -5.25347e-07)
(0.560091 0.00608733 3.86717e-12)
(0.552964 0.097051 1.60091e-11)
(0.544181 0.0652933 2.27655e-11)
(0.523371 0.139313 -5.50257e-08)
(0.536492 0.0980583 4.39415e-14)
(0.531192 0.108023 3.55268e-12)
(0.531667 0.0764715 4.11234e-11)
(0.522263 0.128316 6.63792e-13)
(0.518784 0.118551 1.07125e-07)
(0.518555 0.125223 3.02739e-11)
(0.523868 0.0754353 8.78217e-13)
(0.522531 0.101851 2.20377e-12)
(0.521133 0.0268791 2.17424e-13)
(0.516191 0.106124 6.61292e-11)
(0.497144 0.145219 -3.9866e-08)
(0.508318 0.0578763 1.0879e-12)
(0.496629 0.13776 9.97164e-12)
(0.504133 0.076632 8.07051e-12)
(0.503677 0.0359687 1.47635e-12)
(0.490628 0.147228 -4.74949e-08)
(0.495754 0.0767406 5.38939e-12)
(0.489148 0.135177 7.80435e-11)
(0.491394 0.0966427 2.32795e-11)
(0.481806 0.145817 -3.92363e-08)
(0.48933 0.094871 1.37811e-11)
(0.486506 0.0905527 1.71279e-10)
(0.48314 0.0621135 1.04886e-12)
(0.483241 0.103497 9.46645e-12)
(0.479557 0.0787441 4.61713e-12)
(0.474082 0.0759299 4.67082e-11)
(0.474328 0.113684 1.21064e-10)
(0.465096 0.136144 1.51287e-11)
(0.462459 0.0789491 -5.87173e-12)
(0.463848 0.111024 1.30123e-11)
(0.454363 0.148512 -1.95473e-08)
(0.456994 0.055993 5.33625e-11)
(0.458352 0.114023 1.1373e-10)
(0.452144 0.130024 1.51323e-10)
(0.448341 0.0607562 -2.30715e-13)
(0.450968 0.110411 -1.96595e-11)
(0.445276 0.104252 1.47446e-10)
(0.440092 0.0961471 1.35824e-10)
(0.437407 0.117113 4.10971e-11)
(0.433128 0.131913 1.47992e-10)
(0.431261 0.1164 5.77179e-11)
(0.431347 0.135746 4.74865e-07)
(0.810911 0.0832952 -4.41156e-08)
(0.795602 0.0875432 -2.35339e-07)
(0.792448 0.0811437 2.76593e-07)
(0.81357 0.0671701 6.31202e-07)
(0.816613 0.0540009 1.2818e-11)
(0.80071 0.0595721 1.00626e-11)
(0.771223 0.0889107 7.45802e-07)
(0.792947 0.047737 1.62481e-11)
(0.76484 0.081054 2.00166e-07)
(0.755165 0.0664012 -1.51726e-10)
(0.761324 0.0171891 -1.61164e-12)
(0.743795 0.077037 -9.51759e-08)
(0.650677 0.124031 -8.99479e-08)
(0.730044 0.05779 -8.58498e-11)
(0.72701 0.0882577 -3.89358e-07)
(0.720311 0.0759039 6.32923e-12)
(0.679849 0.112744 -9.81834e-08)
(0.694398 0.101797 3.93592e-07)
(0.696736 0.0968769 -1.23396e-08)
(0.705221 0.0779687 9.80973e-11)
(0.649576 0.126395 6.58006e-08)
(0.701661 0.0772186 7.6782e-11)
(0.646856 0.126085 -2.53006e-07)
(0.681802 0.0961243 4.46987e-08)
(0.689921 0.0709246 1.57795e-11)
(0.672066 0.0642481 6.83209e-12)
(0.672794 0.0562968 9.82545e-12)
(0.663454 0.0842497 1.4562e-11)
(0.653936 0.110958 7.00852e-08)
(0.652235 0.104047 2.01935e-11)
(0.641523 0.121099 3.97696e-08)
(0.661194 0.040308 3.02348e-12)
(0.650084 0.10766 -1.43529e-11)
(0.653399 0.091344 9.03574e-07)
(0.65503 0.0661883 1.1225e-13)
(0.657645 0.012938 3.19957e-12)
(0.645444 0.0906476 4.98686e-11)
(0.642387 0.0987693 1.23081e-10)
(0.631036 0.0980769 -1.59254e-11)
(0.632103 0.0850872 -5.16151e-12)
(0.629555 0.0638165 -1.38805e-13)
(0.62365 0.117777 1.0245e-08)
(0.628973 0.0370023 -1.71452e-13)
(0.621978 0.09101 1.15679e-12)
(0.622831 0.0741145 -4.24103e-12)
(0.60948 0.133903 -8.63517e-08)
(0.616226 0.105977 1.47922e-12)
(0.609519 0.120211 1.93846e-07)
(0.61288 0.0491137 2.74752e-11)
(0.607916 0.0868367 5.05222e-11)
(0.601956 0.0953892 -5.52494e-12)
(0.597383 0.0701085 -2.02271e-12)
(0.595477 0.0237446 -1.54164e-12)
(0.591869 0.104832 -1.22532e-12)
(0.585892 0.0495027 4.39847e-11)
(0.577283 0.130404 -9.0028e-08)
(0.575924 0.118905 5.58495e-11)
(0.574506 0.106839 1.05383e-10)
(0.574225 0.12683 1.09161e-10)
(0.569862 0.0857132 4.3863e-11)
(1.16015 0.0462304 -3.36174e-12)
(1.15534 0.0545143 -6.36979e-12)
(1.13098 0.0522858 -2.2701e-12)
(1.12888 0.0386048 -2.42049e-12)
(1.09968 0.0736512 5.60493e-07)
(1.10228 0.0736172 1.22323e-07)
(1.0871 0.027725 4.55942e-13)
(1.08543 0.062974 -3.7697e-07)
(1.06411 0.076275 -4.23304e-08)
(1.05333 0.0849567 -7.02569e-09)
(1.0627 0.0765278 1.78842e-07)
(1.04335 0.0541104 1.15272e-11)
(1.0406 0.0817038 8.81737e-07)
(1.03633 0.0453772 4.41679e-12)
(1.03125 0.0554673 3.58138e-13)
(1.03099 0.0321691 2.04332e-11)
(0.986216 0.09803 1.26118e-07)
(1.00135 0.091019 -4.39133e-07)
(0.967281 0.0778636 -4.34892e-08)
(0.954504 0.0842161 4.99326e-07)
(0.931909 0.0755016 1.00965e-07)
(0.919407 0.0567023 -1.22801e-11)
(0.917413 0.0769963 -4.33523e-07)
(0.891493 0.0747356 -6.77265e-07)
(0.893296 0.0767599 1.2397e-07)
(0.887822 0.0875912 -5.10643e-08)
(0.879633 0.0912038 3.83882e-07)
(0.883063 0.0349539 1.7787e-12)
(0.878261 0.077135 -4.24092e-07)
(0.877163 0.0492811 -7.07421e-12)
(0.871832 0.0274192 1.63823e-12)
(0.858499 0.093314 3.44374e-07)
(0.84714 0.07059 -5.13096e-08)
(0.826125 0.0809207 -4.15885e-08)
(0.824122 0.0763934 -1.58621e-09)
(0.821979 0.0354074 -3.24873e-11)
(0.820725 0.088109 -2.03764e-08)
(0.818898 0.085849 -9.64539e-08)
(4.52112 0.167103 -8.00167e-07)
(4.67576 0.15564 -7.96645e-07)
(4.51356 0.154437 -2.75333e-07)
(4.61872 0.151933 -4.41671e-08)
(4.66834 0.0951054 -3.37193e-07)
(4.62948 0.0978047 -1.63866e-07)
(4.59342 0.0964629 4.52104e-08)
(4.63041 0.0986472 1.30674e-07)
(4.33926 0.124026 -3.69446e-07)
(4.34139 0.145876 -8.19062e-09)
(4.36299 0.125951 7.07581e-07)
(4.3811 0.131163 -6.28277e-07)
(4.21071 0.150844 -1.88599e-08)
(4.31757 0.0840824 -1.85087e-09)
(4.33393 0.0504305 -4.92856e-07)
(4.27795 0.0893892 8.06199e-07)
(4.11643 0.119453 -1.29162e-07)
(4.2247 0.0782747 -6.7556e-07)
(4.33516 0.0237774 -4.98982e-07)
(4.31426 0.0453508 6.36589e-09)
(4.29027 0.0408467 -1.02213e-07)
(4.31088 0.0309355 1.54286e-07)
(4.14391 0.105042 -3.98666e-07)
(4.16891 0.0839509 4.65409e-07)
(4.22474 0.0609502 -3.69376e-08)
(4.29398 0.00748552 -6.41282e-07)
(4.1507 0.10284 -6.96663e-08)
(4.28187 6.68634e-06 -2.31029e-10)
(4.12878 0.0897111 5.37078e-07)
(4.25 0.0377246 1.22891e-07)
(4.25731 3.83115e-12 -1.72551e-14)
(4.19727 0.0334715 -4.25051e-09)
(4.24184 0.0149653 -7.3633e-07)
(3.97313 0.126271 -2.35405e-07)
(4.17728 0.0563326 3.33392e-08)
(4.12524 0.0723636 -6.89065e-07)
(4.1589 0.0173166 1.75525e-08)
(4.18954 0.0258313 5.59383e-07)
(4.15986 0.0332942 -1.36585e-08)
(4.15485 0.011229 1.52595e-07)
(4.1234 0.0651006 4.03612e-07)
(4.13567 0.0122935 1.77209e-08)
(4.11865 0.0354854 1.4876e-07)
(3.9806 0.115886 -8.35745e-08)
(4.05707 0.0642875 -2.30167e-08)
(4.02819 0.0606113 -2.0654e-07)
(4.08613 7.75818e-11 2.99798e-13)
(3.94847 0.0862955 6.92326e-07)
(4.00829 0.0781072 -4.34026e-07)
(4.04465 0.0401417 3.27017e-07)
(3.99939 0.0612094 1.39398e-07)
(3.69302 0.145773 6.94268e-08)
(4.00761 0.0496291 -9.05242e-09)
(3.933 0.0922174 4.23964e-07)
(3.93184 0.0768407 6.46551e-07)
(3.94529 0.0607976 1.57967e-07)
(3.95241 0.0106608 7.58368e-08)
(3.95006 0.0421093 8.17644e-09)
(3.90781 0.0793507 5.34766e-07)
(3.92969 0.0452887 -2.72979e-08)
(3.94284 3.8716e-06 -8.51801e-09)
(3.92499 0.0272295 1.12745e-07)
(3.90359 0.0542011 2.52643e-08)
(3.91574 0.0316211 1.75478e-08)
(3.83079 0.0982628 -1.82856e-07)
(3.86117 0.0485799 -5.69474e-08)
(3.84758 0.0615481 -5.99017e-08)
(3.69607 0.10101 -8.2015e-08)
(3.85582 0.0191003 -1.1342e-07)
(3.70745 0.0876257 -3.75237e-07)
(3.7297 0.067195 -6.89334e-08)
(3.75358 0.0290284 1.08186e-07)
(3.73964 0.0430323 -8.82993e-08)
(3.56496 0.143333 8.38416e-07)
(3.73402 3.1433e-09 -8.44429e-12)
(3.67434 0.0797395 -1.52164e-07)
(3.71283 0.0498921 -1.22742e-07)
(3.68762 0.0457975 2.43336e-07)
(3.70209 0.0110456 -3.99312e-07)
(3.65949 0.0747404 3.0595e-07)
(3.68253 0.0579469 3.20269e-08)
(3.67288 0.0228449 1.3785e-07)
(3.65835 0.0118403 -7.11882e-07)
(3.63516 0.0413589 6.08558e-08)
(3.6037 0.0252776 8.9252e-08)
(3.36108 0.134621 -6.97213e-08)
(3.56282 0.072756 1.38155e-08)
(3.47032 0.110107 7.33124e-08)
(3.58654 0.026638 5.80361e-08)
(3.55429 0.0569281 1.83595e-07)
(3.56012 0.0431987 3.37012e-08)
(3.54002 0.039915 4.05854e-08)
(3.52839 0.0449948 2.3564e-08)
(3.43632 0.0865689 -6.18692e-07)
(3.45355 0.0670463 2.29774e-07)
(3.46122 0.0393617 -1.76173e-07)
(3.45614 0.00210669 -2.88359e-07)
(3.42968 0.0620657 -4.26199e-08)
(3.42104 0.0380389 4.21214e-07)
(3.22246 0.152602 -5.78955e-07)
(3.42076 3.58617e-12 5.73931e-15)
(3.40062 0.0439468 1.30727e-07)
(3.19872 0.151604 -1.66138e-07)
(3.38731 0.0157384 -4.69652e-07)
(3.39037 0.0424004 3.30505e-07)
(3.3779 0.0198479 2.88757e-08)
(3.34836 0.0773237 2.97176e-08)
(3.28811 0.101709 3.8791e-08)
(3.34196 0.0526055 7.2004e-08)
(3.32702 0.0782734 3.85811e-07)
(3.32177 0.0828045 1.96233e-07)
(3.25841 0.108105 1.33557e-07)
(3.33041 0.00282308 -3.25438e-15)
(3.32301 1.69127e-09 -4.86212e-12)
(3.31691 0.046945 -4.89084e-08)
(3.29682 0.0469827 -1.09147e-07)
(3.28896 0.0563296 4.06741e-07)
(3.28842 0.0510241 2.12837e-07)
(3.27774 0.0824893 9.87342e-08)
(3.27093 0.000955308 1.70406e-07)
(3.26591 0.00878454 3.79123e-13)
(3.25681 0.0442849 2.52562e-08)
(3.23956 0.0591534 -1.36293e-08)
(3.21069 0.0167581 -3.90225e-13)
(3.20444 0.0815075 1.2982e-07)
(3.20292 0.090066 -2.52433e-07)
(3.2064 0.042644 -5.75794e-09)
(3.19582 0.0711132 1.80728e-07)
(2.95268 0.162634 -3.93364e-07)
(3.13676 0.0723623 4.10595e-07)
(3.14089 0.063663 -1.92529e-07)
(3.16721 0.035908 4.06769e-07)
(3.13307 0.0342957 -6.6776e-08)
(3.11865 0.0611987 -5.90813e-08)
(3.09925 0.0765235 -4.66859e-08)
(3.12883 0.0543479 -1.60272e-08)
(3.08907 0.0378602 9.21624e-08)
(3.07694 0.0497129 -1.78381e-08)
(2.84607 0.161826 -2.35104e-08)
(3.10462 0.0115191 5.05766e-07)
(3.06579 0.0388771 7.41422e-09)
(3.0365 0.0592819 -4.66019e-07)
(3.086 0.0436211 -3.81643e-07)
(3.02264 0.00162671 1.63122e-08)
(3.04443 0.0478729 2.78968e-07)
(3.04662 0.0254187 -6.83857e-09)
(3.0594 0.0135757 -5.41629e-07)
(3.04262 0.039059 2.54681e-07)
(3.01753 0.0329263 3.62847e-07)
(2.86835 0.0872376 1.44659e-07)
(3.00115 0.0405205 -1.15637e-08)
(3.04486 0.0061474 1.95703e-07)
(2.79153 0.143075 -5.49753e-07)
(2.97076 0.0493763 1.15114e-07)
(2.95879 0.0467655 1.24544e-07)
(2.95645 0.0554084 1.56079e-07)
(2.93083 0.0482996 -8.5441e-08)
(2.91748 0.0258389 -4.18124e-15)
(2.85358 0.0743076 9.86688e-09)
(2.88292 0.0148608 2.06346e-13)
(2.85398 0.0544749 -2.95424e-07)
(2.81824 0.073189 -8.88338e-08)
(2.86335 0.0617054 2.21791e-07)
(2.78094 0.095259 1.00024e-08)
(2.86673 0.0246124 -8.90491e-14)
(2.73182 0.0916219 -2.21911e-07)
(2.8456 0.0629011 1.24537e-08)
(2.79228 0.0351529 1.47215e-07)
(2.67283 0.0980407 4.92082e-08)
(2.70879 0.0840541 -1.89619e-08)
(2.76467 0.0504558 1.152e-07)
(2.73061 0.0758208 -2.00795e-07)
(2.74552 0.0433844 1.72927e-07)
(2.67485 0.0734602 2.86542e-08)
(2.62326 0.103773 -6.8154e-08)
(2.71635 0.00165613 3.00432e-08)
(2.6739 0.0468685 4.13272e-07)
(2.67822 0.0791082 1.13128e-07)
(2.675 0.0355948 1.66431e-07)
(2.65726 0.0705675 -3.51606e-07)
(2.6664 0.020043 1.70102e-13)
(2.61106 0.0688125 2.42485e-07)
(2.62494 0.0458043 -2.70427e-07)
(2.56129 0.0823133 -9.34704e-08)
(2.59099 0.04245 -1.23141e-07)
(2.60481 0.0476073 -1.34786e-07)
(2.5486 0.0671678 2.86213e-07)
(2.53555 0.0583602 -2.77934e-07)
(2.5136 0.0451962 -2.97267e-07)
(2.50751 0.0529629 1.49868e-08)
(2.49368 0.0634669 3.41752e-08)
(2.50972 0.0316694 -2.44113e-12)
(2.50183 0.0518091 1.64543e-07)
(2.42912 0.0639461 3.30968e-10)
(2.38024 0.0931538 -3.83664e-07)
(2.45684 0.0507658 -4.09099e-08)
(2.44447 0.0501071 1.83412e-07)
(2.32285 0.115023 2.47095e-07)
(2.37583 0.153058 -8.45743e-08)
(2.37907 0.0790711 3.97355e-07)
(2.38835 0.0776929 4.32719e-07)
(2.38602 0.072583 5.90911e-07)
(2.39992 0.04433 -4.02518e-08)
(2.35385 0.148415 3.19165e-07)
(2.39148 0.0440747 1.65273e-07)
(2.33295 0.15541 -5.63635e-07)
(2.3711 0.0728216 5.06731e-08)
(2.38926 0.0461422 2.72394e-08)
(2.37032 0.0585274 7.63114e-07)
(2.3551 0.0747956 -4.23176e-07)
(2.35532 0.0349852 5.94105e-07)
(2.33555 0.0606543 8.44401e-08)
(2.32432 0.0472255 8.82852e-08)
(2.27138 0.0820187 1.26244e-07)
(2.28595 0.0713064 -4.09645e-07)
(2.26178 0.0898847 -7.44458e-07)
(2.28995 0.0396657 -8.28807e-09)
(2.28578 0.0485279 -7.59234e-08)
(2.27322 0.0653399 -2.2066e-08)
(2.26434 0.0170411 -7.66418e-13)
(2.25919 0.0383424 -2.28719e-13)
(2.24555 0.0466991 -9.71623e-08)
(2.21951 0.149452 -4.01135e-07)
(2.23214 0.0333222 4.26198e-07)
(2.2258 0.0382334 -3.87107e-14)
(2.18343 0.0851239 4.41305e-07)
(2.19659 0.0381268 -1.7237e-13)
(2.1612 0.081822 5.23505e-08)
(2.14723 0.0884007 -1.62378e-07)
(2.18358 0.0401695 -5.88092e-13)
(2.17752 0.0228184 -1.46226e-12)
(2.15575 0.0471425 7.15801e-07)
(2.10266 0.0996567 -9.30049e-08)
(2.11303 0.0657556 -1.812e-07)
(2.08538 0.0479723 2.36005e-07)
(2.05111 0.09292 -1.64421e-07)
(2.0794 0.0475686 -1.22268e-07)
(2.07241 0.0337591 -2.41006e-13)
(2.04131 0.086581 -2.62986e-07)
(2.05753 0.0260005 -3.25172e-14)
(2.05389 0.0613802 5.41655e-08)
(2.03312 0.0479528 -8.17575e-08)
(2.01808 0.0863095 -4.13943e-08)
(2.01535 0.0384163 4.8785e-13)
(2.01071 0.0542756 2.21998e-07)
(1.98828 0.0768497 -2.87885e-08)
(1.98086 0.0565292 2.20156e-07)
(1.94724 0.0579572 2.71961e-07)
(1.9487 0.0613619 -3.19284e-07)
(1.94187 0.0440741 -4.22864e-07)
(1.91703 0.118056 -4.10524e-07)
(1.91942 0.0831501 -4.72944e-08)
(1.90608 0.000753287 -3.08255e-09)
(1.89713 0.0702837 3.39196e-08)
(1.88583 0.069995 -1.78997e-07)
(1.87398 0.0688513 -8.5691e-08)
(1.8633 0.0610652 3.66931e-07)
(1.86309 0.00797068 2.4219e-14)
(1.85882 0.0530834 -1.86405e-07)
(1.85165 0.0118378 -4.09115e-14)
(1.84915 0.0589616 -3.8841e-07)
(1.83064 0.0333246 -1.3331e-13)
(1.82236 0.0893639 5.0311e-07)
(6.64663 0.264903 5.46377e-07)
(6.25441 0.291945 -9.89708e-07)
(7.16307 0.3265 -1.26077e-07)
(5.88634 0.277851 -5.79568e-07)
(6.26172 0.336363 -3.86009e-08)
(5.97944 0.243584 -1.60179e-07)
(5.71314 0.234572 -4.40025e-08)
(5.77569 0.234066 6.77466e-07)
(4.58099 0.203179 6.00127e-07)
(7.13138 0.213519 6.54962e-08)
(7.06335 0.221226 -7.77469e-07)
(7.2013 0.200229 -1.05545e-06)
(7.11325 0.0912298 -6.54965e-07)
(7.06205 0.156616 2.83021e-07)
(7.1501 0.0175404 -6.35165e-07)
(6.91818 0.209403 3.34178e-07)
(7.07094 0.0756952 -3.42868e-08)
(7.19239 0.0474464 1.26415e-07)
(7.1243 0.0736222 -6.33409e-07)
(7.08065 0.133276 -1.46308e-08)
(7.07568 0.0919166 -1.55052e-07)
(7.04107 0.109225 3.48373e-07)
(7.04148 0.0702144 1.04858e-07)
(7.17371 0.0286134 4.61077e-07)
(7.07552 0.175411 -6.96152e-07)
(7.16632 0.0517918 7.75789e-07)
(7.15676 0.0378806 4.28997e-07)
(6.96631 0.153615 -3.95155e-08)
(7.1424 0.0446701 -8.19143e-07)
(7.08656 0.0494964 -9.80103e-08)
(7.07759 0.0659851 1.62975e-09)
(6.86977 0.12366 -1.71955e-07)
(6.91924 0.102467 -9.56467e-08)
(6.81891 0.156278 -5.63911e-08)
(7.16841 0.031708 6.41993e-09)
(6.98661 0.111309 -3.9601e-07)
(7.12954 5.11574e-10 -4.19276e-12)
(6.97782 0.0444277 4.88427e-07)
(7.04225 6.57891e-11 -1.13432e-13)
(6.97642 0.0277813 -3.81085e-07)
(7.10279 0.00516659 -1.21194e-08)
(6.9387 0.0559938 -3.36221e-09)
(7.08087 0.0217113 1.82078e-07)
(7.06859 0.0131083 -1.96844e-07)
(6.99235 0.0518249 8.09037e-07)
(7.02352 0.125057 4.08062e-07)
(7.08324 0.0172526 -7.63389e-08)
(6.86972 0.0946765 -8.24596e-07)
(6.86143 0.192363 7.57662e-07)
(7.0075 0.0192547 4.597e-07)
(6.73427 0.0869575 2.66935e-07)
(6.94933 0.124552 -8.59881e-07)
(6.89507 0.072352 1.2881e-07)
(6.72529 0.192849 -3.62883e-07)
(6.94645 0.0207123 3.61111e-07)
(6.96595 0.0045836 -2.92647e-08)
(6.69032 0.136869 2.2281e-07)
(6.81189 0.0404047 -7.03366e-08)
(6.68725 0.0951569 1.69095e-07)
(6.87043 0.0423326 -5.57167e-08)
(6.91658 0.0176458 7.86789e-09)
(6.98996 0.090321 2.58289e-07)
(6.888 0.00346686 1.23041e-07)
(6.75207 0.044181 -5.92297e-07)
(6.75051 0.0506349 -4.90271e-07)
(6.51518 0.122926 2.67721e-07)
(6.83109 0.014738 1.76181e-07)
(6.74974 0.0371282 -5.00234e-07)
(6.74105 0.0346003 5.87169e-07)
(6.61102 0.142734 -3.21448e-08)
(6.75299 0.0234342 -5.38503e-07)
(6.65334 0.0595571 4.31256e-07)
(6.62225 0.0255422 5.98434e-07)
(6.51311 0.179158 -1.2522e-06)
(6.3375 0.145194 -4.74922e-07)
(6.65637 0.0391977 -4.00222e-07)
(6.40319 0.0882237 3.9725e-07)
(6.60751 0.0195753 2.92707e-09)
(6.39788 0.0857651 -8.85847e-08)
(6.58743 0.0852099 -3.30425e-07)
(6.34336 0.121709 -2.79461e-07)
(6.63555 0.0051837 -3.51757e-07)
(6.44436 0.173328 -5.62508e-07)
(6.27037 0.0831663 -8.50121e-08)
(6.64608 0.0570105 3.83222e-07)
(6.62841 0.0799952 -1.2809e-07)
(6.53702 0.036109 -1.3752e-07)
(6.57016 0.0230102 -2.28511e-07)
(6.51525 0.00666307 -9.34441e-08)
(6.5142 0.0256228 -5.12191e-08)
(6.41457 0.0443353 9.72128e-08)
(6.3352 0.0918073 3.35185e-07)
(6.55342 0.0045743 7.92541e-09)
(6.52142 0.0232262 -5.74735e-07)
(6.50173 0.111567 -3.20167e-07)
(6.32184 0.0427917 2.03755e-07)
(6.6083 0.0912915 -4.62636e-07)
(6.31564 0.0634944 -5.21767e-07)
(6.27557 0.0759323 -2.74456e-08)
(6.39536 0.0782714 3.21631e-07)
(6.4535 0.0390771 -6.1415e-07)
(6.4069 0.0469523 8.40381e-07)
(6.42598 0.0135754 -4.29275e-09)
(6.54315 0.0813931 6.39639e-08)
(6.45345 0.105979 8.98627e-10)
(6.41132 0.0148051 8.56264e-09)
(6.36846 0.0212075 1.49068e-07)
(6.17049 0.231022 -1.6749e-07)
(6.12999 0.0866857 6.26241e-09)
(6.2606 0.0332897 -7.51272e-08)
(6.18877 0.0811735 -1.16781e-07)
(6.32704 0.113482 -1.46875e-06)
(6.45134 0.0779009 1.70339e-08)
(6.28123 0.0376228 -1.47234e-07)
(6.25624 0.0323875 -9.77965e-08)
(6.23338 5.94481e-11 6.39127e-14)
(6.143 0.0700692 -6.07647e-07)
(6.29604 1.05051e-09 -7.43887e-12)
(6.12394 0.0708437 -8.14471e-08)
(6.20501 0.0238457 2.45504e-07)
(6.22795 0.034112 -1.81546e-07)
(6.07579 0.195117 -8.25174e-08)
(6.25929 0.00303101 1.79613e-07)
(6.27553 0.109533 -8.52961e-08)
(6.18776 0.0400167 4.22073e-07)
(6.23385 0.00794165 2.10217e-08)
(6.05346 0.0723851 -2.31755e-08)
(6.19563 0.00193959 -4.23103e-09)
(6.19767 3.28391e-10 -2.19902e-12)
(6.18585 8.13456e-12 -1.03837e-14)
(6.05397 0.174588 -1.11654e-07)
(6.12639 0.0389258 -5.38617e-07)
(6.11777 0.0118985 1.07167e-07)
(6.07912 0.00136964 2.56327e-07)
(6.1641 0.120371 5.9629e-08)
(6.11117 0.0161524 -4.90655e-07)
(6.20151 0.0854163 -4.62186e-07)
(5.99589 0.0508772 -3.18996e-07)
(6.11326 0.0114938 -2.1179e-07)
(6.10829 0.00798029 4.69572e-07)
(6.06061 0.0100954 -2.22718e-07)
(5.93448 0.0540344 2.70305e-07)
(6.00737 0.0278762 -5.03085e-07)
(5.92148 0.0505805 1.8337e-08)
(6.01415 0.01904 -6.15784e-10)
(5.96568 0.0347111 2.29276e-07)
(6.04787 0.188155 3.95439e-07)
(6.06165 0.0872247 -1.98663e-07)
(5.8612 0.0514279 -7.08074e-07)
(5.96 0.0182728 7.74726e-08)
(5.83106 0.044345 -6.92269e-08)
(5.8113 0.0511908 -5.55282e-07)
(5.82601 0.0497372 -1.07124e-07)
(5.73861 0.0675308 -3.72371e-07)
(5.83098 0.0581438 2.94605e-08)
(5.78924 0.0711294 3.28428e-07)
(5.77042 0.028959 -6.00787e-07)
(5.79487 0.0555791 1.50509e-07)
(5.79054 0.0420735 1.29936e-07)
(5.83758 0.00768651 6.32331e-08)
(5.82093 0.00608067 7.37752e-08)
(5.81461 0.00129148 7.79103e-10)
(5.73515 0.0353375 1.49703e-07)
(5.80357 0.0181258 6.90161e-07)
(5.71193 0.0362387 -1.25023e-07)
(5.75203 0.0355317 -1.26714e-07)
(5.82238 0.130688 2.55295e-07)
(5.71577 0.0304835 -2.85314e-08)
(5.76465 0.00832582 7.42286e-08)
(5.67228 0.046194 -4.31025e-10)
(5.69843 0.0318684 -7.01957e-08)
(5.72212 8.67282e-11 1.79317e-13)
(5.89219 0.0897299 -2.76816e-07)
(5.75131 0.145056 1.39815e-08)
(5.67945 0.00114759 1.88819e-07)
(5.57282 0.0906806 2.03535e-07)
(5.66234 0.0338145 5.8742e-07)
(5.6519 3.42181e-11 -2.36943e-13)
(5.61362 0.0331328 -4.29899e-07)
(5.56225 0.061647 -9.02582e-08)
(5.64241 0.0245709 2.94086e-07)
(5.63172 0.0118739 5.94458e-07)
(5.69853 0.158224 2.75719e-08)
(5.56103 0.0388861 -5.78254e-07)
(5.58216 0.0187214 3.09623e-07)
(5.53966 0.0440187 -1.0403e-08)
(5.56344 0.0264955 -5.12788e-07)
(5.56679 0.00282487 1.85226e-07)
(5.42196 0.0752061 5.37381e-07)
(5.51809 0.0267105 6.2802e-08)
(5.54903 6.26556e-09 2.98342e-11)
(5.6252 0.168667 -3.34385e-07)
(5.77334 0.0580423 -3.38108e-07)
(5.53126 0.00498278 2.15695e-07)
(5.54656 0.0161171 5.49071e-07)
(5.44791 0.0484622 1.7031e-06)
(5.43303 0.053674 -1.01373e-06)
(5.44245 0.00040846 1.43538e-07)
(5.69895 0.0022099 -6.57642e-07)
(5.38888 0.043883 -9.19926e-08)
(5.32824 0.0685614 -2.31994e-07)
(5.68112 0.0979968 7.07393e-07)
(5.34876 0.0546731 -5.90994e-07)
(5.30485 0.0593572 8.37464e-08)
(5.39415 1.75231e-10 1.16933e-12)
(5.40244 0.00430661 -6.31691e-08)
(5.27688 0.0787489 -9.71503e-08)
(5.56677 0.08734 6.42523e-08)
(5.30333 0.0379751 -4.03059e-07)
(5.31992 0.00542308 -2.17966e-07)
(5.26336 0.0554537 1.08567e-07)
(5.46584 0.152413 -5.53232e-07)
(5.19299 0.0938101 2.94394e-08)
(5.27037 0.0435325 3.19507e-07)
(5.3024 0.0102011 -2.95203e-08)
(5.26954 0.0231778 -8.18196e-09)
(5.2781 0.000579553 -1.30822e-07)
(5.23464 0.0359251 3.35888e-08)
(5.20285 0.0795669 6.83181e-08)
(5.26863 0.0175434 -4.40989e-08)
(5.24451 0.0427056 2.93767e-07)
(5.22304 0.0415969 4.25987e-07)
(5.40428 0.151867 8.9218e-07)
(5.1895 0.0389535 6.11102e-09)
(5.21797 0.00122104 -7.55225e-08)
(5.16629 0.0561968 -5.1168e-07)
(5.34433 0.196701 2.31804e-07)
(5.17164 0.0504072 5.54521e-08)
(5.12625 0.061787 -4.60381e-07)
(5.13429 0.0555319 5.44931e-08)
(5.18178 0.0304326 4.93366e-07)
(5.32687 0.154001 6.0577e-07)
(5.37549 0.127483 1.00307e-07)
(5.22138 0.0668077 1.13289e-07)
(5.18234 0.00192057 -1.0507e-07)
(5.06172 0.0628662 -1.13175e-08)
(5.36908 0.0926061 -1.11311e-06)
(5.11826 9.80247e-10 5.74943e-12)
(5.10377 0.0236326 -5.74032e-08)
(5.31436 0.176581 -1.85593e-07)
(5.00947 0.0820971 2.77202e-07)
(4.97305 0.0842223 1.55134e-07)
(5.0316 0.0450764 2.93215e-07)
(4.99542 0.0746113 8.59825e-07)
(5.20231 0.215617 5.26908e-07)
(5.06152 0.0237276 1.93236e-07)
(5.04558 0.000859003 9.46926e-08)
(5.05146 0.000316414 4.44825e-07)
(4.98875 0.0533428 -2.08799e-07)
(5.20518 0.162092 3.4748e-07)
(5.01172 0.00605175 2.37419e-08)
(4.99322 0.0276554 4.1328e-07)
(4.94644 0.0489928 -4.84532e-07)
(4.93576 0.0505318 1.89224e-09)
(5.20544 0.136971 -7.70435e-08)
(4.8905 0.0618833 4.0139e-07)
(4.9027 0.0534494 2.76188e-09)
(4.93603 0.0324328 2.77482e-08)
(4.89588 0.0486509 2.07285e-07)
(4.9201 0.00107207 -5.36541e-08)
(5.1523 0.147376 -1.01944e-07)
(5.12825 0.148819 -6.40183e-08)
(4.82395 0.0620095 4.77174e-07)
(5.12276 0.15135 -2.09144e-07)
(4.82225 0.0544634 -1.42576e-07)
(5.09841 0.0790715 -2.58058e-07)
(4.79181 0.0386659 -2.34109e-08)
(4.78213 0.043838 -2.20286e-07)
(4.75485 0.0735063 -4.39243e-08)
(4.7604 0.016159 5.97302e-09)
(4.74217 0.0319709 -4.17684e-08)
(4.74129 0.00810396 2.13462e-07)
(4.73407 0.037148 -1.10511e-08)
(4.7337 0.00355491 1.16186e-07)
(5.0324 0.126915 6.04971e-08)
(5.03878 0.115651 -7.94804e-07)
(5.00471 0.147961 -1.10333e-07)
(4.68882 0.00382182 -7.80821e-08)
(4.67258 0.0524898 -1.35352e-07)
(4.68514 0.0312136 2.67911e-07)
(4.66767 0.0437758 -8.89487e-07)
(4.66281 0.024951 1.78216e-07)
(4.65723 0.0225576 8.11171e-08)
(4.61523 0.0763744 -9.41737e-10)
(4.61947 0.0688079 1.74703e-07)
(4.62131 0.0292267 2.12122e-07)
(4.60239 0.00597331 -7.11388e-07)
(4.6075 0.0111091 9.79591e-08)
(4.92023 0.151747 -2.96468e-07)
(4.91879 0.12497 -4.69597e-09)
(4.57324 0.0254752 -5.93015e-07)
(4.909 0.12965 7.90827e-09)
(4.53193 0.0587467 -7.08486e-08)
(4.51228 0.0477719 -1.28233e-07)
(4.50393 0.018337 -4.73523e-08)
(4.47571 0.0569647 -2.24888e-07)
(4.47904 0.00233073 1.71181e-07)
(4.46522 0.0491358 9.44032e-09)
(4.46002 0.0468903 1.12734e-07)
(4.45796 0.0358256 -2.05717e-08)
(4.45187 0.0279842 -1.84031e-08)
(4.44536 0.0106742 -3.68328e-07)
(4.7982 0.0920802 5.61717e-08)
(4.40536 0.00750985 -8.18468e-08)
(4.39134 0.0755214 -2.27017e-07)
(4.38895 0.0461482 -1.18566e-08)
(4.37346 0.0164636 2.08249e-07)
(4.36159 0.0778787 2.3036e-07)
(9.86397 0.162188 -3.34289e-07)
(9.91956 0.162423 1.39119e-08)
(9.93564 0.0875107 -2.07926e-07)
(9.69019 0.236325 2.05919e-07)
(9.65789 0.188997 1.05893e-07)
(9.98674 0.0809187 1.56563e-07)
(9.86318 0.134912 1.57354e-07)
(9.89112 0.0667998 -7.52645e-08)
(9.92558 0.0226029 1.43055e-07)
(9.83561 0.00167322 5.72037e-07)
(9.83198 0.123363 -8.09761e-08)
(9.89186 0.0345521 9.09615e-07)
(9.71061 0.171929 -1.83249e-07)
(9.92713 2.643e-10 -1.20857e-12)
(9.90366 0.0341485 -5.14383e-08)
(9.74191 0.00923505 2.36241e-07)
(9.79321 0.0978637 -3.78252e-07)
(9.72444 0.0970993 -9.6954e-09)
(9.8679 0.0443574 -3.57566e-07)
(9.71097 0.142066 7.36882e-08)
(9.8942 3.85004e-07 2.12901e-10)
(9.878 0.00922262 1.69381e-08)
(9.90728 0.0267292 6.19285e-07)
(9.86282 0.0250426 -3.67843e-08)
(9.76649 0.057495 -2.69396e-09)
(9.84867 0.0101266 9.5887e-08)
(9.67782 0.0467475 -1.06137e-07)
(9.8574 0.0321485 1.30031e-07)
(9.755 0.0739508 -1.42384e-07)
(9.82622 0.0461933 1.90527e-07)
(9.92463 0.00263494 1.49588e-07)
(9.81255 4.63098e-05 -4.89009e-08)
(9.45568 0.143444 -3.49282e-07)
(9.78025 0.00868321 3.39072e-07)
(9.75104 0.000122186 1.57488e-07)
(9.77219 0.0631112 -3.34403e-07)
(9.68118 0.0803291 -3.9817e-07)
(9.34073 0.173939 2.72446e-07)
(9.73551 1.71519e-08 2.39611e-11)
(9.67522 0.0548304 -2.732e-08)
(9.67492 0.0287316 2.64493e-08)
(9.80963 0.105632 4.23926e-07)
(9.63189 0.000772305 -1.09851e-07)
(9.69184 0.0749242 3.40018e-07)
(9.60209 0.101518 4.58284e-09)
(9.68651 0.0130529 2.19618e-08)
(9.5954 2.03887e-08 7.66587e-11)
(9.4593 0.081657 -3.56071e-07)
(9.6376 0.0298091 5.1124e-07)
(9.59832 0.0194307 -5.09709e-07)
(9.44028 0.191286 -3.02562e-07)
(9.58741 0.0340039 -2.48384e-07)