/*--------------------------------*- C++ -*----------------------------------*\
  =========                 |
  \\      /  F ield         | OpenFOAM: The Open Source CFD Toolbox
   \\    /   O peration     | Website:  https://openfoam.org
    \\  /    A nd           | Version:  7
     \\/     M anipulation  |
\*---------------------------------------------------------------------------*/
FoamFile
{
    version     2.0;
    format      ascii;
    class       scalarField;
    location    "0.15/lagrangian/reactingCloud1";
    object      d;
}
// * * * * * * * * * * * * * * * * * * * * * * * * * * * * * * * * * * * * * //


1205
(
1.63562e-06
2e-07
2e-07
8.43174e-07
2e-07
2e-07
2e-07
2e-07
2e-07
2e-07
2e-07
2e-07
2e-07
2e-07
2e-07
2e-07
2e-07
2e-07
2e-07
2e-07
2e-07
2e-07
2e-07
2e-07
6.92515e-07
2e-07
2e-07
2e-07
2e-07
2e-07
2e-07
2e-07
2e-07
2e-07
2e-07
2e-07
2e-07
6.44151e-07
2e-07
2e-07
2e-07
2e-07
2e-07
2e-07
2e-07
2e-07
2e-07
2e-07
2e-07
2e-07
2e-07
2e-07
2e-07
2e-07
2e-07
5.59529e-07
2e-07
2e-07
2e-07
2e-07
2e-07
2e-07
2e-07
2e-07
2e-07
2e-07
2e-07
2e-07
2e-07
2e-07
2e-07
2e-07
2e-07
2e-07
2e-07
2e-07
2e-07
2e-07
2e-07
2e-07
2e-07
2e-07
2e-07
2e-07
2e-07
2e-07
2e-07
2e-07
2e-07
2e-07
2e-07
2e-07
2e-07
2e-07
2e-07
2e-07
2e-07
2e-07
2e-07
2e-07
2e-07
2e-07
2e-07
2e-07
2e-07
2e-07
2e-07
2e-07
2e-07
2e-07
2e-07
2e-07
2e-07
2e-07
2e-07
2e-07
2e-07
2e-07
2e-07
2e-07
2e-07
2e-07
2e-07
2e-07
2e-07
2e-07
2e-07
2e-07
2e-07
2e-07
2e-07
2e-07
2e-07
2e-07
2e-07
2e-07
2e-07
2e-07
2e-07
2e-07
2e-07
2e-07
2e-07
2e-07
2e-07
2e-07
2e-07
2e-07
2e-07
2e-07
2e-07
2e-07
2e-07
2e-07
2e-07
2e-07
2e-07
2e-07
2e-07
2e-07
2e-07
2e-07
2e-07
2e-07
2e-07
2e-07
2e-07
2e-07
2e-07
2e-07
2e-07
2e-07
2e-07
2e-07
2e-07
2e-07
2e-07
2e-07
2e-07
2e-07
2e-07
2e-07
2e-07
2e-07
2e-07
2e-07
2e-07
2e-07
2e-07
2e-07
2e-07
2e-07
2e-07
2e-07
2e-07
2e-07
2e-07
2e-07
2e-07
2e-07
2e-07
2e-07
2e-07
2e-07
2e-07
2e-07
2e-07
2e-07
2e-07
2e-07
2e-07
2e-07
2e-07
2e-07
2e-07
2e-07
2e-07
2e-07
2e-07
2e-07
2e-07
2e-07
2e-07
2e-07
2e-07
2e-07
2e-07
2e-07
2e-07
2e-07
2e-07
2e-07
2e-07
2e-07
2e-07
2e-07
2e-07
2e-07
2e-07
2e-07
2e-07
2e-07
2e-07
2e-07
2e-07
2e-07
2e-07
2e-07
2e-07
2e-07
2e-07
2e-07
2e-07
2e-07
2e-07
2e-07
2e-07
2e-07
2e-07
2e-07
2e-07
2e-07
2e-07
2e-07
1.04053e-06
2e-07
2e-07
2e-07
2e-07
2e-07
2e-07
2e-07
2e-07
2e-07
2e-07
2e-07
2e-07
2e-07
2e-07
2e-07
2e-07
2e-07
2e-07
2e-07
2e-07
2e-07
1.22521e-06
1.46912e-06
1.38754e-06
1.21026e-06
1.66117e-06
1.4846e-06
1.59075e-06
1.60267e-06
1.25781e-06
1.40621e-06
2.97683e-06
1.44981e-06
1.07373e-06
1.4156e-06
2e-07
5.18688e-07
1.74723e-06
2e-07
2e-07
2e-07
2e-07
2e-07
1.62748e-06
1.86953e-06
2e-07
2e-07
1.62013e-06
2e-07
2.89006e-06
2e-07
2e-07
2e-07
2e-07
1.84249e-06
2e-07
2e-07
2e-07
2e-07
2e-07
2e-07
2e-07
2e-07
2e-07
1.29444e-06
2e-07
2e-07
2e-07
7.24822e-07
2e-07
2e-07
2e-07
8.18173e-07
2e-07
6.82859e-07
2e-07
2e-07
2e-07
2e-07
2e-07
2e-07
2e-07
2e-07
2e-07
2e-07
9.25735e-07
2e-07
2e-07
1.4083e-06
2e-07
2e-07
2e-07
2e-07
2e-07
9.81419e-07
2e-07
2e-07
2e-07
2e-07
2e-07
2e-07
2e-07
2e-07
2e-07
2e-07
2e-07
1.19955e-06
2e-07
1.31654e-06
2e-07
2e-07
2e-07
2e-07
2e-07
1.55366e-06
2e-07
2e-07
2e-07
2e-07
2e-07
9.63769e-07
2e-07
2e-07
9.43045e-07
2e-07
2e-07
2e-07
2e-07
2.29036e-06
2e-07
2e-07
2e-07
1.87664e-06
2e-07
2e-07
2e-07
2e-07
2e-07
2e-07
2e-07
2e-07
2e-07
2e-07
2e-07
2e-07
2e-07
2e-07
2e-07
2e-07
6.53795e-07
2e-07
2e-07
2e-07
2e-07
2e-07
2e-07
2e-07
2e-07
2e-07
6.33207e-07
2e-07
2e-07
2e-07
2e-07
2e-07
2e-07
2e-07
2e-07
2e-07
2e-07
2.84259e-06
2e-07
2e-07
7.92519e-07
2e-07
2e-07
2e-07
2e-07
2e-07
2e-07
2e-07
2e-07
2e-07
2e-07
5.0747e-07
2e-07
2.22443e-06
2e-07
2e-07
1.21501e-06
2e-07
2e-07
2e-07
2e-07
2e-07
9.42257e-07
2e-07
2e-07
2e-07
2e-07
2e-07
2e-07
2e-07
2e-07
2e-07
2e-07
2e-07
2e-07
2e-07
2e-07
2e-07
2e-07
2e-07
2e-07
2e-07
7.75222e-07
2e-07
2e-07
1.34262e-06
4.81088e-07
2e-07
2e-07
2e-07
2e-07
6.37805e-07
2e-07
6.74594e-07
2e-07
2e-07
2e-07
2e-07
2e-07
2e-07
2e-07
2e-07
2e-07
2e-07
2e-07
2e-07
2e-07
2e-07
2e-07
2e-07
7.47066e-07
2e-07
2e-07
2e-07
2e-07
2e-07
2e-07
2e-07
2e-07
2e-07
1.00508e-06
2e-07
2e-07
1.65812e-06
2e-07
2e-07
2e-07
2e-07
2e-07
2e-07
2e-07
2e-07
2e-07
2e-07
2e-07
2e-07
2e-07
2e-07
1.17258e-06
2e-07
2e-07
2e-07
2e-07
2e-07
2e-07
2e-07
2e-07
2e-07
2e-07
2e-07
2e-07
7.01197e-07
8.9664e-07
8.26147e-07
1.41693e-06
1.05305e-06
1.10331e-06
2.24379e-06
1.21779e-06
1.05987e-06
8.90803e-07
3.76809e-07
1.74734e-06
2.61969e-06
1.54724e-06
2.39385e-06
8.10948e-07
2.5037e-06
1.00877e-06
1.77001e-06
2.01682e-06
1.73791e-06
2.02543e-06
2.30594e-06
2e-07
2.22158e-06
9.53884e-07
2e-07
8.17135e-07
9.50933e-07
8.14596e-07
1.8463e-06
1.9404e-06
2.17412e-06
1.82733e-06
2e-07
2.49391e-06
2e-07
2e-07
2e-07
2e-07
2e-07
1.1693e-06
2e-07
2e-07
5.7814e-07
2.68142e-06
2e-07
1.55642e-06
1.77059e-06
2e-07
1.47602e-06
2.30706e-06
1.06298e-06
2.07091e-06
2e-07
2e-07
1.58334e-06
2e-07
1.82979e-06
2e-07
2e-07
4.55034e-06
2e-07
2e-07
2e-07
1.75622e-06
2e-07
2e-07
2e-07
2.89801e-06
2e-07
6.39109e-07
2e-07
1.63522e-06
1.64517e-06
2e-07
2.06845e-06
2e-07
1.67832e-06
2.51362e-06
1.76269e-06
2e-07
2.80426e-06
1.63775e-06
2.72072e-06
2.67957e-06
2e-07
2e-07
2e-07
2e-07
2e-07
1.99143e-06
2e-07
2e-07
2.8325e-06
1.70959e-06
3.03072e-06
2.34601e-07
1.56265e-06
1.07283e-06
2e-07
2e-07
2e-07
3.58305e-06
2.76585e-06
2e-07
2e-07
1.25908e-06
1.85897e-06
2e-07
1.47126e-06
2.68398e-06
2.13794e-06
2e-07
2e-07
2e-07
6.35479e-07
2e-07
1.43974e-06
2e-07
2e-07
9.10348e-07
2e-07
2.14976e-06
2e-07
2e-07
2.81217e-07
2e-07
2e-07
2e-07
1.44425e-06
2e-07
2e-07
2e-07
2.34326e-06
2e-07
2.14093e-06
2e-07
2e-07
2e-07
2e-07
2e-07
2e-07
2e-07
2e-07
2e-07
1.53261e-06
2.66456e-06
2e-07
2e-07
2e-07
2e-07
2e-07
2e-07
2e-07
2.88118e-07
2e-07
2e-07
2e-07
2e-07
2e-07
2e-07
2e-07
2e-07
2e-07
2e-07
1.48717e-06
2e-07
2e-07
2e-07
2e-07
2e-07
3.36346e-06
1.68435e-06
2e-07
1.34246e-06
2e-07
2e-07
2e-07
2e-07
2e-07
2e-07
1.25622e-06
2e-07
2e-07
2e-07
2e-07
2e-07
2e-07
2e-07
2e-07
1.25232e-06
2.79749e-06
2e-07
2e-07
2e-07
2e-07
2e-07
2.65335e-06
2e-07
2e-07
2.29733e-06
2e-07
2e-07
2e-07
2e-07
4.16028e-06
1.98209e-06
2e-07
2e-07
2e-07
1.12522e-06
8.73724e-07
2e-07
2e-07
2e-07
2e-07
2e-07
8.71515e-07
2e-07
2e-07
2e-07
1.01695e-06
2e-07
2e-07
2e-07
1.17238e-06
2e-07
2e-07
2e-07
2e-07
1.01685e-06
1.9992e-06
1.80434e-06
2e-07
2e-07
2.50405e-06
2e-07
2e-07
1.16971e-06
2.91414e-07
9.81546e-07
2e-07
2e-07
9.4897e-07
2e-07
2e-07
2e-07
2e-07
8.64248e-07
2e-07
2e-07
2e-07
2e-07
2.88229e-06
2e-07
2e-07
2e-07
2e-07
2e-07
1.28375e-06
5.77574e-07
2e-07
9.55208e-07
2e-07
1.5397e-06
2e-07
2e-07
2e-07
2e-07
2e-07
2e-07
2e-07
2e-07
1.87921e-06
1.75104e-06
1.92187e-06
2e-07
2e-07
2e-07
2e-07
2e-07
2e-07
2e-07
2e-07
2e-07
2e-07
2e-07
1.51889e-06
1.22062e-06
2e-07
1.93778e-06
2e-07
2e-07
2e-07
2e-07
2e-07
2e-07
2e-07
2e-07
2e-07
2e-07
2.21944e-06
2e-07
2e-07
2e-07
2e-07
2e-07
1.36477e-06
2.59991e-06
3.80645e-06
2.41806e-06
2.63787e-06
2.57109e-06
2.42723e-06
4.50546e-06
2.48176e-06
2.73205e-06
2.47209e-06
2.45994e-06
2.29506e-06
2.46869e-06
2.44205e-06
2.48268e-06
2.32026e-06
3.04697e-06
4.73493e-06
2.1518e-06
2.45335e-06
2.44634e-06
3.33942e-06
2.41056e-06
3.19961e-06
2.43217e-06
2.39302e-06
2.417e-06
3.0619e-06
2.45331e-06
2.41474e-06
2.41995e-06
3.63741e-06
2.41362e-06
3.66952e-06
2.39236e-06
2.53261e-06
4.16476e-06
2.39349e-06
2.89757e-06
3.34497e-06
2.24526e-06
3.72311e-06
2.36605e-06
2.30777e-06
2.35834e-06
5.10774e-06
3.13627e-06
3.02507e-06
3.01243e-06
2.19521e-06
2.88335e-06
2.73892e-06
2.52042e-06
2.32224e-06
2.28996e-06
2.32109e-06
2.726e-06
2.71577e-06
2.94947e-06
2.30667e-06
2.61054e-06
2.24865e-06
2.27548e-06
2.54407e-06
4.78738e-06
2.27343e-06
3.48024e-06
2.27046e-06
2.48248e-06
3.50857e-06
2.47389e-06
2.2604e-06
2.25741e-06
2.25175e-06
2.79569e-06
2.2506e-06
3.11986e-06
2.64934e-06
2.38476e-06
1.3046e-06
2.22356e-06
2.95676e-06
2.59608e-06
2.17641e-06
2.67771e-06
3.10567e-06
3.36048e-06
2.17861e-06
2.56667e-06
9.43569e-07
2.16165e-06
2.4871e-06
3.65353e-06
3.57868e-06
2.13121e-06
2.13111e-06
2.59887e-06
2.11671e-06
2.11537e-06
2.84404e-06
2.09441e-06
2.0841e-06
2.25369e-06
2.07321e-06
2.0582e-06
2.45406e-06
1.88448e-06
2.0145e-06
2.30966e-06
2.13844e-06
2.00805e-06
1.99456e-06
2.00402e-06
2.29852e-06
2.22874e-06
3.02653e-06
1.93058e-06
1.97483e-06
2.03127e-06
1.95955e-06
3.09516e-06
1.94767e-06
2.03405e-06
2.30579e-06
1.91012e-06
2.65613e-06
2.97424e-06
2.83422e-06
1.88201e-06
2.65448e-06
1.65506e-06
1.88253e-06
1.88418e-06
2.65542e-06
2.3186e-06
1.98273e-06
4.117e-06
1.84e-06
2.31262e-06
2.54561e-06
1.82389e-06
1.806e-06
1.79643e-06
1.7908e-06
1.78055e-06
1.7812e-06
1.74861e-06
1.94635e-06
1.72714e-06
5.07236e-06
2.49015e-06
4.14688e-06
2.09916e-06
1.80398e-06
1.81191e-06
2.32103e-06
5.91302e-06
1.79031e-06
2.65775e-06
3.5967e-06
1.62875e-06
1.61736e-06
1.2917e-06
2.70333e-06
1.60997e-06
2.17049e-06
2.3131e-06
1.47911e-06
1.61294e-06
2.15664e-06
1.82788e-06
2.23434e-06
2.6472e-06
1.79588e-06
3.45892e-06
3.87406e-06
1.55763e-06
1.54756e-06
1.8779e-06
1.75811e-06
1.49322e-06
2.61877e-06
1.61929e-06
2.23672e-06
1.59214e-06
3.5697e-06
1.56493e-06
1.69207e-06
2.32473e-06
1.85067e-06
1.37667e-06
1.66381e-06
1.5171e-06
1.61874e-06
2.4789e-06
1.88886e-06
3.69622e-06
1.95807e-06
2.26214e-06
1.60397e-06
2.48502e-06
1.28572e-06
1.27657e-06
1.25289e-06
1.23996e-06
1.23071e-06
1.189e-06
1.14365e-06
1.2993e-06
1.09683e-06
1.40799e-06
1.02565e-06
1.00956e-06
1.01439e-06
3.18942e-06
2.86589e-06
1.30965e-06
3.80495e-06
8.83303e-07
8.65572e-07
2.71028e-06
2.60459e-06
1.26679e-06
1.71234e-06
3.89557e-06
7.8059e-07
3.43822e-06
1.46152e-06
7.33799e-07
2.73764e-06
1.89721e-06
1.00096e-06
2.79554e-06
1.90635e-06
1.1863e-06
1.61362e-06
1.82697e-06
1.42248e-06
1.98824e-06
4.07812e-06
1.68814e-06
1.40583e-06
2.05659e-06
2.01476e-06
1.08287e-06
8.18472e-07
2.64848e-06
1.03356e-06
3.90907e-07
1.94349e-06
1.25861e-06
2.04804e-07
8.95935e-07
6.81803e-07
1.89948e-06
2.6945e-06
2.62041e-06
2e-07
2e-07
2e-07
3.27867e-06
1.22396e-06
2.31006e-06
2.96838e-06
1.83593e-06
2e-07
2.75902e-07
2.86995e-06
1.55675e-06
2e-07
1.09052e-06
2.39188e-06
1.98159e-06
4.19709e-06
2.43804e-06
2e-07
1.94811e-06
1.75046e-06
6.11567e-07
2e-07
1.43485e-06
5.64114e-07
2e-07
2.59598e-06
2e-07
2e-07
1.52087e-06
1.32996e-06
2e-07
8.64384e-07
8.50011e-07
2.38445e-06
1.69483e-06
2e-07
2e-07
2.84848e-06
7.84943e-07
3.24355e-06
2.8151e-06
2e-07
2e-07
2e-07
1.59049e-06
2e-07
1.85659e-06
2e-07
2e-07
1.68026e-06
2e-07
3.13492e-07
2.60312e-06
1.03707e-06
2.78735e-06
1.71024e-06
1.36633e-06
3.20387e-06
7.59003e-07
1.18357e-06
1.44326e-06
1.10971e-06
1.14745e-06
5.47985e-07
1.36531e-06
3.80373e-06
1.19184e-06
3.2734e-06
1.79441e-06
1.91272e-06
1.84546e-06
1.44761e-06
2.36059e-06
2.28609e-06
2.12888e-06
1.53726e-06
1.24307e-06
1.5049e-06
1.02977e-06
1.50244e-06
2.42637e-06
8.53949e-07
1.27933e-06
1.77513e-06
1.07221e-06
1.28585e-06
1.66677e-06
1.20196e-06
1.68485e-06
)


// ************************************************************************* //
