/*--------------------------------*- C++ -*----------------------------------*\
  =========                 |
  \\      /  F ield         | OpenFOAM: The Open Source CFD Toolbox
   \\    /   O peration     | Website:  https://openfoam.org
    \\  /    A nd           | Version:  7
     \\/     M anipulation  |
\*---------------------------------------------------------------------------*/
FoamFile
{
    version     2.0;
    format      ascii;
    class       labelField;
    location    "0.15/lagrangian/reactingCloud1";
    object      origId;
}
// * * * * * * * * * * * * * * * * * * * * * * * * * * * * * * * * * * * * * //


1205
(
1771
1839
1837
1840
1845
1855
1849
1842
1857
1854
1862
1858
1861
1848
1843
1866
1867
1869
1863
1856
1864
1874
1876
1674
1658
1865
1877
1870
1882
1873
1871
1860
1884
1881
1885
1880
1879
1816
1883
1889
1657
1888
1887
1892
1891
1894
1872
1710
1886
1898
1896
1890
1901
1893
1905
1850
1900
1897
1902
1907
1906
1910
1911
2017
2055
2056
2057
2058
2059
2060
2061
2062
2063
2064
2065
2066
2067
2068
2069
2070
2071
2072
2073
2074
2075
2076
2077
2078
2079
2080
2081
2082
2083
2084
2085
2086
2087
2088
2089
2090
2091
2092
2093
2094
2095
2096
2097
2098
2099
2100
2101
2102
2103
2104
2105
2106
2107
2108
2109
2110
2111
2112
2113
2114
2115
2116
2117
2118
2119
2120
2121
2122
1859
1922
1968
1997
2001
2002
2004
2005
2006
2007
2009
2008
2013
2012
2014
2015
2018
2016
2010
2019
2021
2020
2023
2022
2025
2027
2026
2028
2029
2024
2031
2030
2032
2011
2033
2034
2036
2035
2037
2039
2038
2040
2043
2042
2041
2045
2044
2046
2048
2047
2049
2051
2052
2053
2054
2050
1942
1940
1934
1949
1952
1953
1933
1956
1950
1958
1963
1957
1895
1964
1959
1962
1937
1955
1960
1965
1820
1966
1868
1961
1970
1975
1976
1974
1967
1972
1947
1980
1971
1969
1979
1982
1978
1977
1981
1983
1986
1951
1988
1985
1987
1973
1984
1921
1992
1990
1991
1995
1998
1993
2000
1989
1996
1999
1994
2003
1915
1914
1917
1919
1912
1916
1925
1920
1899
1909
1918
1926
1908
1928
1927
1930
1769
1913
1923
1875
1929
1939
1931
1938
1935
1878
1904
1946
1936
1945
1948
1903
1943
1941
1944
1954
1924
1932
1504
1514
1461
1544
1552
1562
1550
1517
1547
1548
1449
1572
1577
1573
1571
1585
1575
1594
1614
1609
1603
1615
1582
1592
1607
1621
1555
1599
1557
1619
1602
1618
1616
1566
1620
1605
1622
1626
1631
1633
1634
1635
1632
1624
1628
1613
1627
1584
1597
1640
1608
1590
1641
1629
1636
1630
1638
1649
1651
1647
1645
1625
1648
1653
1642
1655
1646
1611
1644
1656
1664
1669
1667
1652
1623
1659
1668
1643
1676
1673
1672
1678
1662
1679
1686
1650
1665
1661
1687
1685
1677
1689
1690
1654
1691
1699
1693
1680
1671
1663
1684
1697
1637
1682
1704
1707
1681
1660
1706
1670
1688
1598
1712
1666
1708
1675
1692
1705
1702
1711
1718
1700
1713
1723
1698
1695
1720
1694
1701
1709
1719
1721
1714
1724
1726
1729
1730
1727
1508
1732
1735
1725
1734
1728
1733
1738
1731
1737
1717
1488
1739
1740
1527
1742
1743
1741
1747
1751
1736
1755
1750
1746
1752
1744
1756
1683
1757
1762
1722
1749
1760
1754
1765
1753
1748
1759
1639
1767
1773
1770
1775
1764
1777
1774
1780
1772
1782
1768
1787
1785
1758
1789
1788
1761
1763
1790
1793
1766
1716
1778
1791
1786
1798
1591
1799
1745
1794
1796
1795
1797
1779
1800
1801
1776
1803
1792
1809
1808
1805
1813
1812
1811
1617
1715
1815
1804
1818
1806
1781
1819
1821
1810
1802
1823
1827
1696
1828
1830
1814
1832
1817
1829
1824
1835
1833
1826
1834
1703
1838
1807
1783
1825
1841
1784
1822
1844
1846
1851
1847
1852
1831
1853
1836
1081
1140
1094
1246
1321
1336
1346
1388
1430
1125
1086
1151
1272
1174
1301
1173
1297
1289
1299
1205
1287
1310
1280
1305
1242
1300
1292
1129
1293
1303
1312
1315
1295
1311
1306
1256
1323
1316
1332
1204
1313
1329
1318
1327
1328
1276
1338
1333
1215
1344
1145
1264
1347
1243
1334
1304
1342
1350
1330
1349
1357
1203
1337
1359
1358
1352
1364
1351
1343
1255
1370
1371
1340
1294
1348
1322
1366
1381
1365
1331
1362
1368
1006
1361
1326
1335
1383
1385
1376
1384
1363
1355
1391
1386
1307
1377
1325
1379
1382
1395
1403
1396
1400
1196
1320
1406
1407
1160
1389
1339
1412
1324
1258
1418
1408
1399
1410
1353
1416
1415
1390
1269
1414
1283
1417
1424
1422
1420
1401
1380
1356
1428
1419
1436
1354
1429
1387
1439
1443
1426
1447
1425
1448
1413
1405
1309
1372
1392
1441
1455
1444
1456
1432
1454
1463
1445
1442
1427
1458
1459
1468
1466
1469
1467
1471
1472
1393
1475
1478
1474
1479
1460
1345
1369
1464
1465
1481
1457
1483
1435
1484
1487
1367
1489
1491
1433
1490
1492
1470
1462
1485
1226
1394
1499
1497
1437
1482
1476
1360
1503
1496
1434
1473
1450
1509
1506
1374
1451
1505
1502
1446
1409
1512
1519
1523
1525
1440
1515
1486
1522
1524
1526
1373
1521
1533
1507
1411
1529
1480
1511
1532
1402
1423
1477
1535
1494
1452
1520
1542
1397
1453
1528
1534
1540
1398
1546
1538
1536
1539
1375
1530
1549
1516
1543
1123
1500
1537
1559
1554
1553
1438
1378
1518
1421
1531
1510
1558
1545
1560
1576
1564
1578
1574
1569
1498
1495
1341
1570
1551
1583
1580
1541
1586
1561
1556
1587
1563
1589
1501
1404
1567
1493
1581
1431
1600
1593
1604
1568
1595
1601
1588
1596
1513
1606
1579
1612
1610
1565
812
798
922
950
886
968
982
885
990
985
989
981
973
993
983
954
987
762
934
1002
1008
976
962
1003
958
1012
1013
880
937
1017
1016
997
917
1018
972
1000
1007
676
1015
992
828
995
979
1024
1028
1019
931
975
1010
1014
1031
1025
1023
1041
1042
1022
1035
1027
902
971
1036
977
1033
1051
1040
1011
1043
928
1055
1049
996
1044
991
1053
1021
933
1059
630
919
1038
699
1065
1034
1037
1032
900
999
907
1068
1069
751
1061
1052
1004
1030
1071
1062
1045
1085
1091
1029
1097
1080
1066
1087
1056
1064
1067
1100
1084
1082
1088
1112
1093
1090
1099
986
1114
1072
1122
1116
1050
1126
1115
1111
1078
998
905
1005
1131
1074
1127
1092
1137
1073
1121
988
1057
1135
1133
970
1146
1130
1138
1136
1142
1154
1156
1119
1158
1096
1152
1070
1103
1157
1165
1106
1113
1150
1009
1063
1166
1132
1001
1118
1153
1149
1108
1020
1159
1143
1170
1168
1089
1181
1083
1139
1124
1076
1192
1155
1184
1141
1175
1128
1178
1120
1164
1201
1101
1187
1202
1167
1077
1163
947
1208
1102
1117
1172
1189
1169
1176
1185
1213
1223
1212
1200
1225
1230
1217
1207
1198
1238
1228
1058
1194
1216
1147
1188
1211
1179
1161
1237
1231
1180
1247
1177
1249
1109
1098
1235
1251
1171
1220
1250
1232
1229
1233
832
1079
1222
1218
1209
1206
1241
1210
1197
1259
1262
1219
1240
1253
1054
1254
1191
1104
1214
1148
1270
1275
1162
1268
1252
1107
1186
1260
1265
1195
820
1261
1239
1227
1134
1193
1199
1284
1110
1248
1285
1234
1267
1277
1282
1236
1290
1271
1221
1281
1286
1266
1105
1182
1291
1296
1095
1244
1279
1183
1224
1314
1274
1302
1273
1317
1245
1278
1298
1144
1319
1308
1257
1288
1263
565
706
737
892
921
777
717
887
667
899
591
836
783
835
860
940
1026
942
953
873
1046
957
1047
960
1048
849
939
1190
1039
1060
893
994
806
1075
)


// ************************************************************************* //
