/*--------------------------------*- C++ -*----------------------------------*\
  =========                 |
  \\      /  F ield         | OpenFOAM: The Open Source CFD Toolbox
   \\    /   O peration     | Website:  https://openfoam.org
    \\  /    A nd           | Version:  7
     \\/     M anipulation  |
\*---------------------------------------------------------------------------*/
FoamFile
{
    version     2.0;
    format      ascii;
    class       Cloud<passiveParticle>;
    location    "0.15/lagrangian/reactingCloud1";
    object      positions;
}
// * * * * * * * * * * * * * * * * * * * * * * * * * * * * * * * * * * * * * //

1205
(
(0.106094 0.447488 0.238909 0.207509) 46201 91722 1
(0.524595 0.013021 0.225245 0.237139) 46108 91535 2
(0.813635 0.0932736 0.0183957 0.0746955) 46108 91538 1
(0.313699 0.346328 0.166966 0.173007) 46246 91899 1
(0.449592 0.278282 0.171688 0.100438) 46155 91717 1
(0.37759 0.25799 0.0537903 0.31063) 46102 91524 2
(0.590285 0.0979384 0.204674 0.107103) 46151 91624 2
(0.113215 0.162274 0.433903 0.290608) 46149 91705 2
(0.0961688 0.4842 0.38458 0.0350512) 46192 91703 1
(0.263702 0.0310777 0.36634 0.33888) 46194 91795 2
(0.117133 0.441689 0.31287 0.128308) 46185 91692 1
(0.500598 0.0640767 0.185648 0.249677) 46237 91794 2
(0.109712 0.475668 0.32241 0.0922096) 46235 91789 1
(0.543488 0.00782676 0.221055 0.227631) 46238 91795 2
(0.454827 0.140781 0.273222 0.13117) 46233 91788 2
(0.614119 0.175633 0.0313117 0.178936) 46323 91965 2
(0.765134 0.025 0.0946492 0.115217) 46322 91963 2
(0.0241131 0.488027 0.448371 0.0394892) 46320 91962 1
(0.56266 0.218738 0.155837 0.062765) 46460 92242 1
(0.380815 0.319808 0.289627 0.00975001) 46550 92419 1
(0.730597 0.134758 0.112741 0.0219049) 46460 92240 1
(0.61305 0.203768 0.0750966 0.108086) 46455 92317 1
(0.0674729 0.467042 0.411714 0.0537703) 46499 92318 1
(0.122147 0.442819 0.065239 0.369794) 46546 92411 1
(0.351373 0.324924 0.119504 0.204198) 46596 92512 1
(0.0936891 0.459656 0.179392 0.267263) 46638 92595 1
(0.258633 0.395706 0.337076 0.00858483) 46589 92497 1
(0.530906 0.238497 0.10809 0.122507) 46638 92595 1
(0.3125 0.343916 0.240906 0.102677) 46580 92482 1
(0.43611 0.102249 0.183107 0.278534) 46682 92683 2
(0.311777 0.0817764 0.266352 0.340095) 46635 92589 2
(0.427253 0.284907 0.0373478 0.250492) 46628 92578 1
(0.051068 0.47456 0.0496466 0.424725) 46629 92578 1
(0.237582 0.174116 0.218369 0.369933) 46677 92673 2
(0.337336 0.246646 0.104489 0.311528) 46719 92757 2
(0.111213 0.446035 0.0325192 0.410233) 46768 92855 1
(0.0511623 0.496577 0.00477079 0.44749) 46724 92855 1
(0.529664 0.199206 0.0362983 0.234832) 46866 93052 2
(0.288762 0.356875 0.329802 0.0245605) 46812 93031 1
(0.184935 0.407654 0.0785924 0.328818) 46809 92938 1
(0.290805 0.238855 0.347644 0.122696) 46859 93125 2
(0.310824 0.354659 0.176627 0.157891) 46810 93027 1
(0.495398 0.265198 0.0140353 0.225369) 46855 93117 1
(0.18823 0.220458 0.393065 0.198247) 46898 93203 2
(0.0216818 0.445181 0.0698122 0.463325) 46942 93203 2
(0.0132163 0.493956 0.108978 0.38385) 46940 93202 1
(0.599394 0.200306 0.0840641 0.116236) 46986 93292 1
(0.561155 0.225655 0.149266 0.0639243) 47033 93385 1
(0.452524 0.27356 0.00947535 0.26444) 47078 93475 2
(0.38312 0.312227 0.243103 0.0615497) 47075 93557 1
(0.297615 0.298575 0.350863 0.0529467) 47119 93560 2
(0.0365052 0.033657 0.481691 0.448147) 47165 93652 2
(0.103875 0.314696 0.153946 0.427483) 47161 93641 2
(0.721068 0.0953131 0.136281 0.0473385) 47210 93827 2
(0.566335 0.220075 0.0336027 0.179987) 47203 93725 1
(0.585332 0.0802349 0.207113 0.12732) 47263 93848 2
(0.359046 0.0714814 0.320395 0.249077) 47252 93826 2
(0.619584 0.199554 0.0164468 0.164415) 47251 93909 1
(0.200867 0.40077 0.378603 0.0197598) 47253 93913 1
(0.330706 0.334828 0.142828 0.191638) 47293 93906 1
(0.273001 0.365405 0.329067 0.0325265) 47339 94085 1
(0.218326 0.390851 0.379943 0.0108799) 47335 93992 1
(0.615951 0.20374 0.0255327 0.154775) 47425 94257 1
(0.224461 0.385923 0.372203 0.0174119) 3342 6493 1
(0.452946 0.272283 0.0269597 0.247812) 3443 6692 1
(0.557698 0.0903733 0.224916 0.127012) 3427 6697 2
(0.0417111 0.475378 0.445247 0.0376643) 3415 6674 1
(0.893706 0.0293357 0.0236572 0.0533013) 3403 6612 2
(0.436613 0.280936 0.148679 0.133772) 3388 6583 1
(0.244175 0.370212 0.0692009 0.316413) 3040 5943 1
(0.408406 0.241585 0.309218 0.0407904) 3350 6547 2
(0.0281089 0.0949675 0.48641 0.390514) 3349 6509 2
(0.364232 0.317004 0.186554 0.132211) 3324 6458 1
(0.031314 0.479997 0.130389 0.358301) 3325 6459 1
(0.137647 0.429682 0.390824 0.0418472) 3286 6422 1
(0.731237 0.0134415 0.12088 0.134442) 3283 6378 2
(0.488918 0.254908 0.14705 0.109124) 3262 6337 1
(0.144097 0.293632 0.133089 0.429182) 3256 6326 2
(0.442605 0.260021 0.279746 0.0176282) 3231 6279 2
(0.192569 0.320149 0.0721327 0.41515) 3225 6264 2
(0.0352784 0.477378 0.129555 0.357789) 3207 6229 1
(0.376567 0.016463 0.294568 0.312403) 3187 6190 2
(0.499465 0.243286 0.167564 0.0896855) 3168 6153 1
(0.111851 0.443342 0.2214 0.223407) 3145 6109 1
(0.18746 0.0347922 0.370391 0.407357) 3143 6104 2
(0.0757131 0.461818 0.351056 0.111413) 3106 6035 1
(0.221233 0.0516102 0.335623 0.391534) 3107 6034 2
(0.703196 0.147039 0.0517911 0.0979737) 3081 5983 1
(0.426308 0.00185257 0.284989 0.286851) 3072 5967 2
(0.108863 0.444918 0.160527 0.285691) 3046 5918 1
(0.340459 0.164049 0.334897 0.160595) 3023 5909 2
(0.189251 0.110508 0.291617 0.408625) 3022 5868 2
(0.0283202 0.482681 0.107387 0.381612) 3003 5831 1
(0.450227 0.212809 0.0532102 0.283753) 2987 5800 2
(0.0606795 0.0397538 0.470438 0.429128) 2940 5748 2
(0.63167 0.0826709 0.184255 0.101403) 2951 5733 2
(0.0804237 0.258692 0.460069 0.200815) 2920 5672 2
(0.412916 0.288023 0.111416 0.187645) 2903 5675 1
(0.178099 0.0846258 0.413771 0.323504) 2884 5638 2
(0.332932 0.327363 0.197465 0.14224) 2884 5599 1
(0.403955 0.051104 0.298026 0.246915) 2868 5571 2
(0.275161 0.314098 0.362421 0.0483205) 2845 5526 2
(0.194307 0.402846 0.105181 0.297666) 2822 5481 1
(0.480642 0.0663284 0.261752 0.191278) 2803 5480 2
(0.0690909 0.330552 0.118375 0.481982) 2809 5453 2
(0.730527 0.134516 0.0757321 0.0592243) 2680 96690 2
(0.19585 0.273593 0.128482 0.402075) 2763 5364 2
(0.556137 0.213493 0.112232 0.118138) 2753 5383 1
(0.000196825 0.0209003 0.479001 0.499902) 2757 5353 2
(0.0277984 0.0240032 0.486101 0.462098) 2723 5288 2
(0.247411 0.299453 0.0661468 0.386989) 2705 5250 2
(0.856507 0.0717464 0.0432828 0.0284635) 2640 5126 1
(0.408629 0.295686 0.20606 0.0896261) 2666 5175 1
(0.49399 0.224244 0.259234 0.0225318) 2641 5164 2
(0.239676 0.134211 0.23985 0.386262) 2648 5139 2
(0.689845 0.018019 0.136366 0.155771) 2626 5096 2
(0.339563 0.330219 0.139923 0.190296) 2608 5062 1
(0.713491 0.107531 0.149975 0.0290034) 2611 5106 2
(0.12312 0.415316 0.0915749 0.36999) 2592 5069 1
(0.184604 0.401822 0.188028 0.225546) 2584 5014 1
(0.542375 0.127659 0.0962433 0.233723) 2566 4979 2
(0.862824 0.068588 0.0109882 0.0575999) 2545 4939 1
(0.166748 0.416626 0.376594 0.0400318) 2529 4910 1
(0.250837 0.231262 0.124047 0.393853) 2533 4915 2
(0.254354 0.243014 0.129809 0.372823) 2511 4873 2
(0.0929048 0.453548 0.302897 0.150651) 2484 4820 1
(0.110639 0.162953 0.454865 0.271543) 2471 4833 2
(0.568945 0.211811 0.126367 0.0928773) 2463 4778 1
(0.264017 0.367992 0.0863549 0.281637) 2447 4750 1
(0.273666 0.353935 0.095449 0.27695) 2425 4743 1
(0.392598 0.303562 0.298292 0.0055481) 2400 4695 1
(0.0576106 0.295049 0.176146 0.471195) 2404 4679 2
(0.0604795 0.466519 0.346013 0.126989) 4020 7854 1
(0.639211 0.180328 0.0282142 0.152246) 4060 96621 2
(0.662993 0.164803 0.0242061 0.147997) 4040 7893 1
(0.217451 0.388607 0.289379 0.104563) 4021 7855 1
(0.467779 0.129775 0.136663 0.265783) 4002 7780 2
(0.706402 0.0421016 0.146693 0.104803) 4105 7983 2
(0.591389 0.00565696 0.204291 0.198662) 4064 7903 2
(0.644611 0.175789 0.0683382 0.111261) 3982 7740 1
(0.584955 0.034288 0.173318 0.207439) 4003 7782 2
(0.100606 0.450831 0.0714997 0.377064) 3962 7704 1
(0.601152 0.199706 0.112855 0.0862875) 4099 7970 1
(0.785631 0.0495115 0.0577945 0.107063) 4047 7868 2
(0.794785 0.102856 0.000137208 0.102221) 4011 7800 1
(0.374136 0.294911 0.00937029 0.321583) 3902 7584 2
(0.980034 0.00569721 0.0102202 0.00404818) 3967 7750 2
(0.39335 0.299064 0.119301 0.188285) 3946 7670 1
(0.609209 0.148445 0.0473041 0.195042) 3950 7679 2
(0.0603374 0.0567381 0.471604 0.41132) 3883 7586 2
(0.358268 0.320302 0.015379 0.306051) 3885 7551 1
(0.190547 0.396266 0.270747 0.142441) 3884 7549 1
(0.826166 0.064586 0.0905053 0.0187431) 3910 7639 2
(0.299382 0.34752 0.0725095 0.280588) 3907 7594 1
(0.284713 0.223578 0.0968024 0.394907) 3916 7612 2
(0.435203 0.2828 0.110259 0.171738) 3866 7517 1
(0.224484 0.383236 0.228935 0.163345) 3762 7350 1
(0.156409 0.0734511 0.427042 0.343098) 3832 7487 2
(0.382802 0.30862 0.0144346 0.294143) 3763 7314 1
(0.326597 0.258598 0.351068 0.0637373) 3810 7444 2
(0.212079 0.314803 0.433311 0.0398067) 3815 7454 2
(0.203394 0.230164 0.1684 0.398041) 3742 7273 2
(0.353221 0.18537 0.333688 0.127721) 3770 7366 2
(0.0494589 0.398571 0.0642441 0.487726) 3743 7274 2
(0.489764 0.255173 0.0518955 0.203168) 3748 7285 1
(0.494904 0.250654 0.0687337 0.185708) 3702 7194 1
(0.433702 0.272517 0.255184 0.0385983) 3748 7284 1
(0.0101915 0.495185 0.436433 0.0581906) 3729 7248 1
(0.289448 0.335115 0.0528614 0.322575) 3712 7253 1
(0.532367 0.226844 0.0594927 0.181297) 3707 7243 1
(0.118714 0.421055 0.0684775 0.391753) 3690 7210 1
(0.421788 0.289029 0.142093 0.14709) 3670 7135 1
(0.410832 0.294471 0.214847 0.0798502) 3666 7125 1
(0.635103 0.179713 0.0929983 0.0921853) 3623 7040 1
(0.288651 0.344488 0.143126 0.223736) 3610 7054 1
(0.188382 0.392667 0.367995 0.0509573) 3626 7046 1
(0.5492 0.225406 0.224816 0.000577844) 3561 6922 1
(0.279536 0.359718 0.247161 0.113584) 3593 6983 1
(0.0645569 0.467321 0.193065 0.275057) 3586 6969 1
(0.0785047 0.205793 0.461259 0.254442) 3563 6926 2
(0.951843 0.0234669 0.0149056 0.0097844) 3552 6941 1
(0.0355271 0.46985 0.346817 0.147805) 3566 6929 1
(0.0386918 0.479601 0.315189 0.166518) 3527 6854 1
(0.150895 0.360658 0.425917 0.0625294) 3507 6817 2
(0.419382 0.290015 0.0703485 0.220255) 3485 6772 1
(0.359661 0.319262 0.196734 0.124344) 3463 6729 1
(0.202135 0.116425 0.281965 0.399475) 3465 6733 2
(0.340749 0.21172 0.111473 0.336058) 3462 6726 2
(0.400131 0.299878 0.0563872 0.243604) 5124 9981 1
(0.403374 0.298089 0.0134938 0.285043) 5083 9898 1
(0.672646 0.159414 0.0349516 0.132988) 5064 9900 1
(0.326421 0.33458 0.0400153 0.298983) 5147 10026 1
(0.714038 0.136754 0.0299196 0.119289) 5149 10070 1
(0.0805668 0.439665 0.437408 0.0423598) 5108 9948 1
(0.0156994 0.256615 0.227903 0.499782) 5002 9736 2
(0.543811 0.173317 0.238921 0.0439497) 5070 9912 2
(0.228396 0.38124 0.247431 0.142933) 4964 9700 1
(0.0459483 0.1522 0.324626 0.477226) 4947 9627 2
(0.515772 0.208947 0.265335 0.00994693) 4976 9684 1
(0.253525 0.0273138 0.373208 0.345953) 4904 9543 2
(0.416939 0.191369 0.0951679 0.296524) 4500 8751 2
(0.290127 0.357365 0.0125583 0.339949) 4848 9432 1
(0.241844 0.379107 0.371496 0.00755245) 4823 9419 1
(0.466181 0.261502 0.265141 0.00717545) 4805 9348 2
(0.094529 0.45387 0.187094 0.264507) 4621 8987 1
(0.0763846 0.456434 0.281622 0.185559) 4682 9144 1
(0.048183 0.449681 0.473138 0.0289977) 4702 9147 2
(0.0450646 0.294203 0.475592 0.185141) 4745 9231 2
(0.0998028 0.444259 0.223548 0.23239) 4480 8751 1
(0.495762 0.253333 0.1915 0.0594049) 4726 9192 1
(0.664477 0.164713 0.12644 0.0443703) 4480 8712 1
(0.46456 0.0129974 0.25429 0.268153) 4643 9029 2
(0.0995582 0.198581 0.243366 0.458495) 4687 9115 2
(0.336196 0.321464 0.229639 0.112702) 4609 8963 1
(0.613484 0.0419233 0.193022 0.151571) 4610 8968 2
(0.412314 0.287076 0.189466 0.111144) 4566 8879 1
(0.0222851 0.475219 0.0127961 0.489699) 4502 8793 1
(0.685737 0.15729 0.126821 0.0301518) 4503 8759 1
(0.261104 0.360797 0.328029 0.0500695) 4461 8674 1
(0.34414 0.303001 0.00385549 0.349003) 4553 8893 1
(0.255213 0.370991 0.0476787 0.326117) 4503 8756 1
(0.140712 0.32562 0.441856 0.091811) 4505 8799 2
(0.751886 0.099581 0.0194971 0.129036) 4529 8807 2
(0.122699 0.0581674 0.438338 0.380795) 4557 8865 2
(0.0441191 0.108995 0.477381 0.369506) 4485 8724 2
(0.328797 0.242889 0.334372 0.0939417) 4464 8683 2
(0.384359 0.303302 0.176777 0.135562) 4405 8604 1
(0.206637 0.391655 0.130682 0.271026) 4427 8608 1
(0.797781 0.0971504 0.025889 0.0791793) 4410 8614 1
(0.0392316 0.299553 0.172016 0.4892) 4382 8520 2
(0.855379 0.0671671 0.0157318 0.0617223) 4414 8622 1
(0.514087 0.087261 0.246313 0.152339) 4366 8528 2
(0.0195587 0.486004 0.0927683 0.401669) 4389 8534 1
(0.152526 0.425099 0.133913 0.288462) 4300 8363 1
(0.67121 0.00598371 0.164367 0.158439) 4344 8449 2
(0.271825 0.364715 0.206579 0.156882) 4302 8367 1
(0.143143 0.42898 0.309252 0.118625) 4332 8426 1
(0.699401 0.13415 0.149689 0.0167601) 4307 8377 2
(0.0878286 0.350801 0.0917928 0.469578) 4286 8333 2
(0.176667 0.404069 0.151947 0.267317) 4270 8302 1
(0.26983 0.157916 0.391405 0.180849) 4256 8314 2
(0.771012 0.0177229 0.115127 0.0961381) 4225 8253 2
(0.54008 0.2091 0.0217571 0.229063) 4213 8192 2
(0.0393287 0.408084 0.0602896 0.492298) 4162 8091 2
(0.262898 0.368828 0.108416 0.259858) 4144 8057 1
(0.473999 0.252084 0.26236 0.0115569) 4145 8061 2
(0.22329 0.2085 0.180385 0.387826) 4143 8055 2
(0.723411 0.138638 0.0025393 0.135412) 4128 8028 1
(0.0353694 0.163424 0.319077 0.48213) 47557 94434 2
(0.404366 0.298106 0.26715 0.0303782) 47558 94436 1
(0.166795 0.250529 0.416342 0.166334) 47645 94612 2
(0.170407 0.40817 0.414331 0.00709248) 47643 94608 2
(0.119218 0.440112 0.180617 0.260053) 47737 94794 1
(0.100323 0.450093 0.395995 0.0535893) 47737 94794 1
(0.353039 0.323541 0.0518431 0.271577) 47774 94868 1
(0.187207 0.405867 0.384884 0.0220418) 47779 94965 2
(0.637524 0.151678 0.175163 0.0356351) 47869 95145 2
(0.00930611 0.495653 0.391433 0.103608) 47915 95150 1
(0.400885 0.225971 0.290681 0.0824625) 47869 95145 2
(0.556976 0.197352 0.0243391 0.221334) 47954 95228 2
(0.563489 0.224452 0.0267289 0.18533) 47958 95323 1
(0.0599227 0.0669245 0.403176 0.469976) 47997 95314 2
(0.888478 0.0584415 0.0131323 0.039948) 47998 95403 1
(0.00519221 0.497831 0.0785737 0.418403) 47994 95310 1
(0.0891727 0.455432 0.313276 0.142119) 48181 95684 1
(0.596907 0.0398036 0.16205 0.201239) 48136 95592 2
(0.100497 0.44993 0.231166 0.218407) 48265 95852 1
(0.143075 0.428234 0.0036181 0.425073) 48355 96029 1
(0.744516 0.127716 0.0488166 0.0789514) 48441 96204 1
(0.0463271 0.164446 0.467051 0.322176) 48482 96381 2
(0.208406 0.10674 0.395414 0.28944) 48529 96395 2
(0.70027 0.15023 0.0735279 0.0759718) 5366 10465 1
(0.049598 0.474798 0.164338 0.311266) 5366 10465 1
(0.00681051 0.104123 0.496757 0.39231) 5363 10461 2
(0.0538079 0.469473 0.131715 0.345004) 5343 10418 1
(0.900544 0.00921866 0.0396526 0.0505848) 5352 10436 2
(0.278456 0.361037 0.331278 0.0292292) 5325 10385 1
(0.533346 0.233319 0.0705082 0.162827) 5330 10393 1
(0.168051 0.0219268 0.418251 0.391771) 5313 10398 2
(0.179821 0.400572 0.406198 0.0134088) 5282 10296 1
(0.416114 0.19324 0.29219 0.0984555) 5246 10227 2
(0.374986 0.0267081 0.284967 0.313339) 5184 10100 2
(0.267012 0.250291 0.375617 0.107079) 5165 10102 2
(0.647653 0.161402 0.17582 0.0151241) 5172 10079 2
(0.617467 0.0273081 0.163933 0.191292) 5163 10059 2
(0.0846653 0.203152 0.248732 0.463451) 5163 10058 2
(0.145249 0.191385 0.426591 0.236775) 43478 86278 2
(0.282722 0.363501 0.0634783 0.290298) 43344 86095 1
(0.740261 0.0132615 0.129733 0.116745) 43476 86274 2
(0.411709 0.294311 0.240778 0.0532017) 43387 86096 1
(0.0549989 0.489323 0.124623 0.331055) 43335 86077 1
(0.625959 0.187464 0.0740768 0.112501) 43379 86080 1
(0.267334 0.285803 0.0935601 0.353303) 43423 86165 2
(0.441637 0.279788 0.0593176 0.219257) 43379 86080 1
(0.310069 0.349303 0.149749 0.19088) 43603 86525 1
(0.241185 0.380701 0.0905751 0.287539) 43607 86533 1
(0.452128 0.226338 0.268289 0.0532445) 43559 86525 2
(0.630288 0.169105 0.0165062 0.1841) 43560 86440 2
(0.489032 0.0292158 0.226729 0.255024) 43696 86711 2
(0.988194 0.00618114 0.000880441 0.00474453) 43598 86603 1
(0.308588 0.0869286 0.344854 0.25963) 43594 86510 2
(0.244368 0.0242409 0.353128 0.378263) 43643 86606 2
(0.00403217 0.498601 0.195136 0.302231) 43735 86790 1
(0.0283064 0.0222649 0.465389 0.484039) 43685 86689 2
(0.442996 0.228195 0.0817709 0.247038) 43591 86501 2
(0.547795 0.226702 0.167048 0.0584544) 43594 86508 1
(0.108177 0.179588 0.428428 0.283807) 43593 86593 2
(0.772141 0.101617 0.102813 0.0234293) 43592 86591 2
(0.152013 0.270544 0.154464 0.422978) 43733 86786 2
(0.136056 0.298665 0.416624 0.148655) 43686 86779 2
(0.0268205 0.492649 0.0785056 0.402025) 43684 86687 1
(0.227755 0.425322 0.283589 0.0633341) 43589 86585 1
(0.397124 0.0354257 0.301296 0.266155) 43732 86786 2
(0.00160847 0.917012 0.0813755 4.27644e-06) 43632 141038 1
(0.616238 0.191819 0.0935744 0.0983687) 43731 86782 1
(0.794763 0.102444 0.102535 0.000258472) 43637 86681 1
(4.47751e-10 0.517528 0.482472 3.19398e-10) 43632 141038 1
(0.177031 0.377014 0.410102 0.0358536) 43680 86682 2
(0.529506 0.250759 0.174242 0.0454933) 43634 86675 1
(0.438849 0.282763 0.087178 0.19121) 43868 87055 1
(0.410929 0.184189 0.280748 0.124133) 43683 86773 2
(0.685512 0.16197 0.090792 0.061726) 43729 86865 1
(0.195228 0.210819 0.228274 0.365679) 43722 86763 2
(0.187524 0.406172 0.0928286 0.313475) 43679 86680 1
(0.163558 0.0101384 0.40924 0.417064) 43724 86767 2
(0.330019 0.066215 0.285043 0.318723) 43721 86761 2
(0.624619 0.0728682 0.183168 0.119345) 43728 86863 2
(0.0970512 0.434796 0.450089 0.0180637) 43721 86764 2
(0.401942 0.298896 0.0326398 0.266522) 43725 86770 1
(0.18269 0.187763 0.226725 0.402822) 43866 87051 2
(0.406073 0.216034 0.282514 0.0953793) 43772 86951 2
(0.397517 0.0855458 0.216187 0.30075) 43816 86952 2
(1.06452e-08 5.62175e-09 0.309114 0.690886) 43764 189730 2
(0.222059 0.389271 0.247555 0.141115) 43863 87046 1
(0.282068 0.360053 0.237608 0.120272) 43818 86956 1
(0.010019 0.16757 0.343182 0.47923) 43813 86945 2
(0.455443 0.276627 0.209854 0.058077) 43816 87039 1
(0.236324 0.00940341 0.372431 0.381841) 44093 87506 2
(0.0430699 0.479692 0.131406 0.345833) 43814 86950 1
(0.187601 0.101443 0.401735 0.309222) 43863 87133 2
(0.145907 0.426563 0.000981469 0.426548) 43862 87044 1
(0.561713 0.219065 0.0228184 0.196403) 43860 87040 1
(0.591387 0.204389 0.0744373 0.129787) 43853 87028 1
(0.243742 0.379064 0.26386 0.113334) 43858 87036 1
(0.683183 0.159718 0.0290204 0.128079) 43906 87131 1
(0.0744097 0.447043 0.424731 0.0538159) 43858 87123 2
(0.000722259 0.261958 0.737157 0.000162835) 43852 141258 1
(0.0874815 0.480938 0.172995 0.258585) 43900 87119 1
(0.82975 0.0228316 0.0639892 0.0834295) 43903 87125 2
(0.380343 0.0139297 0.309809 0.295919) 43900 87122 2
(0.637342 0.0425712 0.179479 0.140607) 43952 87311 2
(0.0891048 0.105073 0.455018 0.350804) 43946 87214 2
(0.775665 0.116232 0.0517085 0.0563938) 43948 87215 1
(0.144731 0.430685 0.0776688 0.346915) 44085 87489 1
(0.122844 0.181771 0.257782 0.437603) 43943 87206 2
(0.263938 0.347967 0.351479 0.0366156) 44039 87485 2
(0.356388 0.292145 0.0306622 0.320805) 44037 87394 2
(0.0861221 0.410973 0.0917394 0.411166) 44032 87383 2
(0.585772 0.214201 0.0676977 0.13233) 44034 87387 1
(0.0520845 0.440124 0.473181 0.0346105) 44180 87682 2
(5.56644e-07 0.607229 0.392771 1.65564e-07) 44028 141434 1
(0.716493 0.107676 0.141325 0.0345053) 44082 87486 2
(0.415328 0.292552 0.0202111 0.271908) 44035 87390 1
(0.450898 0.0403169 0.237385 0.271401) 44078 87475 2
(0.0723886 0.117094 0.431967 0.37855) 44029 87465 2
(0.186421 0.407091 0.172827 0.233661) 44082 87484 1
(0.338003 0.14848 0.182977 0.330539) 44080 87480 2
(0.632611 0.176142 0.18339 0.00785717) 44075 87472 2
(0.0205924 0.493911 0.250348 0.235148) 44073 87468 1
(0.352641 0.328844 0.0509941 0.26752) 44122 87563 1
(0.184732 0.407977 0.155808 0.251483) 44120 87560 1
(0.660705 0.0791251 0.091658 0.168512) 44355 88029 2
(0.0798337 0.461473 0.00441876 0.454274) 44169 87660 1
(0.473374 0.0584444 0.206661 0.261521) 44262 87843 2
(0.133171 0.466051 0.227538 0.17324) 44164 87647 1
(0.307644 0.346589 0.182133 0.163635) 44168 87656 1
(0.886746 0.0611604 0.0514353 0.000657977) 44166 87739 2
(0.143864 0.432203 0.383297 0.040636) 44166 87739 1
(0.290874 0.104897 0.258612 0.345617) 44210 87739 2
(0.236475 0.186057 0.372564 0.204904) 44259 87925 2
(0.801525 0.0991675 0.0438154 0.0554917) 44257 87834 1
(0.186887 0.315822 0.0920762 0.405214) 44254 87828 2
(0.547236 0.220265 0.226668 0.00583117) 44248 141654 1
(0.0154387 0.136201 0.365354 0.483006) 44300 87919 2
(0.0981687 0.124691 0.451119 0.326021) 44297 87916 2
(0.137447 0.363092 0.0753887 0.424072) 44491 88301 2
(7.77555e-10 1.1606e-10 0.179041 0.820959) 44292 190258 2
(0.590067 0.205266 0.0664234 0.138244) 44298 87918 1
(0.900609 0.0498639 0.0443279 0.00519946) 44491 88389 1
(0.355598 0.141332 0.296208 0.206863) 44294 87995 2
(0.473008 0.244843 0.242909 0.0392402) 44298 88003 2
(0.00538456 0.560941 0.35652 0.0771538) 44339 87997 1
(0.610789 0.194923 0.0776073 0.11668) 44346 88014 1
(0.394912 0.302635 0.259873 0.0425796) 44393 88108 1
(0.377024 0.311763 0.202184 0.109029) 44343 88008 1
(0.0146883 0.159704 0.48435 0.341257) 44346 88099 2
(0.192528 0.418224 0.278952 0.110295) 44391 88101 1
(0.487775 0.106173 0.25591 0.150142) 44438 88198 2
(0.146376 0.447242 0.203191 0.203191) 44336 88080 1
(3.04776e-07 0.928335 0.0716642 1.00115e-07) 44380 141786 1
(0.29078 0.0467525 0.308072 0.354396) 44387 88094 2
(0.327861 0.337025 0.247804 0.0873091) 44387 88094 1
(0.51339 0.246017 0.200684 0.0399097) 44388 88183 1
(0.491723 0.0937161 0.247207 0.167353) 44387 88181 2
(0.0718372 0.482469 0.0943742 0.351319) 44391 88189 1
(0.199689 0.76138 0.0177107 0.0212195) 44424 88168 1
(0.400495 0.264729 0.10252 0.232256) 44425 88169 2
(0.285226 0.239241 0.356639 0.118894) 44430 88182 2
(0.546553 0.0540465 0.223026 0.176374) 44432 88271 2
(0.163982 0.224994 0.417282 0.193742) 44470 88262 2
(0.69124 0.0883862 0.0661495 0.154225) 44479 88278 2
(0.795575 0.0670308 0.0355315 0.101863) 44480 88280 2
(0.644711 0.0720983 0.177404 0.105787) 44474 88270 2
(0.247459 0.376912 0.26829 0.107339) 44478 88276 1
(0.545389 0.227478 0.211222 0.0159108) 44713 88748 1
(0.371126 0.322827 0.162159 0.143888) 44522 88451 1
(0.540272 0.231768 0.203116 0.024843) 44521 88449 1
(0.347042 0.0162497 0.327053 0.309656) 44517 88356 2
(0.219611 0.261869 0.364577 0.153942) 44517 88441 2
(0.0592558 0.158667 0.312234 0.469843) 44565 88450 2
(0.27294 0.364324 0.0911564 0.271579) 44566 88454 1
(0.0464004 0.490792 0.286349 0.17646) 44520 88447 1
(0.288152 0.355952 0.0521454 0.303751) 44562 88444 1
(0.113471 0.270278 0.193742 0.422509) 44607 88533 2
(0.139583 0.0761175 0.355691 0.428608) 44845 89009 2
(0.129461 0.415442 0.0184932 0.436604) 44558 88436 2
(0.578441 0.00296575 0.207812 0.210781) 44606 88532 2
(0.180913 0.0372167 0.406549 0.375321) 44608 88623 2
(0.196453 0.402377 0.366992 0.0341789) 44562 88446 1
(0.409832 0.561621 0.0141006 0.0144465) 44644 88608 1
(0.514524 0.261123 0.0177486 0.206604) 44607 88621 1
(0.606816 0.207966 0.106279 0.0789391) 44604 88615 1
(0.812041 0.0212623 0.0755825 0.0911138) 44602 88524 2
(0.438636 0.291912 0.157862 0.11159) 44606 88619 1
(0.629053 0.181288 0.0212922 0.168367) 44649 88617 2
(0.856665 0.0729954 0.0395027 0.0308365) 44788 88983 1
(0.670398 0.114917 0.154866 0.0598184) 44650 88707 2
(0.234491 0.381112 0.149521 0.234876) 44601 88522 1
(0.018411 0.301347 0.48993 0.190312) 44886 89094 2
(0.578399 0.0300515 0.210837 0.180712) 44695 88712 2
(0.777426 0.111224 0.0321524 0.0791979) 44695 88710 1
(0.740317 0.137309 0.026478 0.095896) 44696 88799 1
(0.375818 0.201539 0.126161 0.296482) 44739 88797 2
(0.965135 0.00611301 0.0120022 0.0167495) 44736 88791 2
(0.19781 0.0396251 0.398938 0.363627) 44786 88979 2
(0.492425 0.0551768 0.20811 0.244287) 44778 88875 2
(0.21574 0.419638 0.0246428 0.339979) 44784 88975 1
(0.477933 0.261261 0.200581 0.0602251) 44830 88982 1
(0.633564 0.183161 0.181015 0.0022599) 44785 88977 1
(0.68662 0.156929 0.0544956 0.101955) 44877 89076 1
(0.707969 0.146137 0.0378874 0.108007) 44780 88880 1
(0.450949 0.27486 0.0793011 0.194889) 44921 89162 1
(0.161182 0.433278 0.0127548 0.392784) 44829 88977 2
(0.0231967 0.281801 0.487768 0.207234) 44869 89060 2
(0.181535 0.413794 0.133704 0.270967) 45010 89339 1
(0.473239 0.264151 0.0162804 0.246329) 44964 89247 1
(0.0593217 0.47033 0.0417365 0.428612) 44872 89064 1
(0.368184 0.316304 0.0924288 0.223084) 44919 89158 1
(0.263937 0.243035 0.125489 0.367539) 44915 89150 2
(0.0844282 0.00334151 0.454606 0.457624) 45006 89331 2
(0.381607 0.0988597 0.210596 0.308937) 45055 89430 2
(0.114408 0.643054 0.120938 0.1216) 44952 89224 1
(0.130196 0.291615 0.165404 0.412786) 45003 89325 2
(0.0767956 0.300997 0.447059 0.175148) 44963 89333 2
(0.0769116 0.470889 0.0915964 0.360603) 45002 89323 1
(0.779458 0.0767372 0.109804 0.0340013) 45006 89334 2
(0.492496 0.045249 0.214398 0.247858) 44999 89317 2
(0.822944 0.0902363 0.0558085 0.0310115) 45050 89507 1
(0.497373 0.210954 0.0570351 0.234638) 45047 89413 2
(0.362656 0.320285 0.28406 0.0329994) 45096 89599 1
(0.1605 0.424791 0.0529927 0.361716) 45091 89501 1
(0.409814 0.295403 0.240773 0.0540099) 45047 89416 1
(0.272225 0.374449 0.174219 0.179107) 45138 89595 1
(0.447734 0.242009 0.0350452 0.275211) 45137 89594 2
(0.0409054 0.419114 0.0933942 0.446586) 45179 89677 2
(0.353893 0.254564 0.086199 0.305344) 45180 89679 2
(0.187184 0.407326 0.0307928 0.374697) 45181 89684 1
(0.240142 0.207305 0.192937 0.359616) 45177 89673 2
(0.645804 0.185005 0.100155 0.0690354) 45180 89679 1
(0.0704734 0.176399 0.288799 0.464329) 45270 89860 2
(0.0694746 0.466461 0.015189 0.448876) 45317 89956 1
(0.660249 0.155469 0.0148737 0.169409) 45224 89768 2
(0.384095 0.313247 0.234691 0.0679659) 45224 89855 1
(0.0305885 0.067547 0.417168 0.484697) 45410 90140 2
(0.722765 0.138654 0.135606 0.00297495) 45329 89980 1
(0.0418385 0.479772 0.431224 0.0471657) 45316 89952 1
(0.343505 0.126014 0.328276 0.202205) 45315 89952 2
(0.345811 0.187831 0.13923 0.327129) 45315 89950 2
(0.0280234 0.443993 0.451286 0.076697) 45267 89941 2
(0.0480932 0.207583 0.475691 0.268633) 45372 90066 2
(0.426998 0.277203 0.0307353 0.265064) 45311 89941 2
(0.19997 0.400402 0.0952929 0.304336) 45374 90068 1
(0.440392 0.279802 0.0167646 0.263041) 45315 89950 1
(0.422321 0.0621814 0.288708 0.226789) 45311 89944 2
(0.431568 0.297103 0.0799442 0.191385) 45313 90033 1
(0.395397 0.307636 0.0101034 0.286863) 45359 90037 2
(0.383196 0.316025 0.0817737 0.219005) 45354 90027 1
(0.532473 0.0224555 0.232434 0.212637) 45357 90121 2
(0.000736342 0.0416001 0.499632 0.458032) 45399 90120 2
(0.891309 0.0543172 0.0275546 0.0268189) 45448 90218 1
(0.227782 0.387149 0.012913 0.372156) 45447 90213 1
(0.401318 0.123045 0.294231 0.181405) 45449 90305 2
(0.000594757 0.500048 0.00358971 0.495768) 45443 90205 1
(0.237113 0.388243 0.0822051 0.292439) 45444 90207 1
(0.744976 0.102816 0.0249572 0.12725) 45446 90212 2
(0.545981 0.242174 0.12487 0.0869744) 45439 90285 1
(0.254247 0.0378536 0.369563 0.338336) 45442 90291 2
(0.00114942 0.263271 0.236934 0.498645) 45488 90296 2
(0.0305078 0.494553 0.442101 0.0328376) 45549 90417 1
(0.255801 0.37194 0.221205 0.151054) 45486 90292 1
(0.307175 0.346445 0.333907 0.0124727) 45486 90294 1
(0.151132 0.425517 0.0337608 0.38959) 45581 90481 1
(0.288582 0.356142 0.187873 0.167403) 45530 90382 1
(0.520401 0.0593212 0.237252 0.183026) 45580 90567 2
(0.319298 0.202816 0.145327 0.332559) 45625 90569 2
(0.142514 0.436822 0.0867327 0.333931) 45575 90469 1
(0.505211 0.278427 0.216137 0.00022517) 45572 90463 1
(0.195057 0.404827 0.360553 0.0395635) 45576 90559 1
(0.952296 0.024592 0.000134112 0.0229778) 45671 90749 1
(0.405162 0.189885 0.118353 0.2866) 45666 90651 2
(0.117798 0.461737 0.254461 0.166004) 45708 90735 1
(0.281516 0.371425 0.343311 0.0037476) 45758 90835 1
(0.494702 0.253886 0.0131794 0.238232) 45708 90735 1
(0.618003 0.158903 0.0324965 0.190598) 45706 90732 2
(0.910115 0.0135724 0.0320541 0.044258) 45757 90833 2
(0.128135 0.44112 0.38844 0.042305) 45705 90817 1
(0.103027 0.452069 0.0572356 0.387668) 45754 90827 1
(0.564751 0.223644 0.139874 0.0717306) 45752 90911 1
(0.406239 0.26613 0.04092 0.28671) 45801 90921 2
(0.110613 0.236949 0.208309 0.444129) 45795 90910 2
(0.442892 0.222249 0.0565536 0.278305) 45797 90914 2
(0.358018 0.323653 0.0549502 0.263378) 45844 91007 1
(0.852501 0.0303573 0.0451079 0.0720342) 45841 91001 2
(0.456522 0.271928 0.0533128 0.218237) 45885 91092 1
(0.43799 0.281885 0.276997 0.00312929) 45886 91092 1
(0.16423 0.418839 0.233965 0.182966) 45883 91088 1
(0.457761 0.271623 0.184468 0.0861482) 45940 91200 1
(0.434553 0.283264 0.27841 0.00377354) 45933 91186 1
(0.0716984 0.814621 0.0568022 0.056878) 45920 91248 1
(0.555837 0.232276 0.18342 0.0284673) 45975 91269 1
(0.650133 0.181268 0.0578767 0.110722) 45975 91357 1
(0.185243 0.419083 0.208364 0.18731) 46019 91357 1
(0.548955 0.200565 0.0249968 0.225483) 46018 91356 2
(0.662533 0.151457 0.168415 0.0175947) 46009 91340 2
(0.438542 0.281238 0.145555 0.134666) 46017 91354 1
(0.21647 0.379623 0.327341 0.0765661) 46010 91427 2
(0.0335731 0.483596 0.00210891 0.480722) 46018 91356 1
(0.688496 0.165812 0.0519725 0.0937197) 46058 91523 1
(0.0850531 0.466939 0.172382 0.275627) 46066 91539 1
(0.576012 0.212125 0.117423 0.0944397) 42121 83564 1
(0.099236 0.45898 0.365531 0.0762531) 42388 84095 1
(0.819952 0.0413025 0.0488505 0.0898954) 41817 82954 2
(0.0944305 0.137961 0.452281 0.315327) 42607 84536 2
(0.103733 0.114856 0.445998 0.335413) 42347 84101 2
(0.0145789 0.493052 0.380147 0.112222) 42516 84354 1
(0.747042 0.0122067 0.126189 0.114562) 42692 84791 2
(0.514732 0.247484 0.0288179 0.208966) 42648 84703 1
(0.655919 0.175111 0.139303 0.0296668) 43439 86197 1
(0.214587 0.393715 0.341661 0.0500376) 41808 83023 1
(0.292638 0.353918 0.013708 0.339736) 41853 83026 1
(0.165704 0.420543 0.236736 0.177017) 41762 82931 1
(0.00354554 0.143354 0.355712 0.497389) 41837 82994 2
(0.283752 0.361699 0.349192 0.00535783) 41843 83093 2