/*--------------------------------*- C++ -*----------------------------------*\
  =========                 |
  \\      /  F ield         | OpenFOAM: The Open Source CFD Toolbox
   \\    /   O peration     | Website:  https://openfoam.org
    \\  /    A nd           | Version:  7
     \\/     M anipulation  |
\*---------------------------------------------------------------------------*/
FoamFile
{
    version     2.0;
    format      ascii;
    class       scalarField;
    location    "0.15/lagrangian/reactingCloud1";
    object      tTurb;
}
// * * * * * * * * * * * * * * * * * * * * * * * * * * * * * * * * * * * * * //


1205
(
0.00206135
0.0010197
0.0003275
0.0015952
0.00132455
0.006297
0.00255705
0.0022647
0.00040235
0.0024065
0.006129
0.001105
0.006153
0.003304
0.00546505
0.006033
0.006009
0.005961
0.000467641
0.00080866
0.0023222
0.005841
0.005793
0.00214124
0.0013702
0.000849135
0.005769
0.000737776
0.005649
0.00055485
0.0021762
0.0055878
0.005601
0.005673
0.005577
0.00178078
0.00183352
0.00211424
0.00174105
0.005481
0.00109135
0.000385
0.00158061
0.000289
0.00116755
0.005361
0.0026997
0.00169674
0.00037105
0.00099955
0.00140419
0.0002185
0.005193
0.00056655
0.005097
0.001678
0.0013035
0.0014315
0.001226
0.005049
0.000803
0.004977
0.004953
0.000643323
0.001593
0.001569
0.001545
0.001521
0.001497
0.00031555
0.001449
0.001425
0.001401
0.001377
0.001353
0.001329
0.001305
0.001281
0.001257
0.001233
0.001209
0.001185
0.001161
0.001137
0.001113
0.001089
0.001065
0.001041
0.001017
0.000993
0.000969
0.000945
0.000921
0.000897
6.4e-05
0.000849
0.00024905
0.000801
0.000777
0.000753
0.000729
0.000705
0.000681
0.000657
0.000633
1.81195e-05
0.000585
0.000561
0.000537
0.000513
0.000489
0.000465
0.000441
0.000417
0.000393
0.000369
0.000345
0.000344625
0.000321
0.000297
0.000273
0.000249
0.000225
0.000201
0.000177
0.000153
0.000129
0.000105
8.1e-05
5.7e-05
3.3e-05
9e-06
0.000136725
0.0006212
0.0006662
0.00153617
0.0008652
0.002841
0.002793
0.000623674
0.002745
0.00011581
0.002673
0.002697
0.002577
0.0003225
0.002553
0.002529
0.00248063
0.002505
0.002056
0.002457
0.002409
0.002433
0.002361
0.002385
0.00173705
0.002265
0.002289
0.002241
0.002217
0.0012167
0.002169
0.002193
0.002145
0.00146555
0.002121
0.002097
0.002049
0.002073
0.002025
0.001977
0.002001
0.001953
0.001881
0.001905
0.000498142
0.001833
0.001857
0.001809
0.001761
0.001785
0.001737
0.001689
0.001665
0.001641
0.001617
0.00113705
0.000485824
0.000233
0.000178839
0.000144597
0.00404063
0.004017
0.000422
0.003945
0.000322001
0.003897
0.003777
3.95e-05
0.0006505
0.003753
0.003291
0.003801
0.00130235
0.0019692
8.1e-05
0.003729
3.7e-05
0.003705
0.000327
0.0018252
0.003609
0.003489
0.003465
0.003513
0.00119079
0.003561
0.00173435
0.003369
0.003585
0.0030437
0.003393
0.003321
0.003417
0.003441
0.003345
0.003297
0.003225
0.0024815
0.003177
0.003249
0.003201
0.000570197
0.003273
0.00231655
0.003081
0.003129
0.003105
0.003009
0.002937
0.003057
0.002889
0.00173907
0.002985
0.002913
0.003033
0.002817
0.004857
0.004881
0.004809
0.004761
0.0011845
0.000956514
0.004641
0.000682832
0.000874599
0.00101265
0.000895533
0.004617
0.0008862
0.004569
0.004593
0.004521
0.000864
0.000805
0.0009302
0.000698817
0.000789636
0.004329
0.0007382
0.000429516
0.0006775
2.05e-05
0.000435183
0.004161
0.000644732
0.004185
0.004113
0.000451202
0.000350133
0.0005222
0.0003605
0.003993
0.000264641
0.000965717
0.00204605
0.000465
0.00259385
0.00572505
0.00397385
0.0006747
0.00020985
0.00349635
0.0033885
0.0011237
0.00536105
0.00337785
0.00081035
0.00408405
0.0002032
0.00203735
0.0047737
0.00105505
0.0035831
0.003067
0.0019462
0.0035575
0.00223185
0.0019822
0.00235205
0.00119705
0.0019787
9.65555e-06
0.00027455
0.000604
0.00243471
0.0023582
0.00626935
0.0006852
0.00331105
0.00027685
0.002752
0.00268456
0.00381565
0.000907724
0.0031045
0.000859671
0.000302798
0.00381005
0.00371405
0.00367855
0.0032495
0.00329455
0.0032095
0.004241
0.00050005
0.00243005
0.0007442
0.0012952
0.00367385
0.0016967
0.00755
0.004025
0.00332705
0.0015877
0.00151121
0.00411812
0.00215203
0.00459135
0.00281585
0.00094035
0.00021605
0.00367085
0.00698085
0.00113805
0.00234635
0.00289851
0.00065235
0.0038505
0.000159997
0.00024205
0.00062835
0.00421885
0.00273707
0.00152605
0.0010622
0.0008487
0.0020862
0.00198635
0.00128085
0.000250625
0.0032912
0.0008372
0.00186258
0.002536
0.00141516
0.003089
0.003065
0.0004375
0.00292255
0.001566
0.00328635
0.0035102
0.0041847
0.00041385
0.00304953
0.00092385
0.0014105
0.006645
0.0020855
0.0001767
0.0025632
0.001564
0.00334335
1.27e-05
0.0015547
0.00062955
0.009705
0.00213853
0.0001477
0.0033787
0.0020845
0.00260222
0.00019205
0.00224722
0.009561
0.00115078
0.00227601
0.009441
0.00220355
0.0023475
0.00300735
0.00076485
0.000114286
0.0010597
0.00229405
0.00284785
0.00592555
0.00093035
0.00088235
0.000844205
0.004153
0.00089835
0.00215469
0.0052795
0.00133523
0.00274955
0.00267135
0.0053655
0.00062305
3.22079e-05
0.00535018
0.00259935
0.00542223
0.00131935
0.00255135
0.00635324
0.00095105
0.00247935
0.00311435
0.00059635
0.003769
0.008793
0.00035355
0.008697
0.003697
0.00271155
0.00292235
0.00274067
0.008673
0.00094485
0.0001975
0.000720179
0.00054105
0.00096505
0.003457
0.0007312
0.00261035
0.00086655
0.00178605
0.000851009
0.00481779
0.00042605
0.000451529
0.00036205
0.008217
0.00235965
0.00166335
0.0019862
0.000929
0.0020867
0.00067735
0.000313034
0.000761
0.002857
0.00080355
0.007881
0.00139935
0.00017855
0.00017555
0.002737
0.00127935
0.0032327
0.001252
0.00058505
0.00112978
0.00227832
0.000497
2e-05
0.000473
0.00058635
0.0010582
0.00381266
0.00047505
0.0009307
0.0061212
0.00356601
0.00364032
0.00038105
0.00084355
0.0009147
0.000235292
0.00157835
0.00024635
0.007305
0.007329
0.00150635
0.00345105
0.00369884
0.007257
0.00079005
0.007185
0.00131119
0.0007997
0.007161
0.007113
0.003627
0.00200428
0.001953
0.00046335
7.585e-05
0.00043935
0.006897
0.00158755
0.006849
0.003078
0.001801
0.0012855
0.006777
0.001705
0.0012625
0.001689
0.00315084
0.00243955
0.00311335
0.00356284
0.00132155
0.000723203
0.002778
0.0019327
0.00229555
0.00224755
0.006393
0.001377
0.006369
0.0027323
0.006345
0.0003512
0.00126905
0.00380605
0.00758485
0.00772385
0.00778805
0.0069385
0.00723335
0.00752505
0.0055607
0.0047807
0.0053792
0.0040482
0.00212235
0.00064655
0.00253405
0.00302755
0.00454935
0.0041427
0.0055192
0.0023112
0.0038517
0.00603055
0.0008357
0.0054182
0.0041817
0.00129435
0.00535235
0.00266385
0.00579535
0.0023657
0.0014502
0.0020777
0.0064562
0.0068272
0.0011105
0.00236805
0.0010185
0.00520755
0.001045
0.00023205
0.0063125
0.00276935
0.00409504
0.0038112
0.00173855
0.0048537
0.00189655
0.0033525
0.002824
0.00208185
0.0048867
0.0046337
0.0046967
0.0024865
0.00493805
0.004543
0.0039647
0.00056755
0.00309735
0.00230955
0.00202405
0.0004467
0.0044215
0.00127455
0.00040535
0.00525755
0.00569435
0.0019337
0.00072755
0.00365735
0.0045747
0.00461635
0.00187735
0.00755205
0.0051055
0.00222925
0.0008277
0.00255155
0.00290655
0.00180585
0.0040275
0.00190873
0.00726505
0.00319035
0.0040922
0.00065855
0.0017212
0.00573985
0.00164611
0.00370155
0.00306055
0.00317105
0.00439961
0.0040202
0.00258355
0.0010542
0.00149905
0.00213135
0.0007297
0.0052875
0.00094405
0.00138655
0.00214485
0.00343975
0.00537135
0.00359135
0.00412185
0.006126
0.0021955
0.0036712
0.00303735
0.00034585
0.00157805
0.0025527
0.00455153
0.0011572
0.00305605
0.000756776
0.00145105
0.00569635
0.0038585
0.00312655
0.0026655
0.00291005
0.00254685
0.00374222
0.0026157
0.00136085
0.00294619
0.00330598
0.0023955
0.00295885
0.0034
0.000156213
0.0057225
0.00302813
0.00236405
0.0044052
0.0043962
0.00254508
0.00115805
0.00068555
0.00279071
0.0007972
0.0040802
0.005308
0.00631005
0.000665
0.0047002
0.00260035
0.0049257
0.0040212
0.00375585
0.00265705
0.00153405
0.0027705
0.00347305
0.00486474
0.0003287
0.001571
0.00639
0.0037975
0.00305255
0.0033827
0.00319835
0.00260155
0.00335935
0.00156405
0.0055527
0.00466885
0.00478881
0.000420579
0.0033592
0.00219285
0.00265222
0.00353385
0.0044667
0.000741594
0.00269055
0.0047862
0.00288635
0.00128
0.00062105
0.0021977
0.0013232
0.0029072
0.000862551
0.000538702
0.00459105
0.00098155
0.00152173
0.0032165
0.00437355
0.0050727
0.00147935
0.00302005
0.00100435
0.000235
0.00330605
0.0029157
0.0017072
0.0039162
0.00322905
0.00303855
0.000180717
0.00092921
0.00377135
0.00370005
0.0035737
0.0014012
0.00109405
0.00557855
0.00166435
0.00152155
0.00397405
0.00509619
0.00284537
0.0046837
0.0016417
0.00104035
0.00317585
0.00137905
0.00077235
0.0008087
0.000882497
0.00075355
0.00050385
0.0016777
4.47e-05
0.0034087
0.004921
0.0054197
0.0022092
0.00191535
0.0047817
0.00352655
0.00071385
0.00131671
0.00354205
0.00420755
0.0021862
0.00037585
0.004869
0.0027617
0.00483055
0.00459285
0.00716008
8.91818e-05
0.0042302
0.00144135
0.00803621
0.005118
0.00247785
0.004624
0.0045493
0.00049005
0.00020985
0.0036807
0.00173335
0.000279245
0.0038312
0.00445155
0.002841
0.0006532
0.00195705
0.00165435
0.00254855
0.00367505
0.0037262
0.00275005
0.00093685
0.00222905
0.00274175
4.53603e-06
0.00282105
0.00416305
0.004777
0.00227672
0.00167585
0.0031287
0.0022082
0.00540321
0.00365558
0.00348255
0.0033992
0.00362363
0.0044277
0.0035795
0.00559035
0.0016612
0.00513805
0.0005982
0.004313
0.002854
0.00332085
0.0018962
0.00234559
0.0010675
0.00342202
0.00329685
0.000379
0.006738
0.0029065
0.0025767
0.003148
0.0024327
0.00431823
0.00050955
0.0032322
0.0047782
0.00863485
0.00715185
0.0090145
0.0113702
0.0116294
0.0090775
0.00753
0.00561155
0.0104141
0.00713421
0.00941705
0.0094375
0.0072445
0.00604762
0.007326
0.00590505
0.00936159
0.0071407
0.005828
0.0114395
0.0100111
0.00957655
0.00773055
0.00861382
0.00752435
0.000859996
0.0010137
0.0102509
0.0103844
0.00936442
0.0103709
0.00564414
0.000703567
0.0062635
0.00639035
0.001358
0.000311993
0.0067527
0.00867955
0.00459831
0.0021482
0.00431955
0.00947639
0.00772835
0.0030162
0.00410235
0.00404535
0.008419
0.00672835
0.00594555
0.0052517
0.0104576
0.000510791
0.00405432
0.005379
0.00097285
0.00374535
0.00679985
0.00340571
0.0006772
0.00237767
0.00074205
0.0044927
0.0069392
0.0062947
0.002368
0.00163967
0.00078305
0.0105621
0.0027097
0.0073745
0.0043812
0.00385737
0.003514
0.005286
0.00368366
0.00352005
0.0101514
0.0020272
0.0053792
0.00771355
0.0101207
0.0042242
0.0101221
0.0094005
0.00353359
0.00524305
0.0023082
0.00442205
0.00522948
0.00365005
0.00850635
0.00293185
0.00280198
0.00127097
0.00933855
0.0010962
0.00019355
0.00435335
0.00815537
0.00632355
0.00201905
0.00130468
0.00598906
0.00391435
0.00652085
0.00603255
0.0098212
0.00777979
0.00255099
0.00249218
0.00132971
0.00904785
0.007709
0.00751855
0.00485305
0.00307993
0.00554585
0.0061272
0.00714405
0.00588653
0.0069495
0.00085555
0.00351155
0.00926635
0.00923685
0.00764855
0.00502632
0.0046422
0.00721332
0.00292273
0.00210005
0.0082232
0.0059352
8.505e-05
0.00118066
0.00507705
0.00320205
0.0023382
0.0029665
0.0087885
0.0067965
6.87017e-05
0.005948
0.000554559
0.00502205
0.00871564
0.00690685
0.00336851
0.001795
0.0007055
0.00534055
0.00244455
0.0084982
0.00519885
0.00694805
0.00148771
0.00911055
0.002157
0.0082497
0.00316901
0.001553
0.00847005
0.00754705
0.00160755
0.0089727
0.00493155
0.00239178
0.002426
0.0069147
0.004172
0.00367035
0.00693929
0.00594255
0.0052272
0.00735033
0.0045025
0.00702255
0.00035905
0.00758626
0.00061005
0.00217113
0.0057712
0.00853035
0.00115007
0.0021162
0.000391
0.00863905
0.00630485
0.00137847
4.32e-05
0.003583
0.0062042
0.00809935
0.0060875
0.0027312
0.00877685
0.00570385
0.00778785
0.00785705
0.00643035
0.00701155
0.00498123
0.00146485
0.0012067
0.001146
0.0019972
0.0017485
0.00687154
0.00663155
0.0064785
0.00447185
0.0055682
0.0031942
0.0057222
0.0058017
0.0046032
0.00714208
0.0011567
0.0004675
0.00609605
0.00475655
0.005845
0.00179505
0.0074807
0.0060007
0.00513585
0.0015169
0.00727535
0.00566385
0.00536885
0.00606055
0.0072235
0.00578585
0.0035732
0.00612335
0.00430755
0.00339655
0.00650705
0.00748805
0.00750905
0.0016877
0.0051817
0.0075367
0.00498305
0.00382005
0.00261876
0.0019392
0.00105255
0.003807
0.00582735
0.00629835
0.0074575
0.0075532
0.00176705
0.005607
0.0006922
0.00421085
0.00451185
0.00318605
0.0053795
0.00237135
0.0029372
0.00543535
0.00222498
0.00248905
0.002326
0.0107761
0.006779
0.00398055
0.0052152
0.0053212
0.0024527
0.0048062
0.00218541
0.00721435
0.00520135
0.00512435
0.00141
0.00162505
0.0065697
0.002502
0.00535385
0.00714053
0.00238871
0.0055747
0.0039882
0.00340414
0.0045157
0.00722185
0.0065057
0.00176255
0.0059307
0.00523373
0.00642485
0.00216885
0.00467281
0.00483455
0.00373949
0.00552903
0.004598
0.00050205
0.001492
0.0036552
0.0035473
0.00525085
0.00760235
0.0037987
0.00459555
0.006403
0.00338305
0.00503185
0.0195929
0.0173179
0.0191751
0.0197682
0.0123737
0.0166931
0.0196609
0.0160816
0.00569481
0.0139897
0.00989685
0.00572005
0.00901205
0.00737255
0.00703505
0.0113879
0.0129502
0.0084992
0.0120294
0.0125049
0.0104347
0.00950555
0.0091237
0.0172952
0.0024945
0.00648405
0.00597435
0.0102534
0.0102314
0.0051907
0.00478005
0.00886635
0.0108481
0.0087382
)


// ************************************************************************* //
