/*--------------------------------*- C++ -*----------------------------------*\
  =========                 |
  \\      /  F ield         | OpenFOAM: The Open Source CFD Toolbox
   \\    /   O peration     | Website:  https://openfoam.org
    \\  /    A nd           | Version:  7
     \\/     M anipulation  |
\*---------------------------------------------------------------------------*/
FoamFile
{
    version     2.0;
    format      ascii;
    class       vectorField;
    location    "0.15/lagrangian/reactingCloud1";
    object      U;
}
// * * * * * * * * * * * * * * * * * * * * * * * * * * * * * * * * * * * * * //


1205
(
(363.137 1.90459 -6.17483)
(420.662 -1.08058 0.329843)
(426.301 2.78145 1.03181)
(349.442 13.1958 -4.19635)
(386.685 9.66042 -1.53168)
(441.019 -0.024076 4.42511e-06)
(434.721 -1.38447 -0.346854)
(430.156 -13.3218 18.2879)
(442.375 -8.30685 -3.18355)
(436.071 -2.04977 -0.774011)
(440.985 -0.00758054 6.03314e-07)
(433.355 -5.02622 1.732)
(440.647 -0.0404482 -1.61928e-05)
(438.043 -6.48832 -4.07466)
(438.474 -14.5687 9.78246)
(440.452 -0.0427201 -6.6307e-06)
(440.563 -0.0340035 -4.96168e-07)
(440.62 -0.0237833 -3.17572e-08)
(419.944 -4.77615 0.728164)
(388.645 1.35361 5.67142)
(440.426 -2.75795 2.98033)
(440.184 -0.0288086 -1.50947e-06)
(440.154 -0.0200368 -2.83456e-05)
(432.657 -17.7844 6.91226)
(377.897 3.35952 -15.1141)
(408.201 2.98295 -1.20673)
(439.436 -0.0209269 -6.91719e-05)
(407.094 1.52153 -1.69603)
(440.197 0.000226252 -1.55102e-06)
(398.28 1.00481 0.82631)
(434.685 -4.129 3.86328)
(432.439 -16.2247 15.6354)
(439.989 0.0116921 -4.29868e-06)
(439.183 0.0250192 -2.35264e-05)
(439.667 0.0505741 1.83075e-06)
(430.986 0.690016 -0.89599)
(435.324 -0.768231 -1.8601)
(354.759 12.2735 -4.77905)
(434.611 -0.641247 -1.02223)
(439.108 0.160323 -2.82367e-05)
(386.617 -0.308042 -1.96609)
(450.659 1.98621 5.41328)
(437.404 -0.0726209 -0.0681578)
(446.302 17.6385 -0.415218)
(442.504 -1.85954 0.354921)
(438.805 0.301003 -0.00019708)
(440.432 -13.5189 2.15163)
(429.776 -9.91025 3.45507)
(414.348 -0.871198 -0.907332)
(442.648 4.64052 -5.32302)
(435.605 0.132464 0.668206)
(422.406 1.90302 -0.567627)
(437.862 0.662037 -2.92979e-05)
(406.118 -3.80754 1.63673)
(438.053 0.547579 -9.75314e-07)
(350.587 19.5163 -6.52036)
(431.312 4.73392 -0.0917463)
(428.379 -6.91708 3.06247)
(428.985 9.97337 -9.3209)
(437.045 0.935977 -0.000106869)
(434.182 1.66667 -0.53367)
(436.844 0.857164 -5.6582e-06)
(435.752 1.2308 -1.74656e-05)
(124.289 10.5497 2.04875)
(114.43 21.5391 0.00275774)
(125.242 14.6508 -0.000399539)
(132.277 4.8974 -1.53198e-05)
(119.076 24.3978 0.000258162)
(129.905 14.3569 0.000557656)
(122.127 9.87986 -9.66561)
(134.882 10.9228 -0.000745799)
(135.786 11.8436 0.000162202)
(132.118 23.7059 0.000572789)
(134.96 21.3132 -0.000906446)
(138.317 19.0821 -0.000289281)
(137.515 26.393 4.57472e-06)
(137.645 28.4998 -8.29759e-05)
(144.001 3.96731 -7.79075e-05)
(145.456 8.79399 -0.000271044)
(147.268 19.1402 -0.00214347)
(149.087 15.3505 -0.000570948)
(150.346 13.873 -8.41115e-05)
(151.676 12.3296 -0.000634835)
(154.964 17.7902 -0.00154086)
(157.213 20.1849 -0.000191187)
(156.56 12.8852 -0.000718675)
(156.811 11.217 -0.000156384)
(163.858 23.2213 -0.000182301)
(156.16 5.78722 -3.29868e-06)
(160.63 10.2352 -0.00202146)
(165.929 13.5673 -0.000248629)
(168.043 12.946 -0.00130097)
(168.083 11.1146 7.30299e-06)
(162.733 7.07529 1.89287e-05)
(156.713 16.7434 -11.5388)
(161.082 3.98705 -0.000231094)
(167.69 6.18995 2.77466)
(168.114 6.06229 0.000567044)
(166.723 4.97402 7.26737e-05)
(167.111 4.52096 0.000339895)
(164.273 3.40693 -0.000162121)
(166.029 3.50976 -0.00124984)
(167.841 2.57879 -0.0013588)
(167.201 2.49214 0.000294385)
(164.59 2.25232 0.000272371)
(138.032 11.1723 -9.90968)
(167.03 1.40256 -0.000681184)
(164.116 1.2603 2.72685e-05)
(163.858 0.569639 -9.35092e-06)
(166.458 1.11501 -4.09042e-05)
(166.003 1.22935 0.000587105)
(163.007 -0.190847 -9.53363e-06)
(165.819 1.05852 -0.000251369)
(165.708 0.0654444 0.000509413)
(165.443 0.961827 0.000101533)
(165.708 0.832808 2.49671e-05)
(165.537 0.837179 -9.45469e-05)
(165.239 0.761797 3.94863e-05)
(165.227 0.67277 9.02399e-05)
(165.841 0.39406 0.000256458)
(165.662 0.609599 0.000143156)
(165.714 0.470341 -4.50978e-06)
(165.498 0.638664 -1.00504e-05)
(165.417 0.483967 4.35199e-05)
(165.501 0.580006 -3.85838e-05)
(165.673 0.245053 -2.84302e-05)
(165.525 0.540483 5.14475e-05)
(165.646 0.163423 0.000146763)
(165.589 0.537899 -1.72351e-05)
(165.61 0.36312 0.000280442)
(107.368 -0.159299 -1.81057e-06)
(165.605 0.223823 2.13335e-07)
(48.9726 -17.7076 3.57583)
(60.5987 -12.7889 0.186283)
(72.504 -9.00138 0.00368902)
(97.1553 -12.3493 -4.32525)
(97.4562 -12.5361 -0.623878)
(117.411 -16.3294 0.000317264)
(113.045 -15.1804 3.08659e-05)
(99.6512 -10.3473 0.327948)
(105.875 -13.9311 0.00022128)
(86.0355 -10.4052 -10.507)
(129.195 -0.94438 7.63222e-05)
(116.978 -12.4046 0.000329917)
(120.521 -7.39535 0.000461351)
(91.9968 -4.09886 -1.10052)
(113.315 -9.51655 -2.04283e-07)
(110.177 -9.37438 7.02804e-05)
(116.48 -6.71462 0.000830533)
(102.64 -9.3921 1.3593e-05)
(103.981 -22.8139 2.1425)
(103.227 -8.26418 0.000602682)
(115.548 -5.43349 1.79827e-05)
(110.235 -7.19107 4.32938e-05)
(120.823 -1.78457 4.31847e-06)
(108.462 -6.19018 0.00131244)
(94.7121 -7.07543 -0.797317)
(117.147 -2.19849 2.22189e-05)
(94.5311 -3.64415 0.000186657)
(114.163 -2.24664 0.000162321)
(119.515 -0.988704 2.96716e-05)
(91.9015 -5.17971 -0.949885)
(114.299 -0.785891 0.000108634)
(96.0235 -0.956431 0.00155652)
(110.273 -0.19463 0.000454718)
(87.7084 -4.56464 -0.784732)
(110.776 0.293101 0.000274192)
(111.94 0.919316 0.00341536)
(117.364 1.15137 2.10676e-05)
(108.951 1.69097 0.00019067)
(114.909 2.11316 9.26613e-05)
(116.062 3.00224 0.000925523)
(106.663 4.26596 0.00240729)
(97.0427 7.58262 0.000298981)
(117.291 5.26102 -0.000118175)
(108.984 7.2697 0.000259348)
(83.6482 12.1242 -0.390963)
(121.773 4.18975 0.00106096)
(109.097 9.16054 0.00225927)
(103.242 12.681 0.00304517)
(123.088 5.66345 -6.30094e-06)
(112.064 11.0814 -0.000391742)
(115.645 11.853 0.00293557)
(119.384 11.8197 0.00272787)
(114.233 16.4145 0.000805646)
(108.255 21.1609 0.002939)
(117.072 18.1611 0.00116812)
(98.3499 14.1651 9.49723)
(343.692 -9.17615 -0.882293)
(319.541 -9.58899 -4.70679)
(332.172 -14.0129 5.5319)
(349.986 1.37673 12.6241)
(349.758 -6.28671 0.000262889)
(339.473 -9.82635 0.000200069)
(310.239 -9.80221 5.14328)
(331.214 -9.11758 0.000330423)
(313.512 -24.8155 4.00334)
(297.706 -27.0852 -0.00308181)
(295.226 -5.55936 -3.19417e-05)
(296.632 -38.4713 -1.90363)
(120.759 -39.7159 -1.79865)
(260.994 -28.7978 -0.00170737)
(266.553 -58.0067 -7.78732)
(245.791 -41.6322 0.00012781)
(169.893 -48.0135 -1.96373)
(199.735 -52.8996 7.872)
(206.535 -46.2133 -0.246767)
(223.5 -40.6022 0.00197772)
(90.6786 -23.9866 1.31579)
(218.967 -39.3262 0.00151794)
(117.391 -34.568 -5.05986)
(190.942 -52.1773 0.894)
(206.287 -33.5537 0.000312164)
(189.265 -27.0781 0.00013543)
(191.326 -23.7261 0.000207632)
(176.829 -33.5822 0.00028828)
(157.126 -39.648 1.40172)
(161.131 -38.2459 0.000382439)
(142.262 -41.837 0.795431)
(182.997 -15.6751 6.08164e-05)
(157.781 -38.1809 -0.000277185)
(170.361 -45.942 18.0717)
(173.992 -24.8555 2.19786e-06)
(181.938 -4.99384 6.64096e-05)
(160.845 -31.5672 0.00101464)
(156.258 -32.9828 0.00247989)
(148.98 -30.2111 -0.000322578)
(153.209 -26.5188 -0.000101885)
(156.004 -19.6143 -2.83488e-06)
(139.915 -41.2212 0.204907)
(159.273 -11.3696 -3.52607e-06)
(145.519 -25.8886 2.36237e-05)
(149.892 -21.4351 -3.11652e-05)
(113.012 -30.6041 -1.72707)
(137.938 -28.1067 4.13374e-05)
(128.302 -38.1959 3.87693)
(148.269 -13.1026 0.000541709)
(138.913 -21.7791 0.00102292)
(133.863 -22.3803 -0.000110012)
(137.233 -15.9387 -4.00355e-05)
(141.765 -5.41029 -3.11833e-05)
(126.897 -21.9337 -2.738e-05)
(135.289 -10.0483 0.000886699)
(110.348 -23.92 -1.80056)
(116.835 -19.7338 0.00110303)
(120.391 -18.0115 0.00211988)
(112.485 -19.8586 0.00219715)
(123.852 -13.986 0.000877085)
(434.412 1.30873 -6.66073e-05)
(433.864 1.55278 -0.000128164)
(432.574 1.56237 -4.51076e-05)
(432.789 1.15819 -4.82902e-05)
(426.962 -0.921117 11.2099)
(435.369 5.91931 2.44646)
(429.473 0.808228 9.45981e-06)
(439.847 1.97767 -7.53939)
(422.05 3.0847 -0.846606)
(405.429 1.28039 -0.140512)
(426.342 4.89938 3.57685)
(423.909 1.23344 0.000228462)
(417.871 -1.21124 17.6347)
(423.051 0.945244 8.60072e-05)
(422.11 1.10766 6.83567e-06)
(422.269 0.593185 0.000410528)
(336.251 5.44711 2.52236)
(365.899 10.2962 -8.78267)
(385.873 1.35261 -0.869778)
(390.17 -7.35294 9.98652)
(394.504 -4.01019 2.01931)
(396.216 -1.51519 -0.000242568)
(397.464 -4.65038 -8.67049)
(370.913 9.83371 -13.5453)
(386.999 -5.02412 2.47941)
(361.438 -1.93682 -1.0213)
(347.594 6.3992 7.67766)
(383.458 -0.805885 2.96944e-05)
(378.686 -6.59977 -8.48186)
(381.037 -1.95685 -0.000136679)
(378.679 -0.496795 3.8708e-05)
(338.018 -10.8167 6.8875)
(368.377 -8.90356 -1.02621)
(354.298 -8.51668 -0.831774)
(354.612 -9.06528 -0.031716)
(351.769 -3.02203 -0.000661315)
(339.804 -10.6584 -0.407549)
(340.63 -11.3341 -1.92906)
(323.279 2.64298 -16.0033)
(342.077 21.5586 -15.9329)
(328.966 5.48442 -5.50666)
(325.584 15.2825 -0.883342)
(369.837 2.51449 -6.74385)
(374.034 -8.63773 -3.27731)
(373.727 -1.17815 0.904208)
(378.452 6.79999 2.61348)
(359.788 -4.69169 -7.38893)
(329.721 4.52296 -0.163812)
(345.229 7.82611 14.1516)
(348.288 15.3099 -12.5655)
(331.132 -0.189185 -0.377199)
(389.446 -0.858563 -0.0370174)
(405.925 -8.92531 -9.85713)
(380.583 9.06965 16.124)
(356.204 8.3374 -2.58324)
(407.344 2.59916 -13.5112)
(437.058 -2.1334 -9.97964)
(426.555 -0.726382 0.127318)
(430.954 -10.323 -2.04427)
(431.536 0.150204 3.08572)
(366.272 5.71198 -7.97333)
(386.832 -2.43139 9.30819)
(410.985 -4.60579 -0.738753)
(448.235 -0.922581 -12.8256)
(383.707 7.14962 -1.39333)
(437.935 -3.95654 -3.1286)
(408.829 -7.90443 10.7416)
(437.219 0.190156 2.45781)
(442.917 0.000130773 -0.00416544)
(423.632 -9.75551 -0.0850103)
(445.239 -9.90291 -14.7266)
(357.74 -0.689964 -4.70809)
(417.771 -0.010358 0.666784)
(410.128 4.75839 -13.7813)
(429.289 -12.8127 0.351049)
(451.236 -11.2648 11.1877)
(437.412 -0.626709 -0.27317)
(438.996 4.21959 3.0519)
(417.865 10.8156 8.07224)
(441.292 1.1265 0.354418)
(437.509 0.5376 2.9752)
(362.503 12.4537 -1.67149)
(415.716 -0.249756 -0.460335)
(415.971 -3.81474 -4.1308)
(445.609 -0.00976129 0.0192406)
(380.118 1.87142 13.8465)
(415.885 -2.63032 -8.68052)
(432.298 -0.255698 6.54035)
(419.408 -2.09993 2.78795)
(340.124 -2.32389 1.38854)
(422.652 -1.17157 -0.181049)
(383.514 10.5332 8.47927)
(392.593 5.34245 12.931)
(407.873 -3.83477 3.15933)
(433.139 -7.47986 1.51674)
(433.104 -0.564831 0.163529)
(403.405 11.8436 10.6953)
(430.633 -3.33666 -0.545958)
(444.355 -0.0749077 -0.17036)
(435.717 6.31761 2.25489)
(422.689 -1.37798 0.505287)
(441.627 -3.99968 0.350957)
(380.99 11.2839 -3.65711)
(424.31 -0.481773 -1.13895)
(441.771 -7.63275 -1.19803)
(359.303 4.33892 -1.6403)
(465.746 -9.81004 -2.26841)
(395.411 5.34438 -7.50475)
(412.65 3.68961 -1.37867)
(439.907 -3.03777 2.16372)
(429.394 -11.3719 -1.76599)
(330.218 17.7861 16.7683)
(444.081 0.00405264 -0.166845)
(401.429 -7.06091 -3.04328)
(437.177 -2.75816 -2.45485)
(432.272 -5.5408 4.86673)
(448.354 -8.72925 -7.98625)
(404.985 8.32511 6.119)
(435.92 -0.270277 0.640539)
(439.678 3.83556 2.75701)
(440.181 -31.9298 -14.2376)
(454.768 -10.0783 1.21712)
(445.028 0.860818 1.78504)
(338.956 2.58584 -1.39443)
(408.404 2.57356 0.27631)
(366.457 2.67211 1.46625)
(442.373 -1.51622 1.16072)
(413.961 7.41485 3.67189)
(436.82 -0.592765 0.674023)
(437.791 -1.11197 0.811708)
(435.358 0.258216 0.471279)
(396.353 -21.6497 -12.3738)
(418.34 1.14906 4.59549)
(444.498 5.27325 -3.52346)
(441.38 -21.1405 -5.76719)
(418.966 -2.54944 -0.852398)
(438.435 -11.6844 8.42427)
(350.903 1.55688 -11.5791)
(445.207 0.000330843 0.00447358)
(442.846 -2.84219 2.61454)
(329.132 1.75813 -3.32276)
(425.945 -9.43421 -9.39304)
(435.848 3.81766 6.61011)
(443.786 -1.03568 0.577515)
(400.535 -0.902318 0.594352)
(375.077 0.650867 0.775819)
(431.157 0.813953 1.44008)
(402.514 -4.24212 7.71623)
(390.71 -0.781832 3.92466)
(366.247 -2.62357 2.67115)
(443.034 -0.0151169 -6.54751e-08)
(440.053 0.00351507 -0.138553)
(437.498 0.249806 -0.978169)
(422.592 -11.8882 -2.18294)
(418.587 -10.2333 8.13483)
(435.469 -4.89045 4.25674)
(403.08 -3.92059 1.97468)
(441.359 0.387424 3.40812)
(442.992 -0.0231782 7.59238e-06)
(430.174 -5.86574 0.505123)
(428.238 -1.55582 -0.272587)
(442.866 -0.0217519 -7.78122e-06)
(399.487 0.549593 2.59641)
(387.329 1.90701 -5.04867)
(437.263 -1.06988 -0.115159)
(412.151 -2.12618 3.61456)
(332.489 -11.5241 -7.86727)
(405.478 -9.71758 8.21191)
(424.643 -1.31249 -3.85059)
(442.081 -10.9255 8.13538)
(433.144 -7.19871 -1.33552)
(422.299 -2.89622 -1.18163)
(405.32 17.8646 -0.933719)
(432.778 -0.176472 -0.320543)
(441.115 -4.33648 1.84325)
(442.863 -2.14523 -0.356763)
(330.941 2.3187 -0.470208)
(453.485 -10.3157 10.1153)
(441.547 1.0289 0.148284)
(428.744 -3.34616 -9.32038)
(449.187 -1.46289 -7.63286)
(431.473 -12.1415 0.326244)
(431.167 -11.1742 5.57935)
(445.644 1.30272 -0.136771)
(450.368 -11.7089 -10.8326)
(446.646 -3.38558 5.09362)
(442.732 -9.74218 7.25694)
(389.259 -3.45785 2.89317)
(439.712 -3.42465 -0.231275)
(460.968 -13.443 3.91405)
(351.75 -0.232763 -10.9951)
(437.485 0.268517 2.30227)
(439.891 -1.6106 2.49088)
(429.467 7.47262 3.12158)
(442.786 -2.27787 -1.70882)
(442.644 -0.0481511 -4.37673e-08)
(413.13 -0.380591 0.197337)
(442.851 -0.0519032 4.1659e-06)
(428.245 -0.736215 -5.90849)
(413.491 -1.8371 -1.77668)
(429.796 3.0896 4.43582)
(387.623 6.51363 0.200049)
(442.67 -0.0431358 -1.80166e-06)
(391.083 -0.18405 -4.43822)
(424.563 -1.5073 0.249074)
(439.787 1.3477 2.9443)
(376.349 3.06079 0.984165)
(399.554 -1.17015 -0.379239)
(435.383 -2.08491 2.304)
(417.235 0.286123 -4.0159)
(443.027 -2.70596 3.45853)
(416.06 -5.67522 0.573084)
(367.744 14.4002 -1.36308)
(442.385 1.77104 0.600864)
(429.433 -10.0292 8.26545)
(413.464 25.7455 2.26257)
(441.801 1.07583 3.32861)
(418.223 5.25452 -7.03212)
(442.675 0.00312336 3.44393e-06)
(416.132 -1.84321 4.84971)
(443.43 0.576495 -5.40854)
(407.711 3.05158 -1.86941)
(437.22 2.58538 -2.46283)
(454.405 -12.5413 -2.69571)
(428.807 -2.10847 5.72425)
(433.55 8.41435 -5.55867)
(436.773 2.51704 -5.94534)
(436.845 -1.43479 0.299735)
(438.02 -7.29651 0.683504)
(442.299 0.0184284 -4.89655e-05)
(439.997 3.20046 3.29086)
(432.556 0.0608683 0.00661945)
(384.025 -11.0217 -7.67329)
(437.774 -1.92421 -0.818197)
(435.855 3.48058 3.66825)
(353.876 8.41487 4.94189)
(343.752 -1.67035 -1.69149)
(412.92 -8.79842 7.94709)
(417.409 7.02491 8.65439)
(426.511 -2.82386 11.8182)
(441.904 1.88066 -0.805037)
(360.182 -2.89552 6.38329)
(443.51 0.531841 3.30546)
(363.927 -3.52304 -11.2727)
(425.54 0.399949 1.01346)
(445.824 -5.67651 0.544789)
(433.326 -9.43876 15.2623)
(417.104 6.0614 -8.46352)
(433.92 -9.46563 11.8821)
(435.931 -0.697835 1.6888)
(442.286 -5.31097 5.02418)
(406.058 -1.26736 2.52488)
(422.706 2.68826 -8.1929)
(407.059 3.34293 -14.8892)
(441.72 -0.365946 -0.165762)
(441.199 -0.631737 -1.51847)
(432.759 -0.458119 -0.44132)
(442.27 0.0362343 -1.52148e-05)
(441.835 -0.024945 -4.50685e-06)
(437.856 -2.60589 -1.94325)
(351.062 16.5837 -8.02271)
(431.276 -16.7396 8.52397)
(441.806 -0.0179163 -8.11019e-07)
(398.28 -3.54008 8.82611)
(441.771 -0.0156659 -3.46068e-06)
(401.09 5.82873 1.04701)
(388.476 3.20831 -3.24757)
(441.653 -0.0194005 -1.18508e-05)
(442.068 0.0122401 -2.93308e-05)
(437.362 -8.7033 14.316)
(381.013 7.91478 -1.8601)
(438.117 3.89672 -3.624)
(439.252 -0.468859 4.7201)
(382.754 -4.02215 -3.28843)
(439.344 3.80989 -2.44536)
(441.691 0.00668882 -4.80079e-06)
(389.036 3.96103 -5.25971)
(441.781 0.00774938 -6.40412e-07)
(449.505 -7.75716 1.08331)
(433.278 -5.63315 -1.63515)
(403.461 3.28929 -0.827887)
(441.438 0.00652348 9.72869e-06)
(442.025 -1.11105 4.43996)
(416.712 -1.10495 -0.575771)
(434.155 -1.20509 4.40311)
(429.34 -12.0405 5.43922)
(441.012 0.238429 -6.38568)
(442.214 -15.7841 -8.45727)
(352.317 6.52053 -8.21048)
(408.302 0.143944 -0.945888)
(441.18 0.554842 -0.061651)
(432.154 -0.836133 0.678392)
(431.597 -11.253 -3.57994)
(430.215 4.08226 -1.71382)
(440.159 0.00440524 7.33862)
(441.371 -0.00418762 4.79753e-07)
(442.238 -3.90208 -3.7281)
(441.321 -0.00690976 -8.17686e-07)
(443.65 -9.87198 -7.76821)
(441.061 -0.0242875 -2.64569e-06)
(401.099 0.705976 10.0622)
(266.04 -1.62882 10.9275)
(243.421 4.58243 -19.7942)
(255.798 19.4128 -2.52154)
(253.62 17.3352 -11.5914)
(264.57 32.2938 -0.772017)
(274.441 22.7469 -3.20358)
(274.154 19.064 -0.880051)
(289.686 20.828 13.5493)
(288.625 22.223 12.0025)
(290.875 -0.282219 1.30992)
(277.773 7.17325 -15.5494)
(282.588 13.3117 -21.109)
(349.387 3.58073 -13.0993)
(307.938 -6.80075 5.66042)
(401.233 -24.3372 -12.7033)
(292.026 0.0452114 6.68356)
(365.838 -2.51222 -0.685737)
(374.921 0.709267 2.5283)
(358.552 4.32435 -12.6682)
(334.173 -4.51321 -0.292617)
(354.569 7.90434 -3.10104)
(344.588 9.97768 6.96746)
(367.529 10.5731 2.09715)
(381.477 -3.52604 9.22154)
(302.489 14.3438 -13.923)
(383.141 7.53188 15.5158)
(383.673 -3.07481 8.57994)
(319.018 -0.0870457 -0.79031)
(382.226 -1.30747 -16.3829)
(375.659 -0.18989 -1.96021)
(368.001 -0.425119 0.0325951)
(335.948 2.7794 -3.4391)
(349.307 5.69077 -1.91293)
(320.413 15.5898 -1.12782)
(384.463 0.482711 0.128399)
(341.711 0.461287 -7.92019)
(391.837 0.00464936 -0.252072)
(378.078 -1.38431 9.76855)
(396.609 0.00137398 -0.0486691)
(386.557 1.82232 -7.62171)
(390.566 0.789729 -0.242388)
(375.774 -0.793604 -0.0672442)
(395.613 5.14553 3.64156)
(389.64 1.53654 -3.93689)
(381.446 5.74187 16.1807)
(330.139 3.86503 8.16124)
(391.124 -0.543776 -1.52678)
(349.903 15.219 -16.4919)
(310.199 22.2468 15.1532)
(390.358 4.69294 9.19401)
(344.588 7.9489 5.3387)
(338.184 4.19838 -17.1976)
(368.481 9.79329 2.57621)
(305.01 10.3433 -7.25766)
(405.035 -4.08122 7.22223)
(396.568 0.975022 -0.585294)
(338.862 17.3867 4.4562)
(388.027 -0.552606 -1.40673)
(355.785 6.59416 3.38189)
(378.739 2.49364 -1.11433)
(394.972 0.543521 0.157358)
(355.792 18.4362 5.16577)
(398.776 0.737261 2.46082)
(384.679 4.64009 -11.846)
(395.269 1.00205 -9.80542)
(331.093 13.1502 5.35441)
(405.201 -3.9103 3.52362)
(384.753 8.36339 -10.0047)
(400.593 1.14467 11.7434)
(312.411 4.98224 -0.642896)
(402.909 -1.42661 -10.7701)
(383.241 2.87486 8.62511)
(390.463 -12.5109 11.9687)
(293.358 14.7519 -25.0439)
(322.519 14.9088 -9.49844)
(385.365 12.0474 -8.00444)
(354.241 -4.36775 7.945)
(402.647 -0.449751 0.0585415)
(362.856 4.44199 -1.77169)
(357.51 -6.38965 -6.60851)
(341.33 13.6423 -5.58922)
(407.299 2.67602 -7.03514)
(301.164 11.7191 -11.2502)
(331.473 2.36617 -1.70024)
(377.863 -8.48652 7.66443)
(366.007 2.11666 -2.5618)
(401.115 6.12059 -2.75039)
(405.066 0.511366 -4.57021)
(408.692 3.87709 -1.86888)
(397.378 0.38483 -1.02438)
(390.474 -0.959409 1.94426)
(371.1 4.96898 6.7037)
(407.9 -0.807439 0.158508)
(408.255 -1.47099 -11.4947)
(350.992 -8.81749 -6.40335)
(423.217 -26.3136 4.0751)
(387.332 10.4827 -9.25273)
(375.855 4.34013 -10.4354)
(372.813 -0.706641 -0.548913)
(376.315 8.91436 6.43262)
(386.961 24.5917 -12.283)
(393.928 16.7085 16.8076)
(405.505 0.890576 -0.0858551)
(365.004 -1.62023 1.27928)
(350.437 -0.330869 0.0179725)
(409.926 0.0726552 0.171253)
(407.383 -3.60617 2.98137)
(279.497 18.693 -3.34979)
(366.89 -0.662938 0.125248)
(401.87 -5.0417 -1.50255)
(369.811 4.30322 -2.33561)
(328.239 7.68258 -29.3749)
(369.477 -0.391111 0.340677)
(401.225 3.77998 -2.94469)
(403.669 -1.3097 -1.95593)
(411.15 0.00373581 0.0626657)
(370.803 12.2971 -12.1529)
(425.218 0.00405234 -0.211992)
(378.428 -0.537868 -1.62894)
(408.571 -6.45478 4.91008)
(408.648 -1.68261 -3.63092)
(301.062 2.44629 -1.65035)
(415.05 1.1004 3.59225)
(349.974 1.6905 -1.70592)
(401.278 -0.335107 8.44146)
(420.215 -0.0481725 0.420433)
(380.563 4.82981 -0.463511)
(418.819 -0.0541028 -0.0846207)
(420.422 0.00102875 -0.0515603)
(418.953 -0.00717557 -0.00910797)
(312.705 1.10862 -2.23307)
(419.383 -0.421686 -10.7724)
(412.638 0.736924 2.14334)
(419.708 8.37178 5.12654)
(345.169 0.853981 1.19258)
(422.998 -2.52964 -9.8131)
(369.685 -8.58447 -9.24372)
(398.715 0.17449 -6.37992)
(431.046 -5.38401 -4.2358)
(426.57 2.96404 9.39144)
(416.832 -1.93925 -4.45437)
(393.12 -2.09924 5.40609)
(402.717 9.60917 -10.0617)
(400.655 -13.7796 0.366741)
(418.256 -0.415289 -0.0123154)
(401.273 6.14869 4.58553)
(325.168 17.5198 7.90879)
(376.155 -0.701066 -3.97326)
(396.965 -0.810354 -14.1615)
(428.049 -1.50011 1.54945)
(404.429 -3.55632 -1.38454)
(393.013 1.94583 -11.1056)
(401.037 0.654538 -2.14249)
(368.264 7.27871 -7.44742)
(401.792 10.4551 0.589211)
(375.88 15.1624 6.56856)
(401.683 -5.75299 -12.0157)
(395.252 4.53657 3.01018)
(414.452 -9.4101 2.59872)
(419.69 4.7116 1.26466)
(424.674 -3.25573 1.47551)
(428.737 -9.72228 0.0155821)
(408.873 -3.76433 2.99405)
(438.353 -10.6236 13.8032)
(408.836 -1.33699 -2.50046)
(426.374 -1.81434 -2.53428)
(341.073 -4.85336 5.1059)
(414.615 -0.137888 -0.570629)
(432.426 -2.12821 1.48457)
(405.903 -0.647554 -0.00862043)
(414.539 -0.20993 -1.40392)
(430.427 0.0271079 0.00675762)
(370.659 -4.2256 -5.53632)
(328.972 2.55062 0.279629)
(428.331 0.410023 3.77639)
(386.834 5.84136 4.0707)
(425.734 -2.63659 11.7484)
(435.054 -0.020295 -0.0225478)
(415.601 -3.95027 -8.59798)
(399.62 -1.87007 -1.80517)
(433.338 -4.38529 5.88173)
(443.511 -14.0953 11.8892)
(319.694 1.4845 0.551437)
(408.382 -0.656016 -11.5651)
(418.848 -6.30943 6.19245)
(414.289 -4.61834 -0.208061)
(416.094 8.52367 -10.2558)
(430.23 5.06504 3.70453)
(373.143 2.10721 10.7476)
(430.259 -6.66386 1.25604)
(430.33 0.00664636 0.327118)
(316.821 11.9789 -6.6877)
(394.973 -14.9157 -6.76215)
(432.345 -2.77876 4.31391)
(442.581 -0.362657 10.9814)
(411.741 -6.57382 34.062)
(405.851 -20.7167 -20.2745)
(436.208 1.62043 2.87076)
(431.926 -35.8049 -13.1528)
(409.794 2.87099 -1.83985)
(387.419 2.5833 -4.63988)
(381.421 1.82955 14.1479)
(411.693 -7.78532 -11.8199)
(398.984 -7.65059 1.67493)
(438.074 0.00221433 0.107)
(436.525 4.6121 -1.26338)
(383.266 0.976516 -1.94301)
(371.288 1.88559 1.28505)
(419.516 -7.38494 -8.06119)
(432.912 2.17719 -4.35932)
(401.166 0.220003 2.17134)
(332.16 1.63342 -11.0646)
(367.376 13.8894 0.588788)
(414.684 1.26625 6.39014)
(436.744 -1.02622 -0.590405)
(429.783 -0.310334 -0.163639)
(437.103 0.207764 -2.61645)
(416.15 -2.80369 0.671777)
(377.61 -0.74957 1.36636)
(440.172 -6.50813 -4.42616)
(436.89 -4.87807 5.87534)
(421.935 3.12034 8.51974)
(313.052 4.66763 17.8436)
(419.6 -0.484434 0.122221)
(439.509 1.39773 -1.51045)
(418.605 5.38843 -10.2336)
(300.291 7.96998 4.63607)
(414.165 3.45423 1.10904)
(409.446 -7.86067 -9.20763)
(402.853 -2.71605 1.08986)
(425.883 0.250224 9.86733)
(311.454 -1.83693 12.1154)
(341.86 -1.74078 2.00614)
(397.51 -7.57028 2.26578)
(460.092 -8.99 -2.10141)
(400.695 -0.606253 -0.226351)
(357.917 -13.4646 -22.2622)
(439.8 0.00212272 0.105615)
(432.455 2.48768 -1.14807)
(327.651 26.4461 -3.71186)
(384.152 4.92415 5.54405)
(382.454 -1.86127 3.10268)
(410.599 -1.73006 5.86429)
(388.322 4.59905 17.1965)
(287.521 4.08377 10.5382)
(433.867 -0.145079 3.86471)
(438.311 -9.24249 1.89385)
(441.834 1.38885 8.89651)
(410.66 -0.815165 -4.17598)
(303.71 6.4037 6.94961)
(440.149 0.642909 0.474839)
(428.022 -1.27203 8.26561)
(413.183 -4.96546 -9.69065)
(414.856 -0.698849 0.0378444)
(345.499 7.05342 -1.54087)
(400.557 -6.38978 8.0278)
(388.698 23.1806 0.0552376)
(434.152 3.4222 0.554965)
(417.313 -0.148229 4.14571)
(439.609 -3.40928 -1.07308)
(336.429 1.07615 -2.03888)
(323.005 -7.61489 -1.28037)
(389.46 -7.71702 9.54348)
(323.021 -5.02625 -4.18288)
(408.108 -3.57267 -2.85152)
(396.208 -5.61451 -5.16116)
(424.099 -5.70957 -0.468218)
(419.644 -5.89346 -4.40573)
(394.847 4.31333 -0.878487)
(440.341 -0.742821 0.119461)
(422.033 -3.85544 -0.835369)
(440.338 -1.44055 4.26925)
(431.371 -1.48043 -0.221023)
(444.612 -2.07553 2.32372)
(344.737 6.41861 1.20994)
(357.668 8.32945 -15.8961)
(341.916 10.785 -2.20665)
(441.051 1.54465 -1.56164)
(420.884 -6.93301 -2.70703)
(435.823 2.96473 5.35822)
(434.874 -2.63214 -17.7897)
(438.283 4.20657 3.56432)
(440.797 -0.972385 1.62234)
(394.116 -0.671445 -0.0188353)
(402.097 -4.89781 3.49407)
(433.013 0.0991253 4.24243)
(416.019 -14.3274 -14.2278)
(438.926 -4.55559 1.95918)
(321.492 14.6613 -5.92937)
(347.209 0.966254 -0.0939192)
(430.619 -11.9661 -11.8603)
(348.459 -2.72104 0.158165)
(412.204 -1.39302 -1.41697)
(429.803 -11.5406 -2.56466)
(440.758 -1.61508 -0.947046)
(411.69 0.428154 -4.49775)
(446.52 0.861049 3.42362)
(421.004 -0.943833 0.188806)
(424.772 -1.92579 2.25467)
(424.977 3.44911 -0.411433)
(434.306 2.00829 -0.368061)
(447.422 -10.4716 -7.36657)
(381.999 -5.30185 1.12343)
(428.629 -5.08048 -1.63694)
(408.683 4.52858 -4.54034)
(435.324 10.5845 -0.237132)
(438.617 -3.92097 4.16498)
(397.098 -1.61726 4.6072)
(291.165 -6.99032 -6.68579)
(308.044 -0.215966 0.278239)
(322.369 0.980193 -4.15852)
(286.301 17.3004 4.11838)
(297.951 6.95759 2.11786)
(333.764 4.42269 3.13127)
(316.762 9.32429 3.14708)
(332.026 -1.75567 -1.50529)
(331.899 2.98643 2.86109)
(322.067 -8.179 11.4407)
(321.63 8.11019 -1.61952)
(330.226 4.78395 18.1923)
(307.198 11.9052 -3.66497)
(338.711 -0.000868227 -0.000717878)
(336.706 4.69067 -1.02877)
(314.16 1.50464 4.72482)
(317.979 12.6256 -7.56504)
(326.506 -0.649687 -0.193908)
(334.092 4.7139 -7.15132)
(303.266 17.8687 1.47376)
(339.253 -0.00780383 0.0589905)
(339.98 0.808082 0.338762)
(348.925 -3.19881 12.3857)
(340.602 1.45027 -0.735686)
(335.262 -0.469071 -0.0538791)
(340.81 1.16751 1.91774)
(317.137 6.19913 -2.12274)
(334.269 37.972 2.60061)
(326.893 6.8091 -2.84768)
(340.578 3.66478 3.81053)
(354.689 -0.536983 2.99177)
(340.549 0.00364023 -0.978018)
(300.213 5.60212 -6.98564)
(338.623 1.52487 6.78144)
(322.875 -0.0815596 3.12477)
(339.481 6.56122 -6.68806)
(329.353 6.12071 -7.9634)
(294.105 1.12627 5.44892)
(345.745 -6.55076e-05 0.0663223)
(336.709 -0.916597 -0.546401)
(340.802 -6.66018 0.528985)
(346.889 22.9486 8.47853)
(345.57 0.218432 -2.19701)
(337.628 11.3027 6.80037)
(322.879 10.787 0.0916567)
(341.055 -0.220992 0.439237)
(342.917 0.00108686 0.0240739)
(312.492 -1.47367 -7.12142)
(336.467 -1.51306 10.2248)
(338.943 -4.51209 -10.1942)
(305.298 19.4752 -6.05124)
(344.143 -4.88037 -4.96768)
(351.565 -9.14711 -10.6214)
(352.145 2.72621 8.20641)
(334.593 0.00246959 -0.097406)
(352.669 11.481 12.6197)
(340.724 -0.0738615 0.20817)
(331.707 2.23794 -0.947268)
(312.852 8.55199 0.689733)
(318.821 -2.84789 -0.341772)
(342.279 0.233567 3.46273)
(321.276 8.41059 3.46636)
(329.189 33.5773 -23.8799)
(332.753 9.53487 -13.9671)
(339.072 -6.76883 7.00293)
(348.151 7.91347 -7.251)
(349.337 0.00131537 -0.0246204)
(344.747 -7.22397 -3.74281)
(346.372 1.0664 -1.15255)
(340.063 -11.1313 4.78714)
(349.418 -5.31503 11.3784)
(338.096 8.51797 -0.990426)
(341.082 0.000487193 0.0362936)
(344.545 0.000489 -0.031777)
(358.472 0.513326 -5.31207)
(324.696 -7.85116 -7.33878)
(344.415 -0.00222274 -0.0649048)
(325.984 -0.0304378 -3.51842)
(311.29 14.0946 -33.1141)
(345.532 0.823166 -1.62086)
(295.52 9.45184 3.8809)
(341.915 0.152538 -5.15283)
(334.771 -0.51473 2.47002)
(330.713 1.13234 -4.64206)
(346.096 8.05715 1.59346)
(326.351 2.92605 28.9365)
(331.315 2.29038 1.59545)
(347.329 1.39764 -1.74685)
(346.502 -0.00116827 0.0802723)
(343.478 -15.2712 13.9813)
(287.69 7.44445 2.8679)
(340.498 0.811016 -4.85295)
(324.356 2.01315 1.36199)
(332.952 -0.5333 -0.533186)
(307.229 15.3616 12.9214)
(348.463 0.00271856 -0.0585906)
(350.031 -0.0017528 0.0811228)
(329.493 4.94762 5.93761)
(326.496 0.0412786 -0.128749)
(360.895 7.64809 14.4431)
(328.615 -10.2121 5.53734)
(349.035 -0.000233271 0.0166701)
(348.511 1.34773 3.25241)
(329.871 -1.41321 -4.98154)
(369.785 8.61504 10.8077)
(336.149 1.7916 -4.77472)
(344.942 -2.33001 -0.766797)
(281.251 21.4237 10.0722)
(343.293 -0.343419 4.86769)
(347.503 -0.199169 0.0333678)
(322 13.1874 4.6364)
(350.926 1.11509 -0.719504)
(337.612 12.4381 3.10854)
(351.802 4.48076 -3.84863)
(347.036 -0.9576 -1.25232)
(337.372 3.53115 -8.14409)
(297.939 12.3936 -15.4264)
(359.352 9.74686 18.3269)
(346.245 7.06779 5.80075)
(347.524 4.76106 1.66455)
(354.033 0.0011527 0.0548672)
(345.623 -4.93469 -3.12826)
(348.651 0.000585588 -0.0445792)
(373.643 -2.4725 -10.7958)
(342.422 -17.4851 12.5481)
(350.694 1.91928 9.20056)
(312.303 0.299057 7.61099)
(339.542 -8.7117 -5.22019)
(309.627 4.72652 11.8209)
(349.263 0.00656093 -0.0225446)
(333.784 -1.42784 1.58644)
(314.485 26.6022 22.6011)
(368.357 10.3762 -5.68441)
(352.845 0.00108191 -0.0798956)
(331.048 -0.572456 0.0737942)
(354.148 3.26589 5.73011)
(322.473 -4.20257 7.01787)
(356.51 -0.0193613 -0.85878)
(353.713 -0.451428 -0.864634)
(351.593 2.7259 -8.08892)
(324.869 3.62785 -3.73582)
(353.784 0.0646326 0.540701)
(349.913 -3.62109 -11.0417)
(358.864 2.57697 6.91642)
(353.711 -0.371407 -1.62984)
(356.656 2.69124 0.362652)
(358.152 0.00060661 -0.028586)
(357.538 0.516212 0.0109573)
(342.302 3.72589 0.132304)
(357.523 0.717155 0.898193)
(342.453 5.71111 -2.49437)
(354.815 -9.19775 9.68826)
(342.446 -5.87575 -4.62031)
(353.485 -4.46204 5.25527)
(357.719 0.839612 -3.51952)
(359.102 -0.516121 -0.987035)
(306.9 11.4234 -7.30666)
(348.007 1.13371 -2.323)
(360.536 0.00044937 0.0164531)
(290.768 10.4815 -26.4568)
(335.271 -2.5434 28.439)
(348.112 -3.56495 2.61063)
(357.978 7.56123 0.0684382)
(317.143 3.78277 0.439327)
(345.276 1.73989 26.8939)
(360.363 -3.84332 -4.56165)
(331.238 -9.83009 -14.762)
(307.523 9.65919 -28.0001)
(295.003 14.3616 -5.90124)
(348.142 -0.000245349 0.0284049)
(282.784 10.4938 -7.2858)
(357.713 -0.468847 0.250208)
(373.308 -7.60869 -2.81121)
(328.381 -1.8414 -2.33417)
(328.337 22.1232 15.9193)
(340.837 -4.41191 4.12459)
(346.479 5.4202 -2.31965)
(362.836 -0.000277257 -0.0423111)
(358.92 -0.0123618 0.0353844)
(361.727 6.0374 -9.56803)
(375.382 -4.27779 10.7029)
(363.966 0.00017394 0.00766418)
(385.307 6.56745 -8.98949)
(366.093 -3.51574 -4.94992)
(318.85 12.9623 -16.9832)
(357.323 -1.47561 15.6889)
(362.783 8.32512 5.12997)
(350.746 3.9352 4.9524)