/*--------------------------------*- C++ -*----------------------------------*\
  =========                 |
  \\      /  F ield         | OpenFOAM: The Open Source CFD Toolbox
   \\    /   O peration     | Website:  https://openfoam.org
    \\  /    A nd           | Version:  7
     \\/     M anipulation  |
\*---------------------------------------------------------------------------*/
FoamFile
{
    version     2.0;
    format      ascii;
    class       vectorField;
    location    "0.15/lagrangian/reactingCloud1";
    object      UTurb;
}
// * * * * * * * * * * * * * * * * * * * * * * * * * * * * * * * * * * * * * //


1205
(
(1.72803 2.43609 -6.17485)
(-0.452436 -0.645269 0.32985)
(2.77921 3.20021 1.03181)
(-6.85877 13.5749 -4.19661)
(6.78717 10.2858 -1.53172)
(0 0 0)
(1.64981 -1.05689 -0.346852)
(-9.40539 -13.208 18.2879)
(1.923 -8.24989 -3.1835)
(-1.57427 -1.8408 -0.773989)
(0 0 0)
(-6.69552 -4.946 1.732)
(0 0 0)
(-0.0279502 -6.29853 -4.07466)
(-2.32814 -14.5415 9.78246)
(0 0 0)
(0 0 0)
(0 0 0)
(-8.62671 -4.43648 0.728177)
(-13.4936 1.84908 5.67159)
(8.4477 -2.4534 2.98035)
(0 0 0)
(0 0 0)
(-6.4223 -17.7175 6.9123)
(4.86758 3.89953 -15.114)
(-0.619497 3.38184 -1.20661)
(0 0 0)
(0.627407 1.93086 -1.69596)
(0 0 0)
(-3.34715 1.40153 0.826381)
(-1.27827 -3.9956 3.86333)
(-7.59735 -16.2315 15.6355)
(0 0 0)
(0 0 0)
(0 0 0)
(-4.20136 0.706625 -0.895965)
(2.69194 -0.71108 -1.85974)
(0.0320559 11.8156 -4.77891)
(-0.56027 -0.739524 -1.02221)
(0 0 0)
(-0.66269 -0.12888 -1.96592)
(12.1255 1.81379 5.41332)
(0.278191 -0.280489 -0.068028)
(8.2623 17.339 -0.415174)
(4.39177 -2.16345 0.355009)
(0 0 0)
(2.24732 -13.9368 2.15169)
(1.65818 -10.3253 3.45523)
(0.852214 -1.28718 -0.906989)
(5.59228 3.99725 -5.32299)
(-0.432259 -0.594212 0.668506)
(-0.267455 1.18385 -0.567581)
(0 0 0)
(-9.34373 -4.70239 1.63687)
(0 0 0)
(-3.84187 17.8703 -6.5202)
(-1.4467 3.65159 -0.0916559)
(-7.68018 -7.99747 3.06253)
(-2.18252 8.80382 -9.32086)
(0 0 0)
(-1.49891 0.369116 -0.533655)
(0 0 0)
(0 0 0)
(1.10279 -18.6908 2.04641)
(0 0 0)
(0 0 0)
(0 0 0)
(0 0 0)
(0 0 0)
(1.19776 -3.79812 -9.70101)
(0 0 0)
(0 0 0)
(0 0 0)
(0 0 0)
(0 0 0)
(0 0 0)
(0 0 0)
(0 0 0)
(0 0 0)
(0 0 0)
(0 0 0)
(0 0 0)
(0 0 0)
(0 0 0)
(0 0 0)
(0 0 0)
(0 0 0)
(0 0 0)
(0 0 0)
(0 0 0)
(0 0 0)
(0 0 0)
(0 0 0)
(0 0 0)
(-8.51013 7.24117 -11.541)
(0 0 0)
(-1.2291 -0.331463 2.77879)
(0 0 0)
(0 0 0)
(0 0 0)
(0 0 0)
(0 0 0)
(0 0 0)
(0 0 0)
(0 0 0)
(1.50792 11.3091 -9.90968)
(0 0 0)
(0 0 0)
(0 0 0)
(0 0 0)
(0 0 0)
(0 0 0)
(0 0 0)
(0 0 0)
(0 0 0)
(0 0 0)
(0 0 0)
(0 0 0)
(0 0 0)
(0 0 0)
(0 0 0)
(0 0 0)
(0 0 0)
(0 0 0)
(0 0 0)
(0 0 0)
(0 0 0)
(0 0 0)
(0 0 0)
(0 0 0)
(0 0 0)
(0 0 0)
(9.49336 -11.4316 3.58653)
(-1.79624 -2.51137 0.186231)
(0.699199 2.54778 0.0166217)
(5.79617 2.12349 -4.32357)
(-3.13809 1.50012 -0.62466)
(0 0 0)
(0 0 0)
(-0.837305 2.91598 0.328134)
(0 0 0)
(-16.5203 2.22627 -10.5097)
(0 0 0)
(0 0 0)
(0 0 0)
(-4.38299 6.25153 -1.10087)
(0 0 0)
(0 0 0)
(0 0 0)
(0 0 0)
(-1.50967 -15.045 2.1425)
(0 0 0)
(0 0 0)
(0 0 0)
(0 0 0)
(0 0 0)
(7.27213 -2.80607 -0.797996)
(0 0 0)
(0 0 0)
(0 0 0)
(0 0 0)
(6.804 -2.94086 -0.952769)
(0 0 0)
(0 0 0)
(0 0 0)
(0.666577 -5.71155 -0.785163)
(0 0 0)
(0 0 0)
(0 0 0)
(0 0 0)
(0 0 0)
(0 0 0)
(0 0 0)
(0 0 0)
(0 0 0)
(0 0 0)
(-1.26517 0.704819 -0.390994)
(0 0 0)
(0 0 0)
(0 0 0)
(0 0 0)
(0 0 0)
(0 0 0)
(0 0 0)
(0 0 0)
(0 0 0)
(0 0 0)
(-7.18306 -8.48956 9.49701)
(-0.820074 2.44831 -0.881822)
(-12.0092 5.03449 -4.70676)
(-3.84896 0.638177 5.53223)
(0.90652 10.1314 12.6242)
(0 0 0)
(0 0 0)
(-5.95724 12.4043 5.15068)
(0 0 0)
(-1.56696 1.30337 4.0048)
(0 0 0)
(0 0 0)
(10.296 -0.932007 -1.9032)
(-3.39878 -5.01091 -1.75303)
(0 0 0)
(10.449 -6.32504 -7.78786)
(0 0 0)
(-2.83071 0.513582 -1.96683)
(0.512503 -1.77657 7.87171)
(1.03737 2.97016 -0.253217)
(0 0 0)
(7.43777 -0.883588 1.36764)
(0 0 0)
(-0.840686 -2.02758 -5.03192)
(1.37468 -7.47022 0.894115)
(0 0 0)
(0 0 0)
(0 0 0)
(0 0 0)
(-1.01604 0.420715 1.403)
(0 0 0)
(1.05458 -3.30459 0.801549)
(0 0 0)
(0 0 0)
(3.79677 -12.1693 18.0733)
(0 0 0)
(0 0 0)
(0 0 0)
(0 0 0)
(0 0 0)
(0 0 0)
(0 0 0)
(3.83051 -8.28995 0.205713)
(0 0 0)
(0 0 0)
(0 0 0)
(1.81793 -0.813432 -1.73051)
(0 0 0)
(0.257691 -8.95792 3.87528)
(0 0 0)
(0 0 0)
(0 0 0)
(0 0 0)
(0 0 0)
(0 0 0)
(0 0 0)
(0.283548 -3.26062 -1.79667)
(0 0 0)
(0 0 0)
(0 0 0)
(0 0 0)
(0 0 0)
(0 0 0)
(0 0 0)
(0 0 0)
(0.331042 -3.07118 11.2098)
(8.52209 3.76815 2.44642)
(0 0 0)
(11.6472 0.151445 -7.53936)
(0.39062 1.05888 -0.846562)
(0.209471 -0.744511 -0.140954)
(5.34356 2.88654 3.5769)
(0 0 0)
(6.04674 -3.03049 17.6348)
(0 0 0)
(0 0 0)
(0 0 0)
(0.391631 5.1961 2.52214)
(-6.08163 9.32199 -8.78276)
(-18.6211 1.47497 -0.870434)
(-1.26814 -6.82218 9.98652)
(-2.99331 -2.15995 2.01894)
(0 0 0)
(5.30507 -1.87204 -8.67105)
(-14.0426 13.7731 -13.5451)
(2.42562 -0.944869 2.47999)
(-2.48996 2.55122 -1.02084)
(4.25483 11.1403 7.67838)
(0 0 0)
(-0.317353 -1.65736 -8.4818)
(0 0 0)
(0 0 0)
(12.5238 -4.64203 6.88867)
(1.16345 -2.96702 -1.02548)
(0.194838 0.9665 -0.831792)
(-0.0582191 -0.147489 -0.0324776)
(0 0 0)
(-0.720114 -0.0689327 -0.407369)
(-3.29308 -0.602778 -1.92751)
(4.31788 2.18883 -16.0033)
(15.7639 21.2573 -15.933)
(1.12824 5.17056 -5.50666)
(-3.50786 15.0199 -0.883347)
(-5.74535 3.0846 -6.74416)
(0.781247 -8.06063 -3.27733)
(-1.17601 -0.594439 0.904023)
(5.8926 7.36875 2.61345)
(8.03021 -4.51439 -7.38909)
(-5.22916 4.31078 -0.163844)
(-5.09171 7.97098 14.1512)
(2.43893 15.3521 -12.5656)
(-0.828284 -0.503561 -0.377205)
(0.0999326 -0.22333 -0.0370068)
(-16.0115 -8.21749 -9.85715)
(-3.73724 9.741 16.124)
(-0.7723 8.60927 -2.58326)
(11.4271 3.18074 -13.5112)
(-2.30506 -2.26177 -9.97951)
(-0.0554198 -0.153628 0.12725)
(0.706723 -9.92763 -2.04386)
(-5.12534 0.120238 3.08591)
(-3.57423 6.19014 -7.97336)
(-3.78351 -1.78004 9.30828)
(-2.28462 -4.00932 -0.738905)
(5.88276 -1.04553 -12.8256)
(11.7847 7.64494 -1.39333)
(-4.62599 -4.08515 6.24023)
(23.925 -7.23773 10.7415)
(3.96323 0.473751 2.45782)
(0.326276 -0.372319 0.202637)
(-12.5271 -9.60718 -0.0851501)
(3.41134 -10.1524 -14.7265)
(5.74962 -0.571364 -4.70814)
(-0.591873 0.624965 0.666434)
(7.24023 5.25553 -13.7812)
(-12.3782 -13.0653 0.351229)
(11.661 -11.3868 11.1876)
(0.827253 -0.452379 -0.27315)
(-3.35965 3.97739 3.05192)
(7.51942 11.2305 8.07219)
(-1.01623 0.882176 0.35434)
(1.67347 0.840763 2.97519)
(1.82064 12.7921 -1.67171)
(3.89053 0.147194 -0.460391)
(0.0891735 -3.44557 -4.13077)
(2.84716 -2.6189 -0.491737)
(-9.54203 2.52027 13.8466)
(18.0178 -1.93527 -8.68058)
(-1.16599 0.232214 6.54058)
(3.79501 -1.75628 2.78798)
(0.869834 -2.64125 1.38854)
(-3.91238 -0.649447 -0.180841)
(-0.0854519 11.0959 8.47912)
(-7.21527 6.04583 12.931)
(-8.80318 -3.52696 3.15934)
(-9.54504 -7.55699 1.51665)
(-0.180131 -0.0659429 0.163604)
(6.09169 12.5722 10.6953)
(-0.295318 -2.88603 -0.54645)
(1.48497 -0.0749379 -0.17036)
(-4.78531 6.501 2.25512)
(-1.18147 -1.08457 0.505258)
(2.35736 -3.70108 0.350956)
(3.19647 11.8135 -3.65714)
(-4.92862 -0.140616 -1.13889)
(24.6891 -7.30563 -1.19796)
(-16.1125 4.88663 -1.64035)
(23.5144 -9.71162 -2.26849)
(5.89058 5.87103 -7.505)
(0.446036 4.31961 -1.37875)
(-0.849148 -2.75025 2.16373)
(-5.57161 -11.1021 -1.76608)
(-11.8904 17.4975 16.7683)
(1.09296 -0.740573 -3.74722)
(2.89867 -6.47004 -3.04326)
(7.22281 -2.58652 -2.45484)
(-1.24093 -5.35191 4.86669)
(5.49295 -8.60907 -7.98627)
(0.650234 8.98207 6.11903)
(13.2315 0.0741049 0.640505)
(-2.52867 4.0665 2.75703)
(-2.68767 -31.7936 -14.2377)
(17.9084 -9.89644 1.21708)
(3.00545 1.08187 1.78507)
(-10.6782 2.46559 -1.39446)
(0.911304 3.19939 0.276423)
(-0.301416 3.06556 1.46622)
(0.563486 -1.30705 1.16059)
(-11.3593 7.82815 3.67184)
(0.0625113 -0.476165 0.674023)
(-0.481761 -0.986465 0.811708)
(-0.21889 0.391251 0.471278)
(4.56659 -21.104 -12.3738)
(2.84957 1.78313 4.5955)
(5.38658 5.36924 -3.52342)
(-1.66628 -21.1168 -5.7672)
(-2.32568 -1.97858 -0.852278)
(-1.3793 -11.5999 8.42428)
(12.6415 1.06787 -11.5793)
(2.16012 -0.469201 0.159463)
(5.30846 -2.70819 2.61452)
(-10.2673 1.28011 -3.32278)
(-16.9199 -9.34821 -9.39306)
(-2.42343 3.93769 6.61028)
(1.09358 -0.955964 0.577403)
(-3.30114 -0.436177 0.59434)
(0.244771 1.1389 0.775769)
(-0.921313 1.18542 1.44008)
(-0.256961 -3.73786 7.71619)
(-6.4035 -0.234555 3.92474)
(-2.02417 -2.2033 2.67113)
(0 0 0)
(-2.98701 -0.937074 -3.79234)
(1.04966 0.482413 -0.978174)
(-14.0084 -11.6485 -2.18296)
(-10.7413 -9.75577 8.13485)
(1.51165 -4.55117 4.25685)
(5.28944 -3.36826 1.97476)
(-1.67234 0.389682 3.40812)
(0 0 0)
(-8.16955 -5.67846 0.505114)
(1.07469 -1.07419 -0.272581)
(0 0 0)
(0.0157917 1.13371 2.5964)
(-1.02986 2.49537 -5.04867)
(-2.22849 -0.911151 -0.115157)
(-1.12253 -1.66412 3.61456)
(-0.0539657 -12.1611 -7.86727)
(-6.81917 -9.23353 8.21196)
(1.28427 -0.896164 -3.85059)
(0.665218 -10.8466 8.13538)
(-8.56982 -7.12614 -1.33546)
(-4.08573 -2.49194 -1.1816)
(-1.76985 18.4072 -0.933737)
(0.024522 0.176923 -0.320517)
(-0.166168 -4.23556 1.84325)
(6.25776 -1.88044 -0.356587)
(-3.32647 1.68404 -0.470239)
(10.5433 -10.2954 10.1153)
(0.330037 1.1344 0.148285)
(-0.767208 -2.98322 -9.32037)
(9.49121 -1.28976 -7.63285)
(-11.4977 -12.1359 0.326245)
(-7.00628 -10.9516 5.5795)
(3.02072 1.34462 -0.136771)
(7.45063 -11.6773 -10.8326)
(5.4843 -3.27748 5.09368)
(0.593391 -9.67542 7.25696)
(-4.03019 -2.92566 2.89311)
(-1.32984 -3.31662 -0.231237)
(18.0019 -13.4249 3.91405)
(2.65614 -0.585784 -10.9951)
(-0.536095 0.469009 2.30228)
(0.451362 -1.45317 2.49089)
(-4.86187 7.76239 3.12167)
(4.13615 -2.10954 -1.7087)
(0 0 0)
(0.253629 0.124546 0.197326)
(0 0 0)
(-7.3348 -0.476655 -5.90807)
(-1.55848 -1.3438 -1.77667)
(0.332381 3.49953 4.43582)
(5.76604 7.08339 0.200047)
(0 0 0)
(3.84142 0.390333 -4.43826)
(-3.37698 -1.08726 0.249326)
(-2.32955 1.36624 2.94433)
(-1.54525 3.56705 0.98406)
(0.442492 -0.628015 -0.379235)
(-3.41371 -1.91227 2.30401)
(5.16153 0.727923 -4.01589)
(1.91383 -2.65185 3.45855)
(-0.407549 -5.26055 0.573084)
(-2.39978 14.8361 -1.36309)
(-0.443988 1.77596 0.600864)
(-10.9141 -9.91269 8.2657)
(6.06802 26.2206 2.26268)
(-0.321151 1.0726 3.32865)
(-3.08214 5.64684 -7.03212)
(0 0 0)
(-8.34981 -1.48544 4.84971)
(2.54097 0.676138 -5.40838)
(4.47846 3.60281 -1.86941)
(-4.29003 2.64416 -2.46278)
(13.843 -12.4112 -2.69571)
(1.65302 -1.77674 5.72427)
(-2.71379 8.70863 -5.55863)
(-4.32492 2.61728 -5.94505)
(-2.27354 -1.22481 0.299906)
(5.75754 -7.00346 0.683571)
(0 0 0)
(0.208572 3.39402 3.29094)
(0.00112581 0.321792 0.00664356)
(-0.917506 -10.5033 -7.67331)
(-2.5313 -1.75397 -0.818187)
(-4.52275 3.63892 3.66829)
(-4.54537 8.60269 4.94189)
(-3.1338 -2.16333 -1.69149)
(1.84794 -8.28364 7.94711)
(3.89343 7.51833 8.6544)
(4.40427 -2.43165 11.8182)
(0.543909 1.96241 -0.804819)
(10.3209 -3.31926 6.38332)
(2.03858 0.607183 3.30559)
(18.4641 -4.04767 -11.2727)
(3.562 0.800581 1.01346)
(4.58872 -5.5817 0.5448)
(-4.01817 -9.24218 15.2624)
(-1.81273 6.5024 -8.46326)
(-8.156 -9.44733 11.8821)
(-0.523533 -0.498038 1.68881)
(1.16828 -5.23694 5.02419)
(-0.782714 -0.744597 2.52488)
(-2.88341 3.06644 -8.1929)
(15.9051 3.86287 -14.8892)
(-0.0777538 -0.329638 -0.165761)
(0.263636 -0.561623 -1.51843)
(-0.733138 -0.205802 -0.441316)
(0 0 0)
(0 0 0)
(-3.35324 -2.55565 -1.94322)
(0.780637 16.1667 -8.02297)
(-10.7037 -16.7311 8.52398)
(0 0 0)
(-3.10827 -3.03653 8.82612)
(0 0 0)
(-7.51031 6.31032 1.04702)
(-6.24815 3.73549 -3.24756)
(0 0 0)
(0 0 0)
(-3.76903 -8.66913 14.316)
(9.12199 8.44291 -1.86015)
(3.76585 4.16737 -3.62383)
(-1.69523 -0.441657 4.72021)
(-2.36063 -3.45327 -3.28858)
(-1.72459 3.82693 -2.44535)
(0 0 0)
(-10.3672 4.49248 -5.25971)
(0 0 0)
(11.7877 -7.5585 1.08336)
(-7.69975 -5.62348 -1.63511)
(3.14792 3.81797 -0.82782)
(0 0 0)
(1.83723 -1.0365 4.43997)
(-4.57266 -0.699291 -0.575743)
(-5.67583 -1.1063 4.40314)
(-10.0573 -11.9259 5.43926)
(2.64855 0.417638 -6.38562)
(1.16234 -15.7568 -8.45731)
(-3.59862 6.59309 -8.2105)
(-0.676426 0.643267 -0.945888)
(-0.329819 0.555137 -0.061651)
(-0.365425 -0.527549 0.678538)
(-1.4894 -10.9472 -3.57985)
(-3.49647 4.36467 -1.71365)
(1.45492 0.156582 7.33861)
(0 0 0)
(2.01536 -3.82996 -3.7281)
(0 0 0)
(4.46703 -9.7424 -7.76821)
(0 0 0)
(6.60599 1.29031 10.0622)
(-4.28521 -1.97014 10.9275)
(-15.2672 4.34982 -19.7939)
(2.74618 19.2951 -2.52154)
(-8.29705 17.0471 -11.5914)
(15.363 32.2403 -0.771979)
(-2.39295 22.3284 -3.20357)
(-6.19384 18.6119 -0.880011)
(9.02334 20.3796 13.5494)
(-6.61903 21.6498 12.0026)
(-1.52864 -0.584198 1.30992)
(-11.3119 6.84555 -15.5494)
(-15.6181 13.0629 -21.109)
(-3.89856 3.93017 -13.0993)
(-10.7017 -6.85778 5.66028)
(12.3437 -24.086 -12.7033)
(-1.94471 -0.273694 6.68356)
(3.26226 -2.08985 -0.685849)
(-0.962185 1.13631 2.52828)
(-4.45859 4.7416 -12.6686)
(3.70854 -4.42556 -0.292624)
(1.31585 8.25415 -3.10107)
(0.740378 10.2273 6.96733)
(1.29966 11.0181 2.09713)
(-3.24753 -3.17257 9.22154)
(-7.19106 14.1921 -13.923)
(8.81031 7.97007 15.5157)
(2.47765 -2.66309 8.5799)
(-1.39709 -0.133736 -0.790334)
(3.95771 -0.87283 -16.3829)
(-1.27104 0.263524 -1.96023)
(-0.0058995 0.0216194 0.0325746)
(-0.919459 2.93381 -3.43912)
(0.618859 5.99329 -1.91296)
(0.840316 15.5167 -1.12782)
(0.747628 0.860981 0.128373)
(-1.33274 0.6994 -7.92025)
(0.167262 -12.8756 14.5969)
(-3.50828 -0.91401 9.7685)
(2.51091 -3.69277 -2.6792)
(-3.0781 2.21336 -7.62183)
(-1.71465 0.868051 -0.242388)
(-0.120669 -0.305697 -0.0673156)
(6.06792 5.45521 3.64154)
(-2.40809 1.74387 -3.93693)
(4.11492 6.21628 16.1806)
(-5.10591 4.00845 8.16122)
(0.491119 -0.283541 -1.52683)
(-3.86167 15.5771 -16.492)
(8.39689 21.9854 15.1532)
(-1.77629 4.99069 9.19402)
(-15.302 8.36934 5.33866)
(2.25361 4.3458 -17.1976)
(1.58045 10.2583 2.57591)
(3.4849 10.06 -7.25764)
(11.6773 -3.75549 7.22224)
(0.486786 1.05514 -0.585295)
(8.38549 17.4412 4.45602)
(0.669892 -0.054896 -1.40682)
(0.525092 6.96685 3.38164)
(-6.3073 2.98535 -1.11437)
(0.012624 0.836631 0.157358)
(-0.0777019 18.8212 5.16357)
(0.329513 0.796243 2.46083)
(-1.62983 5.16114 -11.846)
(12.7668 1.53414 -9.80563)
(-8.33926 13.3144 5.35441)
(7.15425 -3.64984 3.52361)
(-5.67849 8.85838 -10.0048)
(8.65266 1.6276 11.7434)
(-15.1077 4.98823 -0.643018)
(5.75823 -1.0486 -10.7701)
(4.54749 3.43358 8.62512)
(-9.01784 -12.0986 11.9687)
(-14.9765 14.5131 -25.0439)
(-4.63725 14.8811 -9.49845)
(-6.10957 12.5724 -8.00445)
(-8.48216 -3.91037 7.94479)
(0.1195 -0.118467 0.0584734)
(-1.64765 4.91901 -1.77171)
(-5.12992 -5.93791 -6.60855)
(0.0374932 13.8198 -5.58951)
(1.68727 2.77055 -7.03516)
(-10.4094 11.5079 -11.2502)
(-36.3737 2.88114 -1.70027)
(-2.53593 -7.92681 7.6644)
(0.330964 2.59363 -2.56209)
(5.39437 6.64739 -2.75046)
(2.94968 0.891924 -4.57023)
(-0.275271 3.99952 -1.86889)
(-4.80366 0.807925 -1.02441)
(-2.5971 -0.359683 1.94425)
(10.0141 5.40953 6.7033)
(-0.0431119 -0.721541 0.158509)
(5.00155 -1.08447 -11.4947)
(4.6056 -8.55791 -6.40344)
(27.3316 -25.6982 4.07509)
(28.5939 10.8946 -9.25284)
(-5.48758 4.93747 -10.4354)
(-0.179658 -0.150391 -0.548927)
(6.58231 9.43784 6.43237)
(-8.84956 25.1592 -12.2831)
(2.51816 17.3117 16.8073)
(-4.39315 1.13407 -0.0858564)
(-0.826991 -1.13684 1.27897)
(-0.0332963 -0.0187587 0.0179516)
(0.191718 0.341482 0.171253)
(-0.939292 -3.22761 2.98136)
(-3.64603 18.2675 -3.34974)
(-0.0790345 -0.152694 0.125109)
(-1.77929 -4.45941 -1.50255)
(-0.493226 4.8411 -2.3359)
(-18.4724 7.93676 -29.3751)
(0.181619 0.127243 0.340657)
(0.738475 4.3863 -2.94484)
(-0.649241 -0.734976 -1.95596)
(-6.32397 -6.02807 -2.65745)
(-8.41533 12.8991 -12.153)
(9.50333 -3.97282 -9.05321)
(-0.447648 0.0622817 -1.62904)
(-2.18165 -5.9583 4.91002)
(4.77312 -1.08365 -3.631)
(0.761495 2.06423 -1.65033)
(-1.40555 1.16911 3.59226)
(0.39963 1.98237 -1.70608)
(0.669891 0.292895 8.44127)
(3.6279 0.139241 0.420382)
(1.899 5.43712 -0.463534)
(0.360565 -0.011915 -0.0846209)
(1.95755 -0.762538 2.00142)
(0.16077 -0.571418 -0.108183)
(1.57871 0.836375 -2.23315)
(16.642 0.216391 -10.7726)
(-5.75919 1.05215 2.14326)
(-1.94319 8.40838 5.12655)
(1.99832 1.04593 1.19247)
(6.00383 -2.11862 -9.81316)
(2.70255 -8.07556 -9.24375)
(2.40772 0.806375 -6.37995)
(12.4447 -5.07525 -4.23592)
(6.61778 3.19562 9.39147)
(-3.89012 -1.64299 -4.45442)
(-1.90524 -1.46002 5.40609)
(-10.4312 10.2311 -10.0617)
(2.77627 -13.1453 0.366723)
(0.0418786 0.0915343 -0.0123435)
(-7.7407 6.78495 4.58522)
(21.2317 17.1654 7.90876)
(8.75098 -0.185998 -3.97354)
(-1.33308 -0.167782 -14.1615)
(8.42543 -1.00092 1.54925)
(0.0302409 -2.93383 -1.38486)
(-6.35756 2.59597 -11.1057)
(0.780555 1.29428 -2.14253)
(-19.002 7.96601 -7.44745)
(8.38935 11.1219 0.589065)
(-7.59708 15.8188 6.5685)
(-15.4609 -5.19318 -12.0159)
(-1.03464 5.21438 3.01017)
(7.44943 -8.80365 2.59876)
(-6.9544 4.97676 1.26467)
(-2.70079 -3.04846 1.47551)
(0.609906 -9.6835 0.0155822)
(-4.43886 -3.20304 2.99394)
(14.9778 -10.1503 13.8033)
(-4.27207 -0.781976 -2.50053)
(13.7124 -1.24126 -2.5347)
(2.75492 -4.76775 5.1059)
(-2.50077 0.392593 -0.570512)
(4.34898 -1.86905 1.48456)
(-0.0267436 -0.0102528 -0.00867821)
(-1.88726 0.313989 -1.40388)
(0.323704 -0.683546 0.0527258)
(3.27639 -3.71208 -5.5364)
(-0.367124 2.48376 0.279627)
(-2.62737 0.435632 3.7764)
(16.6489 6.37701 4.07066)
(9.92332 -2.12311 11.7485)
(3.55159 -2.18621 0.480918)
(-1.43648 -3.46453 -8.59804)
(4.70457 -1.13731 -1.80521)
(10.6933 -3.96356 5.88184)
(13.8843 -13.85 11.8892)
(-1.62471 1.29322 0.551423)
(-5.30463 -0.101743 -11.5651)
(-8.70979 -6.01884 6.19247)
(4.34679 -3.97735 -0.208045)
(-6.73309 8.88876 -10.2558)
(-2.84834 5.10913 3.70453)
(-12.0764 2.74962 10.7475)
(6.62839 -6.3429 1.25605)
(-3.0548 -1.49734 7.43857)
(1.656 11.69 -6.68781)
(0.596415 -14.2462 -6.7622)
(-0.990511 -2.71479 4.31392)
(13.466 -0.141448 10.9814)
(3.89278 -5.84037 34.062)
(1.9819 -19.9496 -20.2747)
(1.12744 1.62188 2.87076)
(1.41952 -35.718 -13.1529)
(-2.93299 3.56893 -1.83985)
(-4.92521 3.24168 -4.63988)
(18.2173 2.28662 14.1477)
(7.45056 -7.04744 -11.8201)
(-1.86809 -6.96392 1.67499)
(2.28922 -5.54415 -6.17296)
(1.27037 4.61855 -1.26338)
(-0.973359 1.62043 -1.94307)
(-1.76481 2.44668 1.28502)
(0.736625 -6.78015 -8.06129)
(-3.52954 2.15611 -4.35932)
(-3.68538 0.915258 2.17118)
(6.54881 1.4698 -11.0647)
(-4.23775 14.453 0.588552)
(-0.0932753 1.95657 6.39)
(1.06325 -1.05631 -0.590395)
(0.0903846 -0.110428 -0.163411)
(-0.167061 0.204486 -2.61644)
(-5.44969 -2.21971 0.671746)
(-6.56882 -0.0873765 1.3661)
(7.44784 -6.42978 -4.42572)
(20.7963 -4.16136 5.8753)
(4.61135 3.8288 8.51975)
(-13.1473 4.50401 17.8435)
(-0.211432 0.175943 0.122214)
(1.56876 1.3901 -1.51045)
(12.9437 6.01849 -10.2335)
(0.986666 7.486 4.63607)
(3.42159 4.13001 1.10907)
(8.17974 -7.25471 -9.20787)
(-3.84888 -2.10308 1.08977)
(-0.429642 0.72484 9.86727)
(-13.5781 -2.03095 12.1154)
(-1.09495 -1.62093 2.00612)
(2.11706 -6.92702 2.26581)
(21.7825 -8.99632 -2.10141)
(-0.488541 -0.00864744 -0.226426)
(-12.6891 -12.9116 -22.2623)
(0.888709 -0.951203 3.28204)
(0.491759 2.85158 -1.14818)
(16.5709 26.0485 -3.71186)
(-0.0738904 5.62463 5.54392)
(-0.209089 -1.17836 3.10266)
(-6.67256 -1.11227 5.86445)
(-2.98667 5.31771 17.1965)
(-1.11166 3.5723 10.5382)
(1.62111 0.270073 3.86483)
(-1.21127 -9.23252 1.89385)
(2.36686 1.39234 8.89652)
(-0.0948611 -0.300979 -4.17614)
(-16.3945 6.11086 6.94952)
(0.724562 0.745886 0.474797)
(-2.75777 -0.714006 8.26561)
(-2.01955 -4.47745 -9.69072)
(0.938058 -0.206448 0.037472)
(8.25763 7.04745 -1.54102)
(-3.96259 -5.80676 8.02778)
(-23.2135 23.6365 0.0552652)
(5.81921 4.02801 0.554451)
(1.07635 0.288889 4.14581)
(-0.803629 -3.37628 -1.07309)
(6.39403 0.935023 -2.03899)
(-6.18438 -7.77371 -1.28045)
(-15.7882 -7.09499 9.54344)
(-4.46171 -5.21472 -4.18293)
(-3.91462 -3.10697 -2.85153)
(10.2552 -4.9108 -5.16119)
(-1.59767 -5.2562 -0.468513)
(-2.14724 -5.51276 -4.40571)
(-0.404668 5.05653 -0.878488)
(1.25209 -0.252456 0.119472)
(-9.15033 -3.36513 -0.836028)
(-0.516264 -1.14264 4.26921)
(3.77115 -1.07434 -0.221107)
(3.38087 -1.93692 2.32373)
(-0.642363 6.54481 1.20993)
(3.35332 8.62682 -15.8961)
(11.5378 10.6247 -2.20668)
(-0.490349 1.67789 -1.56165)
(5.10991 -6.45404 -2.70699)
(3.33913 3.39425 5.35803)
(11.6244 -2.31516 -17.7898)
(2.20712 4.6491 3.5639)
(3.42029 -0.524502 1.62214)
(0.0276232 -0.0158415 -0.0192111)
(0.740202 -4.13498 3.49393)
(-1.33711 0.445295 4.24256)
(-25.6288 -14.1599 -14.2278)
(-2.08362 -4.28248 1.95912)
(-6.59622 14.4458 -5.92937)
(-0.349324 1.12192 -0.0942128)
(-6.30746 -11.6643 -11.8602)
(4.50746 -2.63877 0.158148)
(0.378533 -0.655165 -1.41687)
(7.64363 -11.0839 -2.56463)
(0.661784 -1.43199 -0.946833)
(-2.42209 1.14943 -4.49779)
(4.35702 0.886567 3.42363)
(-0.377641 -0.387677 0.189231)
(1.32665 -1.44265 2.25496)
(-6.98218 3.58602 -0.411391)
(-2.36355 2.06592 -0.367824)
(5.60473 -10.4144 -7.36651)
(4.85872 -4.71597 1.12338)
(-13.4939 -5.08727 -1.63694)
(11.4709 5.05416 -4.54048)
(10.2735 11.1178 -0.23715)
(-2.59285 -3.99805 4.165)
(1.96892 -1.08087 4.6072)
(-16.2909 -6.79066 -6.68578)
(0.823899 -0.00388208 0.278244)
(-4.80572 1.16896 -4.15852)
(0.169784 17.4106 4.11837)
(-2.27568 7.08965 2.11785)
(5.75849 4.60854 3.13127)
(1.44554 9.52559 3.14705)
(-0.0732364 -1.5934 -1.50529)
(-6.0344 3.05359 2.86109)
(-17.8669 -8.17326 11.4407)
(2.89276 8.30412 -1.6195)
(-6.91683 4.88359 18.1923)
(1.95696 12.06 -3.66496)
(-0.00807133 -0.0719407 -0.00841321)
(-0.342941 4.78915 -1.02877)
(-26.8253 1.5371 4.72482)
(-7.80958 12.8069 -7.56503)
(-0.0129374 -0.476754 -0.193894)
(-2.27832 4.83643 -7.15132)
(-10.8451 18.0362 1.47373)
(0.100412 -0.253862 -1.67721)
(0.774002 0.838856 0.338759)
(11.1199 -3.11916 12.3857)
(2.16642 1.52623 -0.735703)
(0.14549 -0.325143 -0.0538777)
(1.24942 1.20277 1.91774)
(-20.8507 6.32367 -2.12274)
(-3.64424 38.0647 2.60061)
(-5.00434 6.97056 -2.8477)
(4.19878 3.79075 3.81053)
(15.8957 -0.529868 2.99177)
(0.346756 0.00396251 -0.978018)
(-14.7461 5.72129 -6.98565)
(-1.85658 1.55459 6.78145)
(-18.193 -1.18228 -14.6542)
(5.52885 6.71274 -6.68809)
(-1.75309 6.28294 -7.9634)
(-11.5669 1.1903 5.4489)
(4.54985 -4.41164 -3.83611)
(0.0995548 -0.778997 -0.546399)
(0.28418 -6.5741 0.528985)
(23.206 23.1346 8.47847)
(2.87844 0.2211 -2.19701)
(5.3647 11.4616 6.80035)
(-3.47088 10.9485 0.09161)
(-0.48361 -0.177041 0.439236)
(-0.415574 -2.8784 0.396457)
(-20.3548 -1.31719 -7.12142)
(-4.42501 -1.42481 10.2248)
(-3.40174 -4.44953 -10.1942)
(5.28902 19.5472 -6.05125)
(3.18039 -4.78147 -4.96769)
(9.17493 -9.07724 -10.6214)
(15.8353 2.86707 8.2064)
(-8.50871 -4.76634 5.74275)
(14.0787 11.6046 12.6197)
(-2.62661 -0.0936718 1.05259)
(1.69479 2.39426 -0.94727)
(1.44613 8.64147 0.689748)
(-6.61465 -2.70449 -0.341811)
(-1.15295 -0.149722 -5.89846)
(2.84893 8.52437 3.46637)
(-3.99919 33.7323 -23.8799)
(-11.0114 9.6008 -13.9671)
(-5.17758 -6.70571 7.00293)
(18.3187 8.07136 -7.25104)
(5.3614 -0.315466 -0.97632)
(0.210113 -7.11371 -3.74283)
(2.12928 1.07181 -1.15255)
(-0.431556 -11.0002 4.78711)
(5.19463 -5.26519 11.3784)
(17.3469 8.64672 -0.990442)
(-4.06503 -3.45834 -1.48969)
(-0.370629 -2.64362 -1.59766)
(14.4562 0.519386 -5.31207)
(11.1887 -7.76886 -7.33886)
(-0.714082 -0.43242 -1.84558)
(-7.10221 0.130373 -3.51849)
(6.93111 14.1318 -33.1141)
(3.49363 0.93944 -1.62087)
(-3.51344 9.58647 3.88093)
(-3.38132 0.211905 -5.15283)
(-0.426943 -0.351132 2.47001)
(-10.4087 1.28389 -4.64208)
(1.78195 8.16585 1.59346)
(12.1458 3.00935 28.9365)
(3.60336 2.44264 1.59544)
(0.421478 1.41662 -1.74685)
(-0.546428 -3.32401 4.54143)
(-3.21661 -15.1793 13.9813)
(-4.02148 7.38027 2.86789)
(-7.50939 0.825947 -4.85295)
(2.07835 2.13952 1.36192)
(0.294917 -0.360316 -0.533197)
(-25.0967 15.5373 12.9213)
(-0.176312 -5.00641 -2.79997)
(1.14034 -0.892809 2.9413)
(-1.09629 5.11359 5.93756)
(-22.4757 -13.1785 -5.2579)
(12.3511 7.6798 14.4431)
(-12.6265 -10.0194 5.53733)
(-0.187372 -0.933297 -0.966829)
(0.0197816 1.42016 3.2524)
(-17.1355 -1.27894 -4.98155)
(19.7392 8.66225 10.8077)
(-14.7537 1.83948 -4.77472)
(22.9587 -2.20611 -0.7668)
(-31.1595 21.4732 10.0721)
(-7.94197 -0.290908 4.86768)
(0.00719378 -0.0476669 0.0333624)
(-9.83833 13.3657 4.63639)
(-0.528252 1.12777 -0.719505)
(-11.457 12.5612 3.10854)
(0.95795 4.50394 -3.84863)
(-1.57791 -0.807842 -1.25233)
(-6.93798 3.7249 -8.14413)
(0.00699401 12.332 -15.4264)
(13.7906 9.914 18.3269)
(-4.91489 7.1622 5.80075)
(-1.22995 4.91984 1.66453)
(1.53849 -3.56865 3.16877)
(2.1865 -4.73121 -3.12828)
(-4.52812 -3.12586 -2.44409)
(22.4084 -2.40685 -10.7959)
(-2.05449 -17.2782 12.5481)
(-2.00863 2.01077 9.20056)
(-9.20575 0.410231 7.61091)
(-11.725 -8.53309 -5.22021)
(-8.47457 4.81077 11.8209)
(-5.54087 -1.78395 0.409088)
(-0.854327 -1.23336 1.58635)
(12.8728 26.5672 22.601)
(17.6402 10.5055 -5.68443)
(-1.54662 -6.69779 -4.29294)
(1.84716 -0.406523 0.0737873)
(9.6475 3.4728 5.73009)
(1.2737 -4.10072 7.02907)
(0.872952 -0.0868776 -1.75054)
(-1.43638 -0.403212 -0.864638)
(5.74819 2.93522 -8.08893)
(-3.15609 3.7827 -3.73593)
(-2.1645 -1.04248 -10.3391)
(-6.62933 -3.61509 -11.0418)
(4.28872 2.68368 6.91642)
(-3.53813 -0.369544 -1.63509)
(0.807136 2.77427 0.362644)
(1.29243 -0.0821831 -0.556561)
(0.00185684 0.530745 0.0109575)
(-11.4723 3.91423 0.132296)
(-0.417176 0.745673 0.898194)
(-15.8615 5.8147 -2.49437)
(1.65317 -9.00281 9.68825)
(11.1842 -5.70421 -4.62033)
(-3.9824 -4.33484 5.25526)
(1.13385 0.980486 -3.51953)
(1.1982 -0.420382 -0.987037)
(-5.15311 11.4349 -7.30674)
(-5.6155 1.34821 -2.32303)
(0.749006 -0.789534 -0.937212)
(-4.36198 10.3502 -26.4568)
(-4.15276 -2.32672 28.439)
(-12.5893 -3.56326 2.61063)
(-0.270754 7.69074 0.0684111)
(5.36697 3.79344 0.439247)
(-1.17102 1.9756 26.8939)
(0.0984754 -3.80499 -4.56166)
(9.79978 -9.74112 -14.762)
(-13.8166 9.74339 -28.0002)
(-2.62447 14.252 -5.90122)
(-12.8856 -2.68434 1.17149)
(-30.0215 10.4969 -7.28585)
(-0.108969 -0.302071 0.250204)
(14.4318 -7.49401 -2.81123)
(-1.27943 -1.68877 -2.3343)
(14.8291 22.1478 15.9192)
(-5.74565 -4.17098 4.12458)
(1.5677 5.65623 -2.31972)
(1.31453 -1.42947 2.23436)
(-2.98349 -3.4886 -1.46683)
(10.8679 6.27433 -9.56805)
(15.0566 -4.12638 10.7029)
(1.16527 -0.63722 -0.384759)
(36.616 6.81231 -8.98953)
(4.1878 -3.399 -4.94993)
(-3.63761 13.0484 -16.9832)
(-5.2345 -1.35525 15.6889)
(-1.23889 8.39113 5.12997)
(-10.0556 4.12054 4.9524)
(7.37546 10.1132 -3.86706)
(-6.43954 10.081 17.8972)
(-2.03304 -1.86629 0.869432)
(0.846418 0.631849 -1.25986)
(3.28074 14.833 -19.851)
(-5.08437 23.6497 -8.6289)
(-4.41818 7.17882 12.0512)
(0.576107 2.18397 -3.1545)
(11.5661 11.5289 -7.56552)
(2.69708 -6.87805 -2.37723)
(-7.37577 16.1531 -6.63011)
(-12.5286 7.72196 -7.19227)
(0.177973 -0.271679 0.344891)
(1.13092 7.62905 -1.06872)
(1.45628 -1.01619 -4.36631)
(6.90627 -6.35257 -1.19279)
(7.20015 3.20501 -0.326005)
(-12.7531 2.88873 10.6026)
(-1.75234 -3.90532 4.05725)
(3.92658 0.432199 12.3963)
(-16.5364 -4.50301 6.66408)
(2.64106 0.959445 -4.54464)
(2.6899 -0.584275 0.198572)
(21.7611 -2.95712 -17.5004)
(-0.657313 1.59268 -3.22234)
(-0.294994 2.11334 -2.4088)
(-0.339905 -4.38741 0.477965)
(19.7757 8.74406 5.67696)
(-7.21559 -4.40088 -2.08676)
(0.477402 -0.677562 -0.409155)
(7.95373 -2.50091 9.84052)
(-0.484078 0.511143 0.54506)
(-9.3964 5.44602 2.83385)
(-5.13584 10.4696 -15.5085)
(6.91293 1.83949 -14.7139)
(12.6588 -2.35604 2.94189)
(4.97483 9.60656 11.0582)
(15.059 -3.76665 3.10861)
(-4.14624 -4.06839 -17.9508)
(0.148736 -1.13296 1.60373)
(-3.73758 6.84768 -8.52754)
(-7.22273 -5.87569 -9.27392)
(-17.7113 -14.7277 -2.76)
(19.3812 4.7071 -18.1432)
(5.47785 0.772534 -4.262)
(0.381523 1.7752 1.20919)
(2.38291 14.9994 -12.2769)
(3.58358 0.364133 -4.14035)
(-13.5828 25.162 -11.3748)
(-2.86898 17.7368 -1.6296)
(-13.2622 2.49111 -2.62043)
(-1.80551 -6.24322 -4.42408)
(-1.39559 1.22095 5.99344)
(-3.13226 1.04314 9.93849)
(7.751 -1.18862 3.67605)
(-2.76743 -3.93936 -1.54858)
(-1.0393 -0.98869 3.35258)
(-5.31733 4.45551 9.5296)
(-2.877 -4.20865 -4.00793)
(2.933 0.39747 -1.03998)
(1.71521 19.1695 23.8862)
(7.35912 8.17408 -1.77032)
(-0.196539 0.384717 -0.280682)
(3.99188 5.57946 -1.41626)
(3.24086 0.728403 0.922091)
(-8.21674 -2.57772 -10.432)
(-7.40878 0.173806 4.46075)
(5.8653 0.221907 -0.694079)
(-14.5548 -5.35816 21.5251)
(13.9832 -4.2019 -0.796806)
(-1.05589 -0.0104285 -0.563095)
(15.2458 -4.42774 5.37875)
(-0.81497 -0.466785 -1.21262)
(7.89932 0.833103 8.78633)
(-1.32479 -1.96396 4.26584)
(-0.790907 -0.405726 -1.07245)
(-8.36282 -12.3295 -4.3134)
(-8.58821 5.13451 -4.46383)
(8.39483 3.93082 -2.99915)
(-3.94548 -5.0182 -1.03416)
(0.422219 2.05628 2.00676)
(-0.00677185 1.56824 0.609605)
(-0.839112 -2.71774 2.13815)
(12.4251 10.9488 -17.8264)
(5.54447 1.6514 8.99047)
(-14.4301 -22.5559 11.4915)
(4.13783 -6.10596 1.21083)
(3.23101 7.92306 -5.26719)
(-12.7834 0.336962 1.50319)
(-2.34301 3.01466 3.6623)
(-0.830118 2.77249 8.60398)
(0.232064 0.113956 0.180548)
(-26.9614 -4.08338 5.20003)
(3.59792 -2.00979 -0.40099)
(-2.63951 -0.348757 0.475221)
(0.807079 -1.34448 2.17407)
(-6.57587 3.85661 8.31126)
(-6.88457 3.53589 -0.405639)
(1.95718 -1.91793 -2.3639)
(-2.41381 25.1047 -1.27347)
(1.2233 1.75153 0.723943)
(-2.18484 5.51471 -0.138421)
(4.91604 7.62945 2.24716)
(-1.92026 -8.72941 -13.5097)
(1.15957 -3.52105 1.85105)
(2.94747 -4.33258 9.87924)
(-4.68058 3.7659 3.79629)
(-1.01647 2.34641 0.647317)
(1.76106 -1.76024 -0.446669)
(2.47477 -0.626325 -1.74729)
(25.219 3.66671 6.03524)
(-12.8496 17.0783 14.6777)
(0.905171 0.399622 -0.36211)
(0.0207766 0.149901 -0.271563)
(-5.83911 4.67158 -3.0861)
(-11.7381 6.4484 17.8476)
(-4.45037 6.09954 -10.9384)
(-4.05157 10.0487 8.2735)
(0.361388 -0.364373 -0.0883728)
(16.875 -3.6993 -10.3025)
(-11.8191 17.3926 16.6678)
(3.24388 -0.856874 -2.24105)
(-16.4668 3.30902 3.38009)
(-4.0916 0.953405 8.33839)
(-0.416367 -2.8252 0.704404)
(-0.209376 -0.887651 -0.446363)
(-37.4204 25.8114 2.17186)
(-2.87047 26.7841 -3.84285)
(16.7968 24.0154 19.9231)
(-2.66099 27.7945 1.89895)
(-23.6278 36.6454 20.0445)
(-23.1791 20.3172 13.7302)
(6.12181 11.5802 -4.47848)
(16.8017 26.4113 -3.76356)
(-14.4026 6.70988 -8.51112)
(16.8868 22.7716 -17.068)
(-7.28513 39.4806 -17.1944)
(-3.02637 -0.564184 3.53041)
(9.91574 9.72295 13.2591)
(-2.22082 1.73848 1.87475)
(1.6852 5.91638 0.511168)
(5.17455 21.0963 -21.6588)
(16.6193 18.4016 -6.4312)
(-29.1954 13.6432 -8.16589)
(-8.01793 29.3226 -1.52262)
(2.60311 12.8259 -13.2347)