/*--------------------------------*- C++ -*----------------------------------*\
  =========                 |
  \\      /  F ield         | OpenFOAM: The Open Source CFD Toolbox
   \\    /   O peration     | Website:  https://openfoam.org
    \\  /    A nd           | Version:  7
     \\/     M anipulation  |
\*---------------------------------------------------------------------------*/
FoamFile
{
    version     2.0;
    format      ascii;
    class       labelField;
    location    "0.11/lagrangian/reactingCloud1";
    object      active;
}
// * * * * * * * * * * * * * * * * * * * * * * * * * * * * * * * * * * * * * //

422{1}

// ************************************************************************* //
