/*--------------------------------*- C++ -*----------------------------------*\
  =========                 |
  \\      /  F ield         | OpenFOAM: The Open Source CFD Toolbox
   \\    /   O peration     | Website:  https://openfoam.org
    \\  /    A nd           | Version:  7
     \\/     M anipulation  |
\*---------------------------------------------------------------------------*/
FoamFile
{
    version     2.0;
    format      ascii;
    class       scalarField;
    location    "0.11/lagrangian/reactingCloud1";
    object      age;
}
// * * * * * * * * * * * * * * * * * * * * * * * * * * * * * * * * * * * * * //


422
(
0.009761
0.006665
0.006353
0.006377
0.006641
0.006617
0.006497
0.006305
0.006689
0.006185
0.006137
0.006233
0.006281
0.006593
0.006161
0.006761
0.006017
0.006041
0.006209
0.006257
0.006089
0.006329
0.005993
0.006425
0.005873
0.005945
0.005897
0.005753
0.005729
0.005585
0.005537
0.005777
0.005561
0.005489
0.007385
0.005849
0.005417
0.005657
0.005921
0.006065
0.006113
0.005321
0.005393
0.005297
0.005825
0.005633
0.005249
0.005465
0.005273
0.005969
0.005129
0.00510462
0.005345
0.005009
0.005153
0.004985
0.005681
0.005801
0.002249
0.001793
0.001697
0.001601
0.001577
0.001553
0.001529
0.001505
0.001481
0.001457
0.001433
0.001409
0.001385
0.001361
0.001337
0.001313
0.001289
0.001265
0.001241
0.001217
0.001193
0.001169
0.001145
0.001121
0.001097
0.001073
0.001049
0.001025
0.001001
0.000977
0.000953
0.000929
0.000905
0.000881
0.000857
0.000833
0.000809
0.000785
0.000761
0.000737
0.000713
0.000689
0.000665
0.000641
0.000617
0.000593
0.000569
0.000545
0.000521
0.000520625
0.000497
0.000473
0.000449
0.000425
0.000401
0.000377
0.000353
0.000329
0.000305
0.000281
0.000257
0.000233
0.000209
0.000185
0.000161
0.000137
0.000113
8.9e-05
6.5e-05
4.1e-05
1.7e-05
0.002921
0.002873
0.002825
0.002777
0.002729
0.004145
0.002753
0.002705
0.002681
0.002633
0.002657
0.002609
0.002585
0.002561
0.002537
0.002489
0.002513
0.002465
0.002441
0.002393
0.002369
0.003473
0.002417
0.002297
0.002321
0.002345
0.002273
0.002225
0.002201
0.002177
0.002153
0.002129
0.002081
0.002105
0.002057
0.002009
0.002033
0.001985
0.001961
0.001889
0.001937
0.001913
0.001865
0.001817
0.001841
0.001769
0.00179262
0.001745
0.001721
0.001673
0.001649
0.001625
0.005225
0.004505
0.004337
0.004001
0.004073
0.004313
0.005705
0.003881
0.003905
0.003977
0.004241
0.003833
0.003953
0.004289
0.004025
0.003713
0.003785
0.008825
0.003737
0.003641
0.003929
0.003761
0.003809
0.003617
0.003689
0.004913
0.003545
0.003593
0.004049
0.003569
0.003665
0.003857
0.003521
0.003377
0.003353
0.003497
0.003449
0.004961
0.003425
0.003233
0.003257
0.003329
0.003209
0.003281
0.003113
0.003161
0.003089
0.003185
0.003041
0.003401
0.003065
0.002969
0.002945
0.003017
0.003137
0.00308862
0.005609
0.002993
0.002801
0.002849
0.003305
0.002897
0.004841
0.005105
0.008465
0.005513
0.005081
0.005369
0.004793
0.004769
0.004721
0.004817
0.005177
0.004937
0.004697
0.005201
0.007025
0.004745
0.004889
0.004601
0.005057
0.004553
0.004481
0.004649
0.004457
0.004625
0.004529
0.005033
0.004433
0.004409
0.004673
0.00448062
0.004865
0.004193
0.005441
0.004361
0.004577
0.004265
0.004097
0.004121
0.004217
0.004385
0.004169
0.009977
0.009953
0.009929
0.009881
0.009809
0.009689
0.009905
0.009569
0.009713
0.009785
0.009497
0.009857
0.009449
0.009833
0.009617
0.009425
0.009353
0.009329
0.009593
0.009233
0.009305
0.009185
0.009281
0.009257
0.009137
0.009401
0.009377
0.009209
0.009041
0.009065
0.008969
0.009089
0.009017
0.009473
0.009113
0.008921
0.009161
0.009641
0.008993
0.008897
0.008873
0.009665
0.009545
0.009737
0.008849
0.008801
0.008945
0.008633
0.008657
0.009521
0.008729
0.008537
0.008489
0.008777
0.008441
0.008345
0.008393
0.008705
0.008249
0.008561
0.008369
0.008297
0.008201
0.008273
0.008225
0.008321
0.008609
0.008177
0.008057
0.008681
0.008153
0.008585
0.008009
0.008081
0.007985
0.008753
0.008033
0.007961
0.008129
0.007793
0.007937
0.007841
0.008417
0.007865
0.007913
0.007673
0.007721
0.007697
0.007889
0.007745
0.007817
0.008105
0.007505
0.007481
0.007553
0.007649
0.007577
0.007361
0.007601
0.007217
0.007193
0.007313
0.007409
0.007289
0.007337
0.007145
0.007121
0.007625
0.007241
0.007073
0.007265
0.007049
0.007097
0.007169
0.007433
0.00772062
0.007457
0.006953
0.007001
0.007529
0.007769
0.006809
0.006977
0.006929
0.006905
0.006857
0.006785
0.006737
0.006833
0.008513
0.006569
0.006521
0.006545
0.006713
0.006881
0.006449
0.006401
0.006473
)


// ************************************************************************* //
