/*--------------------------------*- C++ -*----------------------------------*\
  =========                 |
  \\      /  F ield         | OpenFOAM: The Open Source CFD Toolbox
   \\    /   O peration     | Website:  https://openfoam.org
    \\  /    A nd           | Version:  7
     \\/     M anipulation  |
\*---------------------------------------------------------------------------*/
FoamFile
{
    version     2.0;
    format      ascii;
    class       labelField;
    location    "0.11/lagrangian/reactingCloud1";
    object      cellId;
}
// * * * * * * * * * * * * * * * * * * * * * * * * * * * * * * * * * * * * * //


422
(
123
21
18
19
21
54
55
83
120
115
113
117
152
153
115
153
145
221
218
221
258
331
256
285
289
361
398
432
467
463
497
499
535
530
576
575
603
644
645
641
677
634
674
705
712
747
775
779
867
897
919
919
950
972
1004
1055
1032
1057
660
720
560
1043
1029
1027
1006
987
969
964
947
930
911
903
841
867
845
845
823
810
786
770
754
745
722
703
684
666
651
643
621
612
597
567
541
521
526
502
482
466
442
426
400
410
393
180
342
324
327
327
305
284
262
269
243
236
201
203
190
168
142
143
132
110
82
60
66
42
46
25
1
917
998
1020
979
1003
555
878
1026
918
987
878
878
922
838
881
863
882
889
819
756
802
656
677
788
761
697
741
743
749
728
703
661
668
660
646
628
620
628
606
565
517
539
520
529
498
491
479
460
459
427
426
398
740
1023
945
1030
926
842
781
977
953
845
763
830
763
580
683
773
686
340
625
651
562
604
562
609
565
544
594
548
441
549
484
442
425
454
436
364
323
261
283
312
288
264
269
245
277
207
212
185
192
141
126
132
133
86
82
82
0
44
31
7
1
5
432
465
576
492
462
547
487
486
511
542
544
572
567
601
628
624
627
704
791
731
727
760
752
788
813
843
865
920
1005
1032
379
413
359
361
319
302
311
286
241
199
166
745
789
834
829
830
867
871
907
909
911
950
953
949
24
8
7
3
59
3
15
60
16
38
38
34
38
59
93
52
54
52
90
54
128
127
87
125
127
125
123
84
233
197
117
123
123
158
156
227
264
225
226
224
334
259
256
290
296
287
402
329
329
323
365
364
329
400
399
357
399
396
434
395
466
431
467
465
467
501
461
501
499
534
535
606
530
532
532
569
603
632
663
630
630
632
692
687
687
690
684
715
748
749
750
750
746
745
810
778
773
775
770
775
776
778
777
866
836
865
865
895
861
892
892
893
922
920
950
982
1010
1006
1005
1006
1035
1034
1032
1053
1053
)


// ************************************************************************* //
