/*--------------------------------*- C++ -*----------------------------------*\
  =========                 |
  \\      /  F ield         | OpenFOAM: The Open Source CFD Toolbox
   \\    /   O peration     | Website:  https://openfoam.org
    \\  /    A nd           | Version:  7
     \\/     M anipulation  |
\*---------------------------------------------------------------------------*/
FoamFile
{
    version     2.0;
    format      ascii;
    class       vectorField;
    location    "0.11/lagrangian/reactingCloud1";
    object      coordinates;
}
// * * * * * * * * * * * * * * * * * * * * * * * * * * * * * * * * * * * * * //


422
(
(1.74059 0.103373 6.10171e-07)
(1.8091 0.0711573 3.39384e-07)
(1.82077 0.043844 7.54781e-15)
(1.8107 0.0564405 -2.32255e-10)
(1.79728 0.0662692 -1.93585e-07)
(1.78235 0.0793659 -8.92961e-08)
(1.77361 0.0837387 5.64152e-08)
(1.76262 0.052073 -6.64171e-08)
(1.724 0.0863941 -3.55906e-07)
(1.7241 0.053808 -6.77083e-07)
(1.729 0.0422518 1.93372e-13)
(1.72879 0.0702258 -3.78812e-07)
(1.71538 0.0711083 -3.11958e-07)
(1.70486 0.0755973 2.02514e-08)
(1.722 0.055727 1.29625e-07)
(1.69609 0.0725181 -5.85853e-08)
(1.69303 0.0235199 -3.55189e-15)
(1.65861 0.05901 -5.21536e-08)
(1.66394 0.0418285 -1.56248e-07)
(1.661 0.0632346 -8.80619e-09)
(1.63443 0.0785374 7.30659e-08)
(1.59428 0.093854 -5.30801e-07)
(1.63608 0.0592742 -3.86631e-09)
(1.60003 0.023325 1.03381e-06)
(1.60375 0.048114 -5.5721e-13)
(1.57347 0.0620914 -1.08338e-07)
(1.54229 0.0763083 4.50685e-08)
(1.52713 0.0656083 5.46205e-07)
(1.50014 0.0648039 -7.64404e-08)
(1.48983 0.0392679 9.66352e-14)
(1.47561 0.0296054 -1.99946e-12)
(1.47759 0.0440157 1.62131e-07)
(1.46159 0.0511171 -4.54132e-13)
(1.45957 0.0219931 -1.60774e-12)
(1.44038 0.0918452 2.22395e-07)
(1.43261 0.0834545 -1.52284e-07)
(1.41926 0.0361224 -2.95567e-12)
(1.40575 0.0781376 5.7802e-08)
(1.40486 0.0850419 -4.78417e-07)
(1.39959 0.0564762 1.20204e-07)
(1.3884 0.0744015 2.09184e-07)
(1.39046 0.0145937 5.12527e-14)
(1.38944 0.0492389 -8.0035e-13)
(1.36766 0.0330732 -3.61997e-14)
(1.36278 0.0776205 1.53805e-07)
(1.3491 0.0863115 2.97255e-07)
(1.33365 0.0440739 -6.62864e-13)
(1.32807 0.0729516 6.28317e-07)
(1.28194 0.0702518 -3.90242e-08)
(1.26164 0.0873122 -1.30965e-07)
(1.25155 0.056716 -3.79632e-08)
(1.2487 0.0586515 4.75496e-08)
(1.23134 0.0812452 -2.33643e-07)
(1.21997 0.0510681 -1.63798e-12)
(1.20404 0.0842076 2.10973e-08)
(1.17533 0.0623443 -2.32801e-07)
(1.18073 0.0877526 7.78807e-07)
(1.16553 0.0764035 1.18204e-08)
(0.346799 0.132248 2.06431e-07)
(0.362781 0.134385 9.18587e-08)
(0.326578 0.127171 6.66732e-08)
(0.429164 0.125866 7.78997e-11)
(0.425691 0.0782457 -2.0504e-11)
(0.423249 0.0944475 1.06291e-12)
(0.420546 0.099037 8.54616e-11)
(0.416554 0.0906991 4.78959e-11)
(0.412918 0.0780673 -5.98977e-11)
(0.411792 0.112946 5.79517e-11)
(0.407509 0.0889125 4.81432e-11)
(0.403101 0.0696876 -5.5339e-12)
(0.399556 0.0609962 -2.23369e-11)
(0.399261 0.116732 2.04793e-11)
(0.385416 0.131463 -1.17446e-08)
(0.390892 0.0867785 -6.16834e-12)
(0.388731 0.102402 -1.62534e-10)
(0.385281 0.0993186 -3.8041e-12)
(0.383297 0.11613 -2.49796e-12)
(0.375977 0.062632 -1.7257e-11)
(0.374126 0.0921864 -7.41253e-12)
(0.369004 0.0683281 -5.44749e-11)
(0.364099 0.0361667 -7.97135e-13)
(0.363452 0.0973419 -5.24803e-11)
(0.361206 0.119244 -9.20705e-11)
(0.356598 0.10829 -1.45164e-10)
(0.352407 0.106211 -1.66069e-10)
(0.34795 0.0904391 -2.2804e-11)
(0.342155 0.0593089 -6.28111e-11)
(0.340886 0.107843 -2.48062e-11)
(0.336884 0.124216 -2.9432e-11)
(0.330677 0.0482511 -2.14114e-12)
(0.326047 0.0131849 -1.21387e-11)
(0.323825 0.0802249 -3.9535e-11)
(0.320917 0.120664 6.35021e-12)
(0.317188 0.119568 6.99212e-11)
(0.312336 0.0874104 1.33005e-11)
(0.30881 0.110803 -7.06118e-12)
(0.305423 0.111983 -4.33723e-11)
(0.300918 0.085076 -3.7255e-11)
(0.296871 0.109721 -8.57598e-11)
(0.292645 0.0858705 1.3857e-11)
(0.285547 0.124344 5.40451e-07)
(0.284978 0.0633844 -2.80765e-11)
(0.28084 0.039122 -1.59371e-11)
(0.230526 0.128354 -3.12546e-13)
(0.273267 0.115974 -9.03808e-12)
(0.268421 0.0995062 5.07342e-11)
(0.265254 0.0797182 -2.93851e-12)
(0.264777 0.0785202 -1.05218e-11)
(0.260879 0.0915767 -2.39023e-11)
(0.25706 0.101061 4.7778e-12)
(0.253218 0.110396 3.45996e-12)
(0.24905 0.0704044 -6.17276e-12)
(0.245272 0.106597 9.3373e-12)
(0.241289 0.0210935 2.91901e-13)
(0.236863 0.118659 1.26005e-11)
(0.233206 0.10703 2.7485e-11)
(0.228673 0.0638651 -4.87502e-12)
(0.225141 0.0765835 -5.47996e-12)
(0.2214 0.113858 1.52223e-11)
(0.216851 0.104584 1.23594e-11)
(0.212564 0.046444 -1.0509e-12)
(0.209496 0.0600656 5.8521e-13)
(0.205102 0.110742 1.84975e-12)
(0.197174 0.126088 -5.75394e-13)
(0.197584 0.0851521 -1.40074e-12)
(0.192992 0.111701 2.86568e-13)
(0.189485 0.0872964 1.72415e-11)
(0.185104 0.090606 -2.81659e-13)
(0.181177 0.117057 -7.29328e-14)
(0.543228 0.132807 -7.30452e-08)
(0.558609 0.127908 3.47044e-11)
(0.563483 0.108279 -1.56872e-11)
(0.55461 0.11868 -1.76787e-11)
(0.557849 0.0911563 9.62673e-11)
(0.46573 0.162926 -2.32447e-10)
(0.534477 0.131716 -5.11011e-07)
(0.560046 0.0658434 -1.02463e-12)
(0.539721 0.127526 -2.28364e-11)
(0.552004 0.0597089 3.28312e-11)
(0.534407 0.131915 -8.2676e-12)
(0.532019 0.128669 -5.57733e-13)
(0.539916 0.0975351 -2.03078e-12)
(0.525275 0.130332 -3.41719e-07)
(0.531842 0.108927 5.42797e-11)
(0.530035 0.092433 4.77702e-12)
(0.530759 0.101789 2.87298e-12)
(0.533205 0.0406202 2.25434e-13)
(0.518177 0.123173 4.27511e-11)
(0.506225 0.151203 -8.29389e-07)
(0.515445 0.103678 1.28984e-10)
(0.48689 0.152906 2.61826e-07)
(0.492714 0.147514 -1.55695e-08)
(0.512502 0.0548498 1.09535e-12)
(0.508635 0.112206 3.84541e-11)
(0.494804 0.145185 8.65771e-08)
(0.502934 0.113334 1.3984e-10)
(0.50143 0.0899376 3.74298e-11)
(0.501056 0.0421211 1.16744e-11)
(0.498467 0.0529752 3.23165e-13)
(0.49329 0.090386 6.30192e-11)
(0.48817 0.113832 4.64978e-12)
(0.487066 0.0576241 4.46254e-11)
(0.484789 0.11756 2.41397e-11)
(0.483827 0.0698428 3.61013e-12)
(0.478445 0.0540537 -3.36077e-13)
(0.476897 0.119048 2.47292e-11)
(0.475758 0.0560614 -4.73864e-13)
(0.472317 0.0696588 -2.0181e-12)
(0.463495 0.0789358 -7.34759e-12)
(0.459613 0.145028 -7.27297e-08)
(0.462925 0.128585 2.11391e-11)
(0.459229 0.121173 1.1452e-12)
(0.454726 0.048155 3.97043e-13)
(0.455044 0.131001 4.69573e-12)
(0.448893 0.0292722 -9.37306e-13)
(0.450555 0.127764 4.78827e-12)
(0.445759 0.119032 4.70029e-11)
(0.443113 0.126673 -5.2313e-12)
(0.437219 0.059656 -1.96305e-11)
(0.434403 0.0661639 -2.29953e-11)
(0.431776 0.127884 -1.3918e-11)
(0.733895 0.102532 -1.58008e-07)
(0.817478 0.0859061 -9.64285e-08)
(0.791876 0.0758589 -5.62655e-07)
(0.814349 0.0456511 -5.04957e-11)
(0.786924 0.0728813 4.29987e-07)
(0.761396 0.0886614 5.82848e-08)
(0.745704 0.0951458 2.69725e-07)
(0.795394 0.0119435 -3.84015e-12)
(0.793209 0.0320112 4.97399e-12)
(0.762621 0.0737261 -1.77486e-07)
(0.742365 0.084383 1.0399e-08)
(0.758694 0.049616 2.03654e-12)
(0.739328 0.0823231 5.96067e-08)
(0.694926 0.110524 3.12117e-08)
(0.720901 0.0897023 6.2067e-08)
(0.738616 0.0307043 -4.70546e-11)
(0.719762 0.0739264 5.36314e-12)
(0.642511 0.125588 -1.50907e-07)
(0.705249 0.0790144 3.62822e-11)
(0.711541 0.0484215 1.14486e-11)
(0.692128 0.101659 -1.34546e-07)
(0.69913 0.0872954 2.98892e-10)
(0.690633 0.102485 -1.28694e-07)
(0.699055 0.0601747 3.52155e-11)
(0.690983 0.0841484 2.51355e-12)
(0.687478 0.0875233 -1.73116e-07)
(0.697561 0.0302453 2.68067e-12)
(0.689258 0.066848 5.1914e-11)
(0.664903 0.116154 -1.58234e-08)
(0.687553 0.063439 1.10111e-10)
(0.67524 0.0958719 9.42233e-11)
(0.663973 0.11054 -8.71742e-08)
(0.658966 0.0919278 -1.66211e-11)
(0.663788 0.0357827 3.47766e-11)
(0.661023 0.0248345 2.0069e-11)
(0.64699 0.101451 1.00111e-10)
(0.636451 0.106259 -2.20758e-11)
(0.626482 0.125375 1.02102e-07)
(0.628713 0.111248 -6.7424e-11)
(0.635055 0.0518022 2.71734e-14)
(0.630382 0.0758912 -2.75122e-13)
(0.62491 0.103752 2.98444e-11)
(0.624158 0.073718 6.59122e-11)
(0.619589 0.102483 3.81861e-11)
(0.622008 0.0137057 3.0705e-12)
(0.612051 0.0874905 -1.45421e-13)
(0.612958 0.0528418 -1.06041e-12)
(0.609206 0.100589 -5.35141e-12)
(0.606314 0.053061 -1.43922e-12)
(0.599528 0.129686 4.26851e-07)
(0.595784 0.0969076 1.13755e-13)
(0.595138 0.0566232 5.69633e-11)
(0.593384 0.0499622 3.10579e-11)
(0.588568 0.100279 -5.68488e-12)
(0.587199 0.1256 1.39108e-07)
(0.586361 0.131203 1.8925e-08)
(0.573282 0.150448 -5.36438e-07)
(0.578958 0.115445 1.10019e-11)
(0.571786 0.0672385 -1.58189e-13)
(0.571505 0.0920128 -5.01856e-12)
(0.571719 0.141907 5.5591e-08)
(0.570251 0.112073 1.36975e-10)
(1.16024 0.0412081 -1.28966e-13)
(1.14812 0.0833817 5.33676e-08)
(1.08468 0.0966172 -6.49733e-07)
(1.12815 0.0801084 1.53888e-07)
(1.13907 0.0633783 -2.54759e-07)
(1.09782 0.0890708 3.16088e-07)
(1.12774 0.0495889 -6.49414e-14)
(1.12671 0.0437145 -9.83812e-14)
(1.1183 0.0304509 -2.54351e-14)
(1.10893 0.055014 8.72771e-08)
(1.10158 0.0708807 1.57508e-08)
(1.09043 0.0783672 1.31408e-08)
(1.09404 0.0435476 -4.27022e-14)
(1.07596 0.0897651 -6.55314e-07)
(1.06502 0.0859444 8.90872e-08)
(1.06884 0.0640636 -1.9401e-07)
(1.06292 0.0816813 -9.3178e-08)
(1.0274 0.0579724 1.35152e-08)
(1.00408 0.0896451 -3.64169e-07)
(1.01881 0.0521168 2.08366e-11)
(1.01561 0.0297745 1.19168e-12)
(1.01332 0.0712443 1.62134e-07)
(1.01343 0.0178988 1.26704e-13)
(1.00295 0.0749053 -1.85719e-07)
(0.990602 0.061255 2.1781e-07)
(0.979562 0.0801007 -1.93767e-07)
(0.971992 0.0499687 1.88143e-12)
(0.954582 0.0553514 3.58452e-12)
(0.923554 0.0815505 -3.23983e-08)
(0.913491 0.0805776 3.0981e-08)
(0.899238 0.0830489 1.37127e-08)
(0.908201 0.00553705 -2.19929e-14)
(0.894229 0.0865225 1.03075e-08)
(0.887855 0.0743064 -3.31537e-08)
(0.877929 0.0871134 6.3805e-08)
(0.871096 0.0663833 2.93704e-07)
(0.870106 0.0157379 -7.0266e-13)
(0.858892 0.0434005 1.21036e-11)
(0.846931 0.0703412 -1.41617e-07)
(0.836008 0.0818012 -2.33192e-09)
(0.81983 0.0712677 -2.17432e-07)
(3.45218 0.0109435 3.6734e-07)
(3.41508 0.0365629 9.02971e-08)
(3.37511 0.0719139 4.78598e-07)
(3.3627 0.032693 -1.32559e-07)
(3.33437 0.0398484 -3.5107e-08)
(3.31569 0.022588 -3.02548e-08)
(3.29211 0.053605 5.88336e-07)
(3.26417 0.0216486 4.54773e-13)
(3.23999 0.0332859 4.74737e-07)
(3.23471 0.0482861 -4.01657e-07)
(3.21557 0.0384665 -2.88378e-09)
(3.21075 0.0624922 -2.18115e-07)
(3.18403 0.0319622 -1.26778e-07)
(3.09209 0.0807051 3.27926e-08)
(3.16554 0.0593991 3.94538e-07)
(3.16313 0.0492927 4.95249e-08)
(3.16286 0.0180694 1.10468e-07)
(3.01123 0.0751979 4.87614e-07)
(3.14932 0.0227893 4.29709e-07)
(3.11762 0.0156912 -3.0683e-14)
(2.99676 0.0817557 4.16173e-07)
(3.09238 0.0228556 -3.69706e-07)
(3.0793 0.0466462 -3.92151e-08)
(3.06391 0.0450243 5.39762e-08)
(3.0718 0.0224706 -1.04521e-13)
(3.03611 0.0473512 -3.53245e-07)
(2.9972 0.0705557 -1.98667e-07)
(2.948 0.0758531 -8.47657e-07)
(3.02895 0.0226693 5.45617e-14)
(2.99529 0.0356143 -3.77952e-07)
(2.99965 0.0174503 5.33373e-15)
(2.97084 0.0505978 5.73417e-07)
(2.99387 0.0337584 -3.39746e-07)
(2.90864 0.0773989 7.39415e-08)
(2.9116 0.0749207 1.60306e-07)
(2.973 0.0280124 1.31215e-13)
(2.91766 0.0575007 1.60732e-07)
(2.90211 0.0737889 6.25321e-08)
(2.93645 0.0582167 -3.19984e-07)
(2.93174 0.0375276 1.082e-07)
(2.9581 0.00859913 4.40386e-07)
(2.7914 0.0993654 2.84353e-07)
(2.81003 0.0897275 7.12992e-07)
(2.90883 4.40359e-11 1.62134e-13)
(2.8944 0.0404026 4.64334e-07)
(2.91113 0.0389625 -4.02036e-08)
(2.88465 0.0504797 6.15612e-08)
(2.87757 0.0297559 6.10952e-07)
(2.79443 0.0571848 1.70574e-07)
(2.72925 0.0794829 6.90159e-08)
(2.78081 0.0408006 -1.03052e-07)
(2.78249 0.0483645 4.20697e-07)
(2.78223 0.0325281 4.40146e-07)
(2.66607 0.0893779 -4.78514e-07)
(2.73654 0.041696 -9.80071e-08)
(2.72481 0.0177565 3.29797e-13)
(2.70556 0.0169451 1.27312e-07)
(2.69056 0.0647535 -2.85127e-07)
(2.68535 0.00450919 1.67985e-14)
(2.58582 0.0898534 6.20571e-08)
(2.66823 0.056868 3.7605e-07)
(2.6595 0.0560941 -1.15791e-07)
(2.66283 0.0121054 1.05006e-13)
(2.60909 0.0668951 5.75275e-07)
(2.62476 0.0646299 -3.53843e-10)
(2.65193 0.057142 6.76081e-07)
(2.55973 0.0734387 -1.59791e-07)
(2.57444 0.0650389 -4.17764e-07)
(2.60097 0.010933 7.70587e-14)
(2.57129 0.0715516 -1.1776e-11)
(2.58887 0.046855 -1.09029e-07)
(2.54746 0.0734458 5.8523e-08)
(2.56534 0.0362778 -2.04112e-07)
(2.51022 0.0569339 2.99742e-07)
(2.53311 0.0534436 -4.37782e-07)
(2.49097 0.0717195 4.34707e-08)
(2.49818 0.0535458 6.70074e-08)
(2.49523 0.06506 -1.97352e-07)
(2.47147 0.0650284 -4.25298e-07)
(2.47922 0.0220942 9.24901e-13)
(2.44203 0.0674618 -5.28599e-07)
(2.43862 0.0503361 -3.38313e-08)
(2.42905 0.0626619 -9.72079e-12)
(2.40961 0.0681549 -9.67874e-08)
(2.34791 0.0927351 3.96232e-07)
(2.42219 0.0276478 -4.47607e-13)
(2.41192 0.0459831 -3.02816e-08)
(2.41503 0.0425159 2.8687e-08)
(2.38647 0.064473 1.19936e-08)
(2.34698 0.0659811 7.34593e-08)
(2.31687 0.0670866 1.60709e-08)
(2.28496 0.0820507 1.80831e-08)
(2.32185 0.048654 5.89148e-08)
(2.308 0.0498858 -5.03958e-08)
(2.29345 0.0643608 -4.16301e-07)
(2.2544 0.077721 -3.17998e-08)
(2.23222 0.0393904 -5.4395e-07)
(2.24479 0.0401387 -3.51036e-07)
(2.22417 0.0672869 -1.17291e-07)
(2.2208 0.0251496 -7.7631e-15)
(2.20551 0.0346105 -2.85015e-07)
(2.18081 0.0645894 2.4753e-07)
(2.178 0.0726503 4.38544e-08)
(2.17399 0.0831022 2.96703e-07)
(2.16525 0.0810427 -3.13525e-07)
(2.16235 0.0498893 -4.18688e-07)
(2.15808 0.0437901 1.80812e-07)
(2.1146 0.0937517 -1.92579e-07)
(2.14374 0.0761006 -1.59095e-07)
(2.15167 0.0323463 -1.93088e-13)
(2.14511 0.0467022 3.31459e-07)
(2.14969 0.0192312 -2.48709e-14)
(2.13212 0.0532858 2.76262e-07)
(2.13792 0.0601433 1.21222e-07)
(2.12499 0.0720165 2.81983e-07)
(2.1266 0.0678132 6.44867e-08)
(2.04981 0.080029 1.0742e-07)
(2.05675 0.0700416 -3.34e-07)
(2.04791 0.0699339 1.73705e-07)
(2.03078 0.0731625 1.15663e-07)
(2.01881 0.0812603 5.2127e-08)
(2.02679 0.0394894 -5.05644e-13)
(2.01993 0.0540658 7.15485e-08)
(2.00919 0.0591051 3.38408e-07)
(1.99776 0.0675617 -8.23233e-08)
(1.98712 0.0610936 -1.75356e-07)
(1.97334 0.0460707 5.56676e-07)
(1.96303 0.0558433 3.27095e-07)
(1.91773 0.0770927 2.44811e-07)
(1.8924 0.0876812 -1.33933e-07)
(1.895 0.0536638 -3.47184e-07)
(1.89273 0.0447478 -4.68808e-08)
(1.88074 0.0580725 3.86537e-07)
(1.86689 0.0782911 -2.52977e-08)
(1.85344 0.0694744 -7.53989e-07)
(1.84929 0.0563415 1.86322e-07)
(1.83608 0.0568192 -1.89038e-07)
(1.82127 0.0537354 1.00595e-07)
)


// ************************************************************************* //
