/*--------------------------------*- C++ -*----------------------------------*\
  =========                 |
  \\      /  F ield         | OpenFOAM: The Open Source CFD Toolbox
   \\    /   O peration     | Website:  https://openfoam.org
    \\  /    A nd           | Version:  7
     \\/     M anipulation  |
\*---------------------------------------------------------------------------*/
FoamFile
{
    version     2.0;
    format      ascii;
    class       labelField;
    location    "0.11/lagrangian/reactingCloud1";
    object      origId;
}
// * * * * * * * * * * * * * * * * * * * * * * * * * * * * * * * * * * * * * //


422
(
9
139
152
151
140
141
146
154
138
159
161
157
155
142
160
135
166
165
158
156
163
153
167
149
172
169
171
177
178
184
186
176
185
188
109
173
191
181
170
164
162
195
192
196
174
182
198
189
197
168
203
205
194
209
202
210
180
175
326
345
350
354
355
356
357
358
359
360
361
362
363
364
365
366
367
368
369
370
371
372
373
374
375
376
377
378
379
380
381
382
383
384
385
386
387
388
389
390
391
392
393
394
395
396
397
398
399
400
401
402
403
404
405
406
407
408
409
410
411
412
413
414
415
416
417
418
419
420
421
298
300
302
304
306
246
305
307
308
310
309
311
312
313
314
316
315
317
318
320
321
274
319
324
323
322
325
327
328
329
330
331
333
332
334
336
335
337
338
341
339
340
342
344
343
347
346
348
349
351
352
353
199
230
238
252
249
239
179
257
256
253
242
259
254
240
251
264
261
48
263
267
255
262
260
268
265
213
271
269
250
270
266
258
272
278
279
273
275
211
276
284
283
280
285
282
289
287
290
286
293
277
292
296
297
294
288
291
183
295
303
301
281
299
216
204
63
187
206
193
218
219
221
217
201
212
222
200
124
220
214
226
207
228
231
224
233
225
229
208
234
235
223
232
215
244
190
237
227
241
248
247
243
236
245
0
1
2
4
7
12
3
17
11
8
20
5
22
6
15
23
26
27
16
31
28
33
29
30
35
24
25
32
39
38
42
37
40
21
36
44
34
14
41
45
46
13
18
10
47
49
43
56
55
19
52
60
62
50
64
68
66
53
72
59
67
70
74
71
73
69
57
75
80
54
76
58
82
79
83
51
81
84
77
91
85
89
65
88
86
97
94
96
87
93
90
78
104
105
102
98
101
110
100
116
117
112
108
113
111
119
120
99
115
122
114
123
121
118
107
95
106
127
125
103
92
133
126
128
129
131
134
136
132
61
143
145
144
137
130
148
150
147
)


// ************************************************************************* //
