/*--------------------------------*- C++ -*----------------------------------*\
  =========                 |
  \\      /  F ield         | OpenFOAM: The Open Source CFD Toolbox
   \\    /   O peration     | Website:  https://openfoam.org
    \\  /    A nd           | Version:  7
     \\/     M anipulation  |
\*---------------------------------------------------------------------------*/
FoamFile
{
    version     2.0;
    format      ascii;
    class       Cloud<passiveParticle>;
    location    "0.11/lagrangian/reactingCloud1";
    object      positions;
}
// * * * * * * * * * * * * * * * * * * * * * * * * * * * * * * * * * * * * * //

422
(
(0.046225 0.0304292 0.446165 0.477181) 46245 91810 2
(0.620622 0.139018 0.189708 0.050652) 46107 91536 2
(0.00707043 0.0120442 0.484446 0.49644) 46104 91528 2
(0.567049 0.106475 0.216271 0.110204) 46105 91532 2
(0.0955374 0.452518 0.0640419 0.387903) 46107 91534 1
(0.254661 0.324258 0.37206 0.0490199) 46152 91626 2
(0.435375 0.251543 0.272656 0.0404259) 46153 91713 2
(0.369215 0.0177085 0.297794 0.315283) 46193 91706 2
(0.0220305 0.489671 0.28327 0.205029) 46242 91804 1
(0.595113 0.214875 0.0316198 0.158392) 46237 91881 1
(0.282615 0.35939 0.00878932 0.349206) 46235 91792 1
(0.668203 0.166448 0.017406 0.147943) 46239 91800 1
(0.0913592 0.145777 0.316163 0.4467) 46283 91885 2
(0.890844 0.0227619 0.0318376 0.054556) 46284 91888 2
(0.430271 0.0657642 0.280773 0.223192) 46237 91881 2
(0.0551975 0.472703 0.153151 0.318948) 46284 91888 1
(0.115919 0.00209961 0.441806 0.440175) 46276 91959 2
(0.466607 0.12192 0.145041 0.266432) 46370 92060 2
(0.265589 0.00700439 0.36097 0.366437) 46367 92053 2
(0.398379 0.0563403 0.300708 0.244572) 46370 92062 2
(0.0593159 0.340105 0.469876 0.130703) 46416 92154 2
(0.199646 0.390011 0.021654 0.38869) 46507 92333 2
(0.587382 0.00627741 0.200046 0.206294) 46414 92148 2
(0.0475715 0.473944 0.350938 0.127547) 46452 92226 1
(0.389481 0.305468 0.187475 0.117577) 46456 92234 1
(0.0404086 0.224999 0.267843 0.466749) 46546 92411 2
(0.435032 0.217108 0.282207 0.0656525) 46592 92506 2
(0.269109 0.373984 0.158907 0.198001) 46635 92589 1
(0.429532 0.194536 0.0910562 0.284875) 46679 92678 2
(0.193612 0.251726 0.382983 0.171679) 46675 92757 2
(0.310724 0.345086 0.248811 0.0953785) 46718 92756 1
(0.700897 0.148915 0.000661818 0.149527) 46720 92760 2
(0.573436 0.21961 0.0848678 0.122087) 46765 92849 1
(0.358321 0.207788 0.320466 0.113426) 46760 92842 2
(0.701951 0.152336 0.11295 0.032763) 46815 92949 1
(0.0880158 0.456365 0.210405 0.245214) 46814 92948 1
(0.481813 0.192849 0.0665624 0.258775) 46851 93022 2
(0.2757 0.367531 0.127611 0.229159) 46901 93121 1
(0.370495 0.321292 0.171437 0.136776) 46902 93123 1
(0.375674 0.276452 0.0359801 0.311894) 46898 93116 2
(0.116927 0.207597 0.243142 0.432334) 46944 93207 2
(0.103332 0.495967 0.120198 0.280502) 46891 93189 1
(0.00445308 0.512211 0.192835 0.290501) 46941 93201 1
(0.36854 0.002522 0.313433 0.315504) 46982 93283 2
(0.505749 0.200746 0.0465085 0.246997) 46989 93298 2
(0.42676 0.11581 0.174538 0.282892) 47034 93387 2
(0.171204 0.401337 0.0422594 0.385199) 47072 93463 2
(0.788973 0.0126708 0.105974 0.0923817) 47076 93474 2
(0.261736 0.376657 0.150331 0.211275) 47208 93735 1
(0.0123577 0.375714 0.11858 0.493348) 47255 93830 2
(0.0279639 0.511656 0.386607 0.0737735) 47294 93907 1
(0.391357 0.132655 0.179378 0.29661) 47294 93907 2
(0.0757721 0.27386 0.188698 0.46167) 47342 94004 2
(0.109064 0.30572 0.159818 0.425398) 47381 94081 2
(0.238574 0.292264 0.0983957 0.370766) 47430 94179 2
(0.19878 0.411903 0.190986 0.198331) 47515 94349 1
(0.513214 0.242897 0.0220121 0.221877) 47475 94270 1
(0.409499 0.302946 0.108634 0.178922) 47517 94441 1
(0.031555 0.484814 0.200471 0.283159) 3060 96671 2
(0.193867 0.128562 0.274944 0.402627) 3120 96668 1
(0.30033 0.342186 0.0526866 0.304798) 2960 5787 1
(0.394144 0.302236 0.165743 0.137878) 3443 6692 1
(0.0156286 0.130952 0.498733 0.354686) 3429 6701 2
(0.638975 0.00819414 0.180556 0.172275) 3427 6661 2
(0.03212 0.482178 0.147025 0.338676) 3406 6620 1
(0.0734399 0.461977 0.208733 0.25585) 3387 6583 1
(0.227281 0.332581 0.402989 0.0371491) 3369 6584 2
(0.363596 0.254921 0.319483 0.0619989) 3364 6538 2
(0.119816 0.438091 0.0287202 0.413373) 3347 6505 1
(0.849506 0.0730966 0.0343906 0.0430067) 3330 6508 1
(0.434981 0.19098 0.294446 0.079593) 3311 6471 2
(0.312533 0.232382 0.344809 0.110276) 3303 6419 2
(0.0261413 0.480442 0.246722 0.246695) 3241 6295 1
(0.409266 0.294449 0.0831337 0.213151) 3267 6349 1
(0.0476404 0.45663 0.492488 0.00324158) 3245 6342 2
(0.271263 0.0505378 0.36458 0.313619) 3245 6306 2
(0.770924 0.114208 0.103667 0.0112003) 3223 6299 1
(0.103369 0.208868 0.449123 0.23864) 3210 6238 2
(0.717112 0.0237501 0.142358 0.116781) 3186 6227 2
(0.00944322 0.493977 0.372701 0.123879) 3170 6158 1
(0.573008 0.0290542 0.216401 0.181536) 3154 6165 2
(0.335304 0.21141 0.113388 0.339898) 3145 6108 2
(0.626276 0.186331 0.170303 0.0170903) 3122 6064 1
(0.315648 0.341322 0.0507932 0.292236) 3103 6029 1
(0.135898 0.43122 0.306738 0.126144) 3084 5990 1
(0.534678 0.228913 0.131469 0.104939) 3066 5993 1
(0.0273467 0.485547 0.342466 0.14464) 3051 5926 1
(0.130543 0.317819 0.106977 0.44466) 3043 5909 2
(0.105785 0.0393724 0.407654 0.447188) 3021 5867 2
(0.37776 0.191497 0.105945 0.324798) 3012 5849 2
(0.0435885 0.360947 0.47878 0.116685) 2997 5823 2
(0.674139 0.16274 0.0210546 0.142066) 2967 5764 1
(0.645977 0.174954 0.100879 0.0781908) 2941 5749 1
(0.217489 0.353734 0.401081 0.0276958) 2921 5710 2
(0.060441 0.453603 0.452928 0.033027) 2926 5681 1
(0.300772 0.0202133 0.349626 0.329389) 2902 5637 2
(0.680856 0.116167 0.159607 0.043369) 2882 5598 2
(0.357129 0.321423 0.142833 0.178616) 2866 5567 1
(0.00151865 0.499239 0.191508 0.307734) 2842 5520 1
(0.156336 0.226147 0.43053 0.186988) 2826 5525 2
(0.528735 0.04782 0.235885 0.18756) 2800 5438 2
(0.364147 0.254011 0.0639149 0.317926) 2810 5456 2
(0.120475 0.439762 0.180967 0.258795) 2793 5425 1
(0.226149 0.340904 0.0460215 0.386925) 2580 96695 1
(0.0611938 0.469403 0.101701 0.367702) 2742 5323 1
(0.0911637 0.372009 0.466818 0.0700086) 2724 5326 2
(0.694625 0.0393825 0.152688 0.113305) 2727 5296 2
(0.328322 0.131102 0.335839 0.204738) 2727 5296 2
(0.374496 0.29494 0.312752 0.0178122) 2705 5253 2
(0.594667 0.201198 0.157132 0.0470033) 2684 5248 1
(0.148402 0.0305241 0.426697 0.394377) 2662 5205 2
(0.185214 0.123555 0.283838 0.407393) 2669 5181 2
(0.792486 0.101081 0.0909866 0.0154467) 2643 5129 1
(0.360319 0.0795734 0.333103 0.227005) 2636 5155 2
(0.478063 0.144572 0.264984 0.11238) 2601 5086 2
(0.179186 0.400777 0.327397 0.0926395) 2603 5051 1
(0.212496 0.203367 0.190385 0.393752) 2590 5027 2
(0.271385 0.364308 0.243078 0.121229) 2568 4984 1
(0.271145 0.358207 0.146723 0.223924) 2542 4971 1
(0.0682224 0.170442 0.290121 0.471215) 2543 4934 2
(0.384024 0.120636 0.307988 0.187352) 2532 4916 2
(0.539277 0.0324961 0.232167 0.19606) 2510 4909 2
(0.244377 0.0357262 0.378862 0.341034) 2482 4854 2
(0.882188 0.0582576 0.0259279 0.0336262) 2460 4773 1
(0.38313 0.308435 0.0406021 0.267833) 2466 4787 1
(0.591527 0.00905685 0.204503 0.194913) 2442 4776 2
(0.182855 0.394876 0.383499 0.03877) 2446 4745 1
(0.0771754 0.277696 0.461412 0.183716) 2425 4707 2
(0.272363 0.363819 0.124076 0.239742) 2401 4677 1
(0.0889442 0.00615567 0.455677 0.449223) 3982 7779 2
(0.564201 0.218115 0.0868112 0.130873) 4063 7899 1
(0.236966 0.122963 0.385908 0.254162) 4085 7980 2
(0.543143 0.170543 0.234113 0.0522008) 4044 7900 2
(0.169837 0.415787 0.284178 0.130198) 4068 7909 1
(0.296659 0.351984 0.241475 0.109882) 3620 96643 2
(0.250849 0.37088 0.245181 0.133091) 3943 7703 1
(0.555935 0.216883 0.0926931 0.134489) 4091 7953 1
(0.289548 0.163042 0.187088 0.360321) 3983 7742 2
(0.495643 0.146409 0.106129 0.251819) 4052 7878 2
(0.285959 0.354319 0.267867 0.0918546) 3943 7703 1
(0.603303 0.00620547 0.191949 0.198542) 3943 7664 2
(0.660547 0.150119 0.0133522 0.175981) 3987 7750 2
(0.635623 0.0736931 0.184337 0.106347) 3903 7625 2
(0.382912 0.15669 0.152227 0.308171) 3946 7671 2
(0.0204864 0.477669 0.211745 0.290099) 3928 7674 1
(0.21906 0.0115517 0.378946 0.390442) 3947 7673 2
(0.0300822 0.150495 0.500008 0.319415) 3954 7725 2
(0.0270309 0.359581 0.114918 0.498471) 3884 7549 2
(0.064794 0.458546 0.355849 0.120811) 3821 7426 1
(0.191573 0.346102 0.0589172 0.403407) 3867 7517 2
(0.851554 0.0737217 0.0154161 0.0593085) 3721 7231 1
(0.0952456 0.452518 0.12671 0.325527) 3742 7273 1
(0.115419 0.43286 0.31969 0.132032) 3853 7528 1
(0.285079 0.35766 0.0859894 0.271272) 3826 7437 1
(0.620705 0.0212122 0.168432 0.18965) 3762 7312 2
(0.177406 0.310133 0.10183 0.410631) 3806 7398 2
(0.0548654 0.104982 0.472342 0.367811) 3808 7404 2
(0.324583 0.0746371 0.337548 0.263232) 3814 7416 2
(0.86045 0.040325 0.0731355 0.0260897) 3793 7411 2
(0.0196844 0.17017 0.489913 0.320233) 3768 7326 2
(0.259071 0.368861 0.327176 0.0448917) 3726 7280 1
(0.0019226 0.499159 0.186595 0.312324) 3733 7256 1
(0.105616 0.211598 0.228037 0.454749) 3725 7239 2
(0.0152999 0.463559 0.00290273 0.518238) 3711 7251 1
(0.483666 0.243272 0.064527 0.208536) 3693 7216 1
(0.345809 0.266159 0.0514313 0.336601) 3685 7161 2
(0.215369 0.38557 0.0944406 0.304621) 3693 7177 1
(0.480252 0.212243 0.0343657 0.273139) 3671 7134 2
(0.207161 0.382792 0.272563 0.137485) 3630 7054 1
(0.0234727 0.481686 0.257032 0.23781) 3582 6999 1
(0.353388 0.319189 0.195691 0.131732) 3604 7042 1
(0.0719219 0.459632 0.336235 0.132211) 3585 7005 1
(0.173165 0.00491381 0.408493 0.413428) 3594 6985 2
(0.1263 0.0411516 0.438136 0.394413) 3563 6962 2
(0.510831 0.227575 0.125515 0.13608) 3556 6949 1
(0.260022 0.367502 0.292877 0.0795998) 3544 6925 1
(0.377062 0.311229 0.0717991 0.23991) 3525 6850 1
(0.156907 0.418819 0.0872699 0.337004) 3524 6847 1
(0.295985 0.331495 0.0443161 0.328204) 3492 6824 1
(0.303402 0.242657 0.0904761 0.363465) 3491 6783 2
(0.607295 0.0496216 0.14518 0.197903) 3463 6728 2
(0.000409241 0.497585 0.294996 0.207009) 4860 96581 2
(0.37399 0.0808535 0.315267 0.229889) 5143 10058 2
(0.873736 0.0620058 0.018737 0.0455211) 5065 9902 1
(0.210739 0.164952 0.394535 0.229774) 5150 10035 2
(0.00983239 0.494331 0.276463 0.219374) 5046 9825 1
(0.559539 0.00859763 0.211351 0.220513) 4962 9656 2
(0.597441 0.196173 0.00480287 0.201583) 4901 9535 2
(0.238633 0.321261 0.356517 0.083589) 5097 9926 1
(0.472822 0.249076 0.0902789 0.187823) 5073 9918 1
(0.661892 0.162095 0.169153 0.0068604) 4965 9665 2
(0.201544 0.390094 0.0963885 0.311973) 4883 9538 1
(0.404956 0.296394 0.277044 0.0216056) 4950 9672 1
(0.408957 0.153008 0.295787 0.142247) 4883 9501 2
(0.12191 0.26248 0.169641 0.445969) 4700 9141 2
(0.303295 0.349962 0.240588 0.106156) 4803 9342 1
(0.112097 0.174332 0.443519 0.270052) 4893 9521 2
(0.317197 0.222852 0.120056 0.339895) 4806 9348 2
(0.538351 0.0717841 0.230392 0.159473) 4460 8675 2
(0.419503 0.112396 0.289532 0.178569) 4745 9231 2
(0.27576 0.363282 0.176422 0.184536) 4771 9280 1
(0.714249 0.114343 0.0292969 0.142112) 4682 9106 2
(0.00799841 0.437731 0.0436782 0.510592) 4724 9187 2
(0.290103 0.351217 0.136886 0.221794) 4682 9105 1
(0.0591112 0.455753 0.323199 0.161936) 4729 9197 1
(0.510606 0.238727 0.179113 0.0715548) 4685 9111 1
(0.0279162 0.473722 0.48312 0.0152421) 4664 9073 2
(0.483982 0.0838958 0.266399 0.165724) 4714 9207 2
(0.171519 0.398013 0.0410116 0.389456) 4668 9117 1
(0.387478 0.246309 0.0613041 0.304909) 4561 8870 2
(0.221652 0.3912 0.33758 0.0495683) 4669 9081 1
(0.126884 0.437395 0.146886 0.288834) 4604 8954 1
(0.280669 0.10734 0.252956 0.359035) 4562 8872 2
(0.360407 0.315159 0.139134 0.1853) 4545 8838 1
(0.42828 0.201477 0.0854828 0.28476) 4574 8896 2
(0.0108966 0.495426 0.16096 0.332718) 4556 8861 1
(0.517347 0.187428 0.0548611 0.240364) 4484 8720 2
(0.0435581 0.0682324 0.407856 0.480353) 4443 8639 2
(0.706363 0.144091 0.0476259 0.10192) 4381 8557 1
(0.439969 0.273171 0.232718 0.0541425) 4403 8561 1
(0.190213 0.400412 0.337669 0.0717064) 4432 8657 1
(0.512652 0.0871763 0.247637 0.152535) 4408 8610 2
(0.610749 0.0647347 0.194315 0.130201) 4384 8527 2
(0.26178 0.187036 0.18297 0.368214) 4389 8535 2
(0.112202 0.0832929 0.361 0.443505) 4365 8488 2
(0.0308323 0.0519796 0.484335 0.432853) 4397 8553 2
(0.896014 0.000301999 0.0516925 0.0519917) 4327 8414 2
(0.375949 0.299177 0.119293 0.205582) 4332 8462 1
(0.553208 0.062136 0.225615 0.159041) 4305 8409 2
(0.526852 0.223535 0.208623 0.0409903) 4312 8384 1
(0.181847 0.215022 0.408311 0.19482) 4261 8287 2
(0.837645 0.00804184 0.0814869 0.0728264) 4246 8294 2
(0.303169 0.349403 0.223068 0.12436) 4252 8268 1
(0.1959 0.146898 0.255797 0.401405) 4253 8270 2
(0.293096 0.347607 0.195648 0.163649) 4206 8216 1
(0.160907 0.316502 0.418252 0.104339) 4202 8172 2
(0.336488 0.331031 0.0257856 0.306695) 4202 8169 1
(9.32131e-06 0.0223785 0.477356 0.500256) 4120 96618 1
(0.93214 0.0266726 0.0338526 0.00733458) 4164 8098 2
(0.103123 0.448006 0.00779694 0.441075) 4151 8070 1
(0.283142 0.0807419 0.361793 0.274323) 4127 8062 2
(0.335523 0.332668 0.178009 0.153801) 4121 8012 1
(0.284204 0.318183 0.0405174 0.357096) 4125 8020 2
(0.350665 0.332904 0.0958717 0.22056) 47556 94431 1
(0.112566 0.38979 0.0672118 0.430433) 47606 94531 2
(0.0652429 0.473932 0.177004 0.283821) 47785 94977 1
(0.0679223 0.4663 0.417157 0.0486206) 47650 94620 1
(0.546091 0.239421 0.00413929 0.210348) 47603 94613 1
(0.186953 0.221923 0.400234 0.190891) 47739 94885 2
(0.840179 0.0543834 0.076323 0.0291149) 47645 94697 2
(0.651458 0.174289 0.157746 0.0165072) 47644 94610 1
(0.603891 0.0901611 0.11601 0.189939) 47686 94691 2
(0.0558498 0.492332 0.304823 0.146995) 47734 94787 1
(0.729486 0.135268 0.109111 0.0261357) 47736 94794 1
(0.363281 0.318615 0.0018604 0.316243) 47781 94884 1
(0.420718 0.10168 0.195438 0.282164) 47776 94871 2
(0.273929 0.363589 0.186385 0.176097) 47827 94976 1
(0.329589 0.335327 0.230797 0.104287) 47871 95062 1
(0.562138 0.042169 0.179133 0.216561) 47867 95053 2
(0.43721 0.288952 0.0705741 0.203264) 47870 95147 1
(0.195152 0.0470967 0.399651 0.3581) 47998 95403 2
(0.00175863 0.0735937 0.42581 0.498838) 48136 95592 2
(0.0554658 0.472511 0.280258 0.191765) 48042 95404 1
(0.0249139 0.387896 0.452514 0.134676) 48038 95483 2
(0.348366 0.0282401 0.325924 0.29747) 48088 95498 2
(0.384419 0.32635 0.129774 0.159458) 48080 95479 1
(0.366654 0.326918 0.232463 0.0739659) 48133 95585 1
(0.748239 0.00738227 0.118292 0.126088) 48175 95670 2
(0.612082 0.173021 0.0211982 0.193699) 48222 95764 2
(0.46684 0.0132145 0.26657 0.253376) 48261 95844 2
(0.12627 0.365501 0.0930718 0.415158) 48350 96019 2
(0.673681 0.162995 0.163042 0.000282114) 48486 96294 2
(0.65533 0.166834 0.158522 0.0193139) 48530 96394 1
(0.0762381 0.461078 0.0652408 0.397443) 5384 10503 1
(0.623373 0.0294859 0.203057 0.144085) 5418 96355 2
(0.131602 0.428584 0.250539 0.189275) 5364 10500 1
(0.211744 0.382671 0.289979 0.115606) 5366 10464 1
(0.0162457 0.49148 0.198753 0.293522) 5324 10381 1
(0.313023 0.245296 0.355764 0.0859174) 5307 10386 2
(0.635048 0.182563 0.0168262 0.165563) 5316 10365 1
(0.197262 0.394027 0.107301 0.30141) 5291 10314 1
(0.333829 0.20298 0.333273 0.129917) 5246 10227 2
(0.544106 0.032097 0.228976 0.19482) 5204 10180 2
(0.353963 0.309226 0.0012956 0.335515) 5166 10064 2
(0.251859 0.373195 0.0817223 0.293224) 44249 87820 1
(0.500983 0.0381561 0.249513 0.211348) 44297 87916 2
(0.0862652 0.0138589 0.442667 0.457209) 44346 88012 2
(0.522926 0.0374592 0.201454 0.238162) 44341 88002 2
(0.299869 0.359011 0.255306 0.0858145) 44342 88091 1
(0.369418 0.0317822 0.31511 0.28369) 44383 88088 2
(0.0445218 0.478061 0.180629 0.296789) 44387 88096 1
(0.47047 0.0787287 0.196388 0.254413) 44427 88173 2
(0.563649 0.233344 0.07006 0.132947) 44429 88265 1
(0.353351 0.341222 0.1128 0.192626) 44431 88269 1
(0.277455 0.0695875 0.29192 0.361037) 44474 88268 2
(0.195635 0.208007 0.195008 0.401349) 44477 88274 2
(0.306344 0.361367 0.214084 0.118205) 44473 88353 1
(0.518022 0.247134 0.118301 0.116542) 44567 88541 1
(0.448278 0.00844668 0.267623 0.275653) 44520 88359 2
(0.547533 0.180202 0.0597729 0.212492) 44519 88357 2
(0.302619 0.127695 0.221036 0.34865) 44515 88350 2
(0.405034 0.246392 0.297172 0.0514022) 44654 88630 2
(0.124702 0.437862 0.0563305 0.381105) 44515 88352 1
(0.420205 0.0280477 0.266692 0.285056) 44558 88435 2
(0.483097 0.145192 0.251759 0.119952) 44655 88717 2
(0.0392687 0.482109 0.232891 0.245731) 44559 88440 1
(0.0136745 0.518938 0.283848 0.18354) 44607 88533 1
(0.195601 0.233734 0.169136 0.401529) 44607 88534 2
(0.151879 0.0891625 0.423767 0.335191) 44603 88528 2
(0.164578 0.447913 0.0597526 0.327756) 44607 88621 1
(0.501693 0.249551 0.24498 0.00377649) 44654 88715 1
(0.106104 0.447952 0.311613 0.134332) 44698 88718 1
(0.034356 0.0524704 0.482651 0.430523) 44647 88616 2
(0.186337 0.40781 0.288784 0.11707) 44649 88620 1
(0.22906 0.386067 0.189012 0.195861) 44647 88614 1
(0.26175 0.186347 0.369198 0.182706) 44695 88712 2
(0.359457 0.178068 0.302363 0.160112) 44649 88705 2
(0.356498 0.322088 0.145565 0.175848) 44743 88806 1
(0.255251 0.372959 0.110589 0.261201) 44742 88806 1
(0.345731 0.0974841 0.326817 0.229967) 44692 88706 2
(0.481588 0.237061 0.258676 0.0226748) 44740 88802 2
(0.359826 0.0751643 0.316035 0.248975) 44742 88891 2
(0.128234 0.101902 0.341293 0.428571) 44740 88799 2
(0.335681 0.33615 0.0398646 0.288304) 44738 88795 1
(0.81178 0.0559142 0.082202 0.0501038) 44689 88785 2
(0.456301 0.0856324 0.186255 0.271811) 44878 89076 2
(0.226551 0.024352 0.386141 0.362956) 44832 89071 2
(7.16647e-09 3.47697e-09 0.671767 0.328233) 44732 190698 2
(0.0212117 0.366171 0.458353 0.154264) 44738 88883 2
(0.756299 0.124889 0.0903573 0.0284544) 44738 88883 1
(0.142379 0.135992 0.428476 0.293154) 44783 88888 2
(0.294356 0.218399 0.133905 0.35334) 44781 88882 2
(0.330966 0.0785755 0.334463 0.255996) 44872 89066 2
(0.489345 0.111518 0.249967 0.14917) 44919 89245 2
(0.488081 0.2567 0.0568513 0.198368) 44870 89062 1
(0.520202 0.240066 0.018888 0.220843) 44871 89064 1
(0.799872 0.099578 0.0258245 0.0747258) 44869 89060 1
(0.020861 0.24306 0.247393 0.488685) 45009 89338 2
(0.164715 0.418776 0.0835153 0.332993) 44914 89150 1
(0.282063 0.383745 0.19369 0.140502) 44911 89229 1
(0.294111 0.16635 0.186633 0.352906) 44955 89230 2
(0.272177 0.36468 0.168359 0.194784) 44961 89244 1
(0.385897 0.30709 0.29276 0.0142539) 44952 89226 1
(0.380542 0.0185396 0.291192 0.309726) 45097 89514 2
(0.170565 0.116433 0.414774 0.298228) 45004 89330 2
(0.352867 0.235611 0.322808 0.0887136) 45004 89330 2
(0.551679 0.0563153 0.168002 0.224003) 44998 89316 2
(0.421777 0.289004 0.152672 0.136547) 45050 89420 1
(0.166956 0.169132 0.416081 0.24783) 45049 89420 2
(0.0681869 0.466251 0.0939558 0.371607) 45004 89330 1
(0.16317 0.418693 0.0611528 0.356984) 45095 89510 1
(0.0410046 0.471133 0.00994549 0.477916) 45094 89508 2
(0.182429 0.408991 0.0740259 0.334554) 45042 89404 1
(0.339032 0.331134 0.0693361 0.260499) 45094 89510 1
(0.2662 0.15512 0.223951 0.354728) 45091 89501 2
(0.193136 0.0682694 0.335284 0.40331) 45139 89598 2
(0.56358 0.220018 0.202498 0.0139042) 45090 89587 1
(0.147132 0.0336096 0.392608 0.426651) 45181 89682 2
(0.798759 0.101259 0.0271551 0.0728266) 45136 89594 1
(0.113637 0.44398 0.100586 0.341797) 45182 89686 1
(0.705945 0.0636661 0.146929 0.0834603) 45180 89682 2
(0.208344 0.387775 0.00920611 0.394675) 45182 89684 2
(0.206977 0.398255 0.0218783 0.37289) 45226 89771 1
(0.194175 0.413956 0.31501 0.0768589) 45176 89759 1
(0.256981 0.392776 0.0169839 0.333259) 45226 89859 1
(0.0792966 0.481403 0.180313 0.258987) 45224 89855 1
(0.257392 0.0848274 0.371095 0.286686) 45269 89860 2
(0.54148 0.147496 0.220989 0.0900352) 45270 89947 2
(0.0900447 0.349611 0.454484 0.10586) 45361 90044 2
(0.243242 0.274034 0.105135 0.377589) 45265 89850 2
(0.506635 0.246929 0.167917 0.0785189) 45267 89856 1
(0.556981 0.221846 0.135922 0.0852521) 45267 89854 1
(0.289345 0.203962 0.151852 0.354842) 45314 89948 2
(0.74706 0.0468772 0.079639 0.126424) 45358 90036 2
(0.500053 0.200789 0.0603576 0.2388) 45402 90123 2
(0.283696 0.313272 0.0584318 0.344601) 45448 90215 2
(0.221849 0.395026 0.0739082 0.309217) 45400 90119 1
(0.702917 0.146105 0.00287323 0.148105) 45400 90120 2
(0.194456 0.411554 0.260229 0.133762) 45402 90211 1
(0.00308749 0.00691148 0.491583 0.498418) 45492 90304 2
(0.0252983 0.489032 0.338828 0.146841) 45487 90294 1
(0.204502 0.183656 0.215081 0.396761) 45487 90294 2
(0.238156 0.199955 0.369639 0.192251) 45490 90387 2
(0.0439744 0.124759 0.464096 0.367171) 45484 90375 2
(0.658966 0.0971923 0.0740869 0.169755) 45530 90380 2
(0.307914 0.360224 0.228398 0.103464) 45578 90475 1
(0.475853 0.272569 0.191526 0.0600509) 45579 90477 1
(0.322251 0.196558 0.338677 0.142514) 45580 90482 2
(0.761787 0.0524301 0.11661 0.0691732) 45580 90567 2
(0.588738 0.216373 0.189934 0.00495399) 45576 90559 2
(0.334318 0.15658 0.320759 0.188343) 45575 90557 2
(0.308011 0.341224 0.0160726 0.334692) 45670 90659 2
(0.144736 0.193408 0.427113 0.234743) 45623 90568 2
(0.0494455 0.477842 0.0241079 0.448605) 45618 90555 1
(0.17783 0.135165 0.275835 0.41117) 45620 90560 2
(0.169931 0.062693 0.36043 0.406946) 45615 90549 2
(0.0496078 0.475732 0.118201 0.356459) 45620 90562 1
(0.2896 0.297809 0.354648 0.0579426) 45621 90564 2
(0.328714 0.349072 0.0745207 0.247693) 45623 90653 1
(0.2809 0.359654 0.286429 0.0730168) 45622 90566 1
(0.364601 0.228964 0.0986724 0.307762) 45756 90831 2
(0.0790951 0.471635 0.252228 0.197041) 45711 90829 1
(0.459832 0.0135291 0.256437 0.270202) 45755 90830 2
(0.414955 0.112995 0.286973 0.185077) 45755 90917 2
(0.358574 0.0191985 0.302319 0.319909) 45800 90919 2
(0.159697 0.430969 0.293866 0.115469) 45751 90909 1
(0.285649 0.360265 0.0436635 0.310422) 45797 90913 1
(0.284261 0.351222 0.357448 0.00706905) 45797 90916 2
(0.0415234 0.479539 0.365873 0.113065) 45798 90918 1
(0.28576 0.0746359 0.282807 0.356797) 45842 91004 2
(0.3207 0.339311 0.163846 0.176143) 45840 91000 1
(0.0368617 0.500488 0.0125535 0.450097) 45885 91089 2
(0.722001 0.138954 0.0762004 0.0628444) 45932 91184 1
(0.137443 0.375276 0.43054 0.0567414) 45977 91276 2
(0.516766 0.0943246 0.147873 0.241036) 45973 91266 2
(0.11754 0.37337 0.0687319 0.440359) 45972 91264 2
(0.277627 0.360827 0.353937 0.0076093) 45973 91268 1
(0.692778 0.0547509 0.101291 0.15118) 46020 91359 2
(0.344635 0.341559 0.0771996 0.236607) 46019 91445 1
(0.0480641 0.308408 0.45647 0.187058) 46017 91441 2
(0.519819 0.197426 0.239523 0.0432315) 46061 91444 2
(0.00578311 0.522432 0.124497 0.347288) 46061 91529 1
)


// ************************************************************************* //
