/*--------------------------------*- C++ -*----------------------------------*\
  =========                 |
  \\      /  F ield         | OpenFOAM: The Open Source CFD Toolbox
   \\    /   O peration     | Website:  https://openfoam.org
    \\  /    A nd           | Version:  7
     \\/     M anipulation  |
\*---------------------------------------------------------------------------*/
FoamFile
{
    version     2.0;
    format      ascii;
    class       scalarField;
    location    "0.11/lagrangian/reactingCloud1";
    object      tTurb;
}
// * * * * * * * * * * * * * * * * * * * * * * * * * * * * * * * * * * * * * //


422
(
0.00197985
0.00047285
0.006353
0.001257
6.77434e-06
0.00159885
0.0015297
0.00119302
0.0010392
0.00033835
0.006137
0.00231626
0.000106623
0.00210007
0.001041
3.155e-05
0.006017
0.000921
0.00246575
0.002917
0.00036
0.0008045
0.00172755
0.00584505
0.005873
0.00201935
0.00201305
0.00148755
0.00178568
0.005585
0.005537
0.002077
0.005561
0.005489
0.00077285
0.0006702
0.005417
0.001916
0.00079485
0.0033455
0.000797714
0.005321
0.005393
0.005297
0.0018742
0.00016955
0.005249
0.0017062
0.001353
0.0006685
0.00086355
0.0008392
0.00120459
0.005009
0.0012665
0.0010377
0.0001617
0.00110573
0.00042235
0.000104678
0.00049885
0.001601
0.001577
0.001553
0.001529
0.001505
0.001481
0.001457
0.001433
0.001409
0.001385
0.001361
0.00076105
0.001313
0.001289
0.001265
0.001241
0.001217
0.001193
0.001169
0.001145
0.001121
0.001097
0.001073
0.001049
0.001025
0.001001
0.000977
0.000953
0.000929
0.000905
0.000881
0.000857
0.000833
0.000809
0.000785
0.000761
0.000737
0.000713
0.000689
8.905e-05
0.000641
0.000617
0.000593
0.000569
0.000545
0.000521
0.000520625
0.000497
0.000473
0.000449
0.000425
0.000401
0.000377
0.000353
0.000329
0.000305
0.000281
0.000257
0.000233
0.000209
0.000185
0.000161
0.000137
0.000113
8.9e-05
6.5e-05
4.1e-05
1.7e-05
0.0009212
0.002873
0.002825
0.002777
0.002729
0.0009297
0.000454718
0.002705
0.002681
0.002633
0.002657
0.002609
0.002585
0.00195
0.002537
0.002489
0.002513
0.002465
0.002441
0.000979
0.002369
0.00108335
0.000986
0.002297
0.002321
0.000912613
0.002273
0.002225
0.002201
0.002177
0.002153
0.002129
0.002081
0.002105
0.002057
0.002009
0.002033
0.001985
0.001961
0.001889
0.000519
0.001913
0.001865
0.001817
0.001841
0.001769
0.00179262
0.001745
0.001721
0.001673
0.001649
0.001625
1.3e-05
0.000327039
9.80181e-05
0.004001
0.00018905
0.000157
0.00028185
0.003881
0.003905
0.000103
0.000113836
0.003833
0.0001315
0.0001422
0.00151878
0.003713
0.003785
0.000504169
0.003737
0.003641
0.00251234
0.003761
0.00151364
0.003617
0.003689
0.00276385
0.003545
0.003593
0.00136425
0.003569
0.003665
0.000245275
0.003521
0.003377
0.003353
0.003497
0.003449
0.001224
0.003425
0.003233
0.003257
0.003329
0.003209
0.003281
0.003113
0.003161
0.003089
0.003185
0.003041
0.0014012
0.003065
0.002969
0.002945
0.003017
0.0003805
0.00167655
0.000378347
0.002993
0.002801
0.002849
0.0001162
0.002897
0.004841
0.00133484
0.000314
0.00103808
0.000985
0.00104353
0.004793
0.004769
0.004721
0.000762
0.000888277
0.0011782
0.004697
0.00094
0.000980665
0.00084
0.0011263
0.00033555
0.00021055
0.004553
0.004481
0.00076505
0.004457
0.000745731
0.0004815
0.00038135
0.004433
0.004409
0.0007112
0.000720793
0.00061835
0.004193
0.000502012
0.00047705
0.000487
0.000355262
0.004097
0.004121
0.000345102
0.000278238
0.000287543
0.00413035
0.0021355
7.635e-05
0.00403435
0.00330335
4.07e-05
3.335e-05
0.009569
0.0030067
0.0035557
0.00167905
0.001998
0.00294335
0.00172655
0.002362
0.00291935
0.0009105
0.00179455
0.00641205
0.009233
0.00015105
0.00013685
0.004169
3.335e-05
0.009137
0.00215719
0.0008027
0.00249485
0.009041
0.003945
0.008969
0.0019152
0.00251135
0.00101535
0.0002662
0.008921
0.00296609
0.0028232
0.00229628
0.001729
0.00460755
0.0019677
0.0017232
0.00160571
0.00300235
0.00229535
0.000477
0.00457854
0.0008095
0.00255878
0.00484505
0.001369
0.0006735
0.00068585
0.00193535
0.008345
0.00254635
0.00219028
0.008249
0.00060385
0.0004817
0.00245035
0.008201
0.00029005
0.0002565
0.00217101
0.00077935
0.00233035
0.008057
0.00210085
0.003033
0.00151758
0.000198218
0.002969
0.00213835
0.0019222
0.00413209
0.00074805
0.0024725
0.007793
0.0006915
0.002729
0.0006355
0.00043405
0.00171255
0.007673
0.00121535
0.000529
0.00174172
0.00158231
0.000746218
0.00059955
0.003553
0.00321555
0.00083455
0.00027035
0.00369305
0.00309555
0.00237955
0.007217
0.003245
0.00325735
0.001682
0.00111669
0.00114424
0.00063935
0.00061535
0.0004767
0.00154655
0.007073
0.00335216
0.007049
0.00059135
0.00290178
0.00199035
0.00103513
0.00090805
7.87e-05
0.000123557
0.00131635
0.00075185
0.006809
0.003023
0.002982
0.0002205
0.00290721
0.00251955
0.001625
0.000694296
0.0014825
0.00072235
1.535e-05
0.001425
0.0013937
0.00106885
0.00060235
0.00055435
0.0025285
)


// ************************************************************************* //
