/*--------------------------------*- C++ -*----------------------------------*\
  =========                 |
  \\      /  F ield         | OpenFOAM: The Open Source CFD Toolbox
   \\    /   O peration     | Website:  https://openfoam.org
    \\  /    A nd           | Version:  7
     \\/     M anipulation  |
\*---------------------------------------------------------------------------*/
FoamFile
{
    version     2.0;
    format      ascii;
    class       vectorField;
    location    "0.11/lagrangian/reactingCloud1";
    object      U;
}
// * * * * * * * * * * * * * * * * * * * * * * * * * * * * * * * * * * * * * //


422
(
(359.059 4.57489 12.2034)
(425.958 -7.0946 6.78768)
(440.738 -0.0444218 1.42284e-07)
(439.755 -0.0295347 -0.00464511)
(434.966 -5.65521 -3.87169)
(421.26 -1.80824 -1.78592)
(412.771 -2.44027 1.12831)
(429.408 -5.02122 -1.32834)
(405.631 0.148194 -7.11812)
(414.89 1.67015 -13.5417)
(440.518 -0.0471986 3.87714e-06)
(443.104 0.227789 -7.57625)
(452.091 -10.9126 -6.23916)
(427.474 -0.0427892 0.405029)
(445.034 -0.0403313 2.5925)
(424.62 -6.58193 -1.17171)
(440.699 -0.0235067 -6.69358e-08)
(435.028 2.32545 -1.04307)
(441.213 -15.0761 -3.12497)
(441.501 -7.21739 -0.176124)
(421.589 -1.30849 1.46132)
(374.452 7.68872 -10.616)
(438.815 0.173106 -0.0773261)
(429.717 -14.9504 20.6761)
(439.879 -0.0437285 -1.12331e-05)
(435.012 -4.13181 -2.16676)
(430.511 0.840041 0.901371)
(436.398 4.29747 10.9241)
(436.45 -0.589249 -1.52881)
(439.669 0.0452989 1.92412e-06)
(439.751 0.0448254 -4.0166e-05)
(451.162 -18.9182 3.24263)
(439.163 0.101418 -9.20084e-06)
(439.745 0.0437687 -3.19856e-05)
(395.214 1.93797 4.44791)
(416.209 1.67945 -3.04567)
(439.358 0.140888 -5.87754e-05)
(425.62 0.406792 1.15604)
(412.523 -5.63733 -9.56834)
(436.295 -12.5421 2.40409)
(428.539 -22.0523 4.18369)
(439.393 0.0790051 1.01937e-06)
(438.801 0.271862 -1.61068e-05)
(439.048 0.233848 -4.8535e-07)
(431.028 -6.34714 3.07611)
(403.506 0.594213 5.94509)
(438.519 0.431484 -1.32979e-05)
(439.221 -3.80381 12.5663)
(430.604 1.59536 -0.780485)
(402.972 -7.6861 -2.61931)
(431.521 -1.84137 -0.759263)
(438.049 1.32999 0.950991)
(427.393 3.52288 -4.67285)
(436.389 1.11882 -3.29144e-05)
(414.835 8.54466 0.421943)
(433.392 -1.471 -4.65601)
(427.162 -7.58312 15.5761)
(431.208 0.453166 0.236409)
(91.5259 11.6236 4.12861)
(70.4123 7.10686 1.83717)
(134.625 2.77417 1.33356)
(114.165 21.3188 0.00154338)
(127.499 11.0399 -0.00041486)
(126.043 14.7385 2.9492e-05)
(126.421 16.2228 0.001702)
(129.498 14.8061 0.000952452)
(132.403 12.3238 -0.00120355)
(128.222 21.5757 0.00116662)
(133.786 15.2997 0.000959348)
(136.909 11.115 -0.000115425)
(138.568 9.51085 -0.000450581)
(135.185 25.0303 0.000412589)
(122.841 27.3176 -2.10204)
(141.796 15.4487 -0.000122457)
(142.804 20.0174 -0.00326237)
(144.708 19.0499 -7.89582e-05)
(145.691 25.4222 -5.98631e-05)
(147.49 9.58122 -0.000348084)
(150.081 16.003 -0.000160912)
(150.32 10.2861 -0.0010844)
(150.231 4.79469 -1.70382e-05)
(155.539 16.4137 -0.00104071)
(159.563 21.9156 -0.001823)
(160.376 18.5655 -0.00288598)
(161.784 16.5693 -0.00330181)
(160.097 11.8798 -0.000464153)
(157.327 6.54066 -0.00124985)
(165.831 13.7952 -0.000493246)
(167.892 16.1624 -0.000619016)
(158.722 4.44175 -4.24341e-05)
(158.073 1.15077 -0.000243949)
(163.036 6.54288 -0.000781418)
(169.648 9.95152 0.000130071)
(169.557 7.95492 0.00140567)
(165.103 5.35343 0.000265005)
(168.864 5.1719 -0.000156755)
(168.953 4.38207 -0.000880985)
(165.325 3.92331 -0.00073797)
(168.045 3.2755 -0.00170553)
(165.597 3.18431 0.000279326)
(166.07 5.9494 10.809)
(164.326 2.27888 -0.00056536)
(163.552 1.42665 -0.000316695)
(88.5405 -0.132311 -6.23589e-06)
(167.012 0.830552 -0.000177924)
(166.386 1.44147 0.00101932)
(165.509 1.57079 -6.14824e-05)
(165.466 1.55107 -0.000213147)
(165.959 1.33011 -0.000480723)
(166.243 0.952831 9.91156e-05)
(166.357 0.501546 7.34552e-05)
(165.352 1.07295 -0.000125132)
(166.146 0.493251 0.000183611)
(164.797 0.381762 5.97074e-06)
(165.688 -0.000630121 0.00025485)
(165.948 0.308169 0.000547105)
(165.41 0.736553 -9.827e-05)
(165.558 0.703495 -0.000108911)
(165.784 0.0500619 0.000306549)
(165.757 0.254004 0.000244987)
(165.424 0.532792 -2.12924e-05)
(165.499 0.596896 1.23438e-05)
(165.685 0.0877211 3.87413e-05)
(155.589 -0.213851 -1.098e-05)
(165.605 0.490871 -2.78613e-05)
(165.637 0.052819 7.0902e-06)
(165.6 0.453413 0.000343528)
(165.6 0.412935 -5.66304e-06)
(165.592 -0.0160549 -1.45044e-06)
(92.2169 -19.0486 -1.46091)
(109.255 -16.4486 0.00068409)
(116.977 -15.7508 -0.000317414)
(112.06 -14.8354 -0.00035643)
(119.382 -12.5822 0.00191586)
(26.9376 3.10033 -0.00464754)
(89.1013 -20.6371 -10.2203)
(124.326 -9.57886 -2.01859e-05)
(105.974 -12.8025 -0.000453262)
(123.072 -7.72632 0.000663413)
(103.01 -12.0748 -0.000167577)
(104.266 -11.5016 -9.66974e-06)
(114.061 -10.0784 -4.02557e-05)
(103.976 -18.3559 -6.83441)
(110.083 -9.58319 0.00109512)
(113.311 -7.82726 9.59784e-05)
(111.503 -8.75875 6.64102e-05)
(121.32 -3.73502 4.55589e-06)
(103.86 -8.01262 0.000852214)
(87.8981 1.32789 -16.5878)
(108.969 -5.88811 0.00258987)
(77.2836 -6.50333 5.23653)
(80.0961 -5.75138 -0.311402)
(117.646 -2.5957 2.21379e-05)
(106.169 -4.96602 0.000758509)
(90.7622 -7.90911 1.73156)
(105.561 -3.64323 0.00280883)
(111.542 -2.18642 0.000758083)
(118.997 -0.913373 0.000238111)
(117.864 -0.837595 6.73142e-06)
(111.642 -0.510502 0.00127017)
(105.625 0.292845 9.56946e-05)
(117.717 0.557305 0.000885955)
(104.497 1.14636 0.000480033)
(116.101 1.19236 7.2392e-05)
(118.864 1.55212 -6.76549e-06)
(104.506 3.49439 0.000492305)
(118.889 1.9527 -9.34312e-06)
(117.351 3.01032 -4.00967e-05)
(117.097 5.07502 -0.000146223)
(90.0656 8.03584 -1.45458)
(101.856 8.48322 0.000426759)
(106.056 9.44493 2.313e-05)
(123.038 3.76623 1.18552e-05)
(101.951 11.5646 9.68743e-05)
(125.597 2.52327 -1.89496e-05)
(104.835 13.1713 9.73697e-05)
(110.495 13.9279 0.000922778)
(107.682 16.0096 -0.000103181)
(126.031 6.77936 -0.000394475)
(126.129 7.99702 -0.000456909)
(111.815 20.8141 -0.000270706)
(108.749 -31.1764 -1.72839)
(343.934 -9.34196 -1.9286)
(339.543 -15.6889 -11.2532)
(347.368 -5.18652 -0.00102797)
(327.481 -22.4626 8.59987)
(311.175 -29.848 1.1658)
(276.915 -41.1941 5.39441)
(329.324 -1.94776 -7.62543e-05)
(329.033 -5.68073 0.000100956)
(312.494 -27.9878 -3.54985)
(284.984 -41.6984 0.20801)
(297.191 -18.416 5.0467e-05)
(280.102 -43.9 1.1921)
(154.38 -43.9159 0.624753)
(241.807 -55.6077 1.24136)
(270.502 -13.3583 -0.000954924)
(245.191 -39.7463 0.00010859)
(136.337 -46.8902 -3.01816)
(223.284 -41.3529 0.000741421)
(235.321 -23.7919 0.000225968)
(198.914 -51.7334 -2.69094)
(212.781 -44.7954 0.00341611)
(201.803 -50.9576 -2.57394)
(218.75 -29.2172 0.000699361)
(204.038 -41.1247 4.96634e-05)
(200.724 -55.3378 -3.46237)
(219.59 -13.9957 5.52954e-05)
(206.368 -31.2482 0.00104413)
(162.001 -48.1949 -0.316445)
(205.142 -29.235 0.00218826)
(183.525 -41.7595 0.00185955)
(168.741 -49.4218 -1.74348)
(170.823 -35.4526 -0.000327993)
(185.696 -14.1438 0.000702898)
(184.188 -9.66417 0.000396466)
(158.451 -35.1638 0.00202229)
(149.471 -34.0236 -0.000431189)
(132.829 -39.0166 2.04204)
(142.613 -33.3864 -0.00133904)
(161.53 -16.6913 5.60067e-07)
(154.204 -23.395 -5.62011e-06)
(143.533 -29.7663 0.000613075)
(150.781 -21.5678 0.00133103)
(140.872 -28.3497 0.000779813)
(156.447 -4.07683 6.37164e-05)
(140.887 -22.8554 -7.40534e-07)
(147.808 -14.0905 -2.13816e-05)
(135.963 -25.3961 -0.000110052)
(144.245 -13.2811 -2.85597e-05)
(114.287 -27.3973 8.53711)
(130.735 -21.204 -2.40624e-07)
(138.351 -12.664 0.00113122)
(138.436 -11.002 0.000628366)
(126.869 -20.2094 -0.000114728)
(121.776 -23.4351 2.78219)
(120.116 -25.0772 0.378509)
(32.1203 -5.45552 -4.49035)
(119.063 -20.0256 0.000233462)
(127.676 -11.4329 -2.75675e-06)
(123.044 -15.244 -0.000102272)
(105.87 -22.7803 1.11181)
(117.714 -17.6407 0.00275152)
(434.535 1.16791 -2.62137e-06)
(416.963 4.03859 1.06735)
(339.702 9.54717 -12.9947)
(420.942 0.0471026 3.07776)
(438.173 -16.8887 -5.09518)
(379.023 4.81958 6.32175)
(432.481 1.4893 -1.27202e-06)
(432.557 1.31317 -2.1915e-06)
(432.15 0.917376 -5.1332e-07)
(428.433 -7.81028 1.74554)
(434.564 4.79983 0.315017)
(419.737 2.53758 0.262816)
(429.961 1.28822 -8.65445e-07)
(399.275 6.18917 -13.1063)
(404.817 -6.72389 1.78174)
(428.72 -1.68447 -3.8802)
(416.178 3.56712 -1.86356)
(422.671 -1.19175 0.270304)
(379.74 0.5279 -7.28338)
(420.137 0.843194 0.000419692)
(419.69 0.380553 5.35236e-05)
(421.091 0.278246 3.24267)
(419.271 0.19474 2.57939e-06)
(414.279 6.34178 -3.71438)
(412.127 0.588967 4.3562)
(407.32 3.81537 -3.87535)
(410.739 -0.137263 3.32976e-05)
(406.333 -0.574754 7.21243e-05)
(392.848 -1.74786 -0.647955)
(404.665 -3.09584 0.619625)
(380.708 -3.51924 0.274263)
(393.033 0.010793 -4.63118e-07)
(370.948 -2.10129 0.206137)
(382.65 -2.00068 -0.663082)
(363.017 0.164972 1.27612)
(381.777 -6.90538 5.87409)
(377.835 -0.0778019 -1.25422e-05)
(372.867 -1.94326 0.000236504)
(369.334 -6.09855 -2.83236)
(363.128 -11.0036 -0.046641)
(339.727 -11.7857 -4.34867)
(452.123 -9.39628 7.3468)
(438.818 -0.407806 1.80594)
(418.217 14.0282 9.57196)
(440.984 -4.91133 -2.65118)
(438.72 -2.52402 -0.70214)
(441.821 -2.15003 -0.605096)
(446.362 -15.2865 11.7667)
(442.686 -0.0423793 9.14578e-06)
(453.553 -12.0685 9.49475)
(438.001 -7.24832 -8.03314)
(440.529 0.124162 -0.0576757)
(416.329 2.94066 -4.36231)
(441.441 -4.64787 -2.53557)
(399.027 -0.0318852 0.655852)
(424.739 -1.89748 7.89077)
(435.234 0.611689 0.990497)
(440.825 -11.7689 2.20936)
(385.716 -0.881419 9.75227)
(453.409 -10.878 8.59418)
(442.88 0.0159166 -6.19727e-07)
(419.552 11.1207 8.32345)
(432.562 -6.18651 -7.39412)
(437.151 -2.94523 -0.784302)
(449.461 -4.92776 1.07952)
(442.707 0.0179618 -2.07664e-06)
(439.766 -6.39386 -7.06491)
(415.614 1.86754 -3.97334)
(396.458 3.18358 -16.9531)
(442.705 0.0185059 1.08297e-06)
(440.753 -4.96345 -7.55905)
(442.832 0.0300601 1.14191e-07)
(433.186 -5.76007 11.4683)
(441.071 -4.45119 -6.79492)
(409.962 -0.153757 1.47883)
(414.615 -5.51185 3.20612)
(442.499 -0.0144512 2.61097e-06)
(422.493 -5.71826 3.21465)
(416.363 -2.64972 1.25064)
(436.424 -5.50846 -6.39968)
(434.72 -3.7395 2.164)
(453.914 -11.1272 8.80772)
(383.283 4.98405 5.68707)
(386.882 5.44512 14.2598)
(443.79 0.000601502 0.0231588)
(437.875 -4.56439 9.28669)
(447.118 -2.96777 -0.804073)
(435.697 -3.26761 1.23122)
(460.889 -7.35684 12.219)
(439.331 1.45546 3.41147)
(408.433 -0.138626 1.38032)
(438.69 -6.88491 -2.06104)
(438.916 3.23704 8.41395)
(455.626 -5.32534 8.80293)
(390.774 -1.24007 -9.57029)
(440.596 -2.8377 -1.96014)
(442.727 -0.0376757 6.57749e-06)
(440.413 -13.6062 2.54624)
(428.211 -0.823891 -5.70254)
(442.786 -0.0159194 3.56379e-07)
(391.27 -2.48341 1.24114)
(435.354 -1.955 7.521)
(436.087 1.1348 -2.31582)
(442.741 -0.038877 2.07677e-06)
(423.969 1.1142 11.5055)
(429.371 -0.294447 -0.00707683)
(456.259 -8.344 13.5216)
(413.752 -10.9836 -3.19581)
(418.532 4.46494 -8.35529)
(442.699 -0.0411264 1.55198e-06)
(420.927 -0.459157 -0.000235599)
(439.786 -3.13525 -2.18059)
(421.362 -2.4346 1.17046)
(453.272 2.51002 -4.08224)
(422.442 -0.469539 5.99483)
(440.62 1.41806 -8.75564)
(422.526 -1.76316 0.869415)
(436.723 -3.46196 1.34015)
(432.969 3.16307 -3.94704)
(430.783 -5.37577 -8.50595)
(442.483 -0.018618 1.83526e-05)
(414.366 5.79229 -10.572)
(435.466 -2.65553 -0.676625)
(433.791 -0.333044 -0.000194316)
(428.791 -2.34287 -1.93575)
(363.863 11.8922 7.92465)
(442.332 0.012783 -8.93246e-06)
(437.066 -2.31704 -0.605632)
(444.061 -2.25138 0.57374)
(440.902 -5.7053 0.239872)
(429.214 -3.94662 1.46919)
(432.247 -3.04386 0.321417)
(419.014 -8.614 0.361661)
(451.971 -5.20387 1.17829)
(447.728 -3.65455 -1.00792)
(433.444 -5.18049 -8.32601)
(421.316 -6.90512 -0.635996)
(426.842 -9.11622 -10.879)
(443.267 -6.09416 -7.02073)
(428.219 -8.02411 -2.34582)
(442.099 0.0211184 -1.6e-07)
(459.223 -9.6634 -5.70031)
(429.508 0.017632 4.95059)
(428.943 -3.78566 0.877088)
(419.311 7.83447 5.93407)
(427.334 3.35838 -6.27049)
(442.277 1.43256 -8.37377)
(444.602 -4.00396 3.61625)
(394.099 -2.55703 -3.85159)
(428.829 -2.0664 -3.1819)
(441.855 0.0112818 -3.97768e-06)
(434.584 -6.64349 6.62919)
(442.033 0.0175083 -5.02311e-07)
(424.999 8.58721 5.52524)
(435.886 -0.564247 2.42444)
(431.814 -6.54896 5.63967)
(444.505 -5.90579 1.28973)
(416.251 8.65172 2.1484)
(432.129 0.347812 -6.68001)
(438.338 -0.224786 3.4741)
(429.195 -3.94857 2.31326)
(412.758 1.48324 1.04254)
(441.405 0.000143848 -1.00485e-05)
(431.582 -4.22868 1.43097)
(432.92 -2.39833 6.76816)
(420.688 -6.40975 -1.64647)
(435.902 -1.76086 -3.50712)
(437.08 -5.33208 11.1335)
(439.177 -1.59676 6.54189)
(425.498 2.69151 4.89621)
(399.067 -3.2959 -2.67866)
(433.517 0.919384 -6.94367)
(437.22 2.14577 -0.937616)
(437.472 0.943199 7.73074)
(425.749 -5.57848 -0.505955)
(412.804 -12.9437 -15.0798)
(444.613 3.71015 3.72645)
(452.815 6.95216 -3.78076)
(436.736 -4.53941 3.16327)
)


// ************************************************************************* //
