/*--------------------------------*- C++ -*----------------------------------*\
  =========                 |
  \\      /  F ield         | OpenFOAM: The Open Source CFD Toolbox
   \\    /   O peration     | Website:  https://openfoam.org
    \\  /    A nd           | Version:  7
     \\/     M anipulation  |
\*---------------------------------------------------------------------------*/
FoamFile
{
    version     2.0;
    format      ascii;
    class       vectorField;
    location    "0.11/lagrangian/reactingCloud1";
    object      UTurb;
}
// * * * * * * * * * * * * * * * * * * * * * * * * * * * * * * * * * * * * * //


422
(
(-2.58828 5.11273 12.2034)
(-6.74656 -6.7622 6.78769)
(0 0 0)
(0.0674646 0.0738575 -0.00464549)
(-1.508 -5.40817 -3.8717)
(1.21189 -1.35881 -1.78591)
(2.99183 -1.92115 1.12844)
(-10.7126 -4.94415 -1.32834)
(2.01307 0.705631 -7.11812)
(-24.9824 1.75876 -13.5416)
(0 0 0)
(8.72107 0.53919 -7.57624)
(18.9607 -10.5953 -6.23906)
(-1.43802 0.336406 0.405032)
(5.39309 0.0625501 2.59252)
(-7.58747 -6.24952 -1.17169)
(0 0 0)
(-4.08183 2.44756 -1.04306)
(0.90352 -15.0301 -3.12497)
(3.38273 -7.04362 -0.176118)
(-2.69877 -0.912957 1.46137)
(-7.96525 8.2776 -10.6161)
(-0.233751 0.289214 -0.0773251)
(-10.6336 -14.9328 20.6761)
(0 0 0)
(-3.23548 -4.01828 -2.16665)
(1.02464 1.10014 0.901445)
(-0.911655 4.39031 10.9242)
(-1.23136 -0.556318 -1.52873)
(0 0 0)
(0 0 0)
(11.6521 -18.9848 3.24266)
(0 0 0)
(0 0 0)
(6.40187 2.22764 4.44797)
(-0.619284 1.77462 -3.04553)
(0 0 0)
(-2.41315 0.299949 1.15617)
(-0.11446 -5.62644 -9.56816)
(-2.18523 -12.8089 2.40424)
(-3.80273 -22.2901 4.18385)
(0 0 0)
(0 0 0)
(0 0 0)
(1.44876 -6.68573 3.0763)
(-6.07124 0.3245 5.94522)
(0 0 0)
(5.1839 -4.40785 12.5664)
(-4.0932 0.665229 -0.78037)
(-3.55311 -8.63311 -2.61878)
(-5.23534 -2.85579 -0.759176)
(1.46698 0.267435 0.951016)
(4.15607 2.17418 -4.67247)
(0 0 0)
(-0.446657 6.96482 0.42241)
(-0.666417 -3.10914 -4.65593)
(23.5118 -9.33327 15.5761)
(2.94681 -1.49314 0.236585)
(24.3955 3.90004 4.12971)
(-7.10409 -5.24781 1.83769)
(6.21374 -5.41558 1.31281)
(0 0 0)
(0 0 0)
(0 0 0)
(0 0 0)
(0 0 0)
(0 0 0)
(0 0 0)
(0 0 0)
(0 0 0)
(0 0 0)
(0 0 0)
(-15.1549 -3.28036 -2.10176)
(0 0 0)
(0 0 0)
(0 0 0)
(0 0 0)
(0 0 0)
(0 0 0)
(0 0 0)
(0 0 0)
(0 0 0)
(0 0 0)
(0 0 0)
(0 0 0)
(0 0 0)
(0 0 0)
(0 0 0)
(0 0 0)
(0 0 0)
(0 0 0)
(0 0 0)
(0 0 0)
(0 0 0)
(0 0 0)
(0 0 0)
(0 0 0)
(0 0 0)
(0 0 0)
(0 0 0)
(1.90078 5.37824 10.8091)
(0 0 0)
(0 0 0)
(0 0 0)
(0 0 0)
(0 0 0)
(0 0 0)
(0 0 0)
(0 0 0)
(0 0 0)
(0 0 0)
(0 0 0)
(0 0 0)
(0 0 0)
(0 0 0)
(0 0 0)
(0 0 0)
(0 0 0)
(0 0 0)
(0 0 0)
(0 0 0)
(0 0 0)
(0 0 0)
(0 0 0)
(0 0 0)
(0 0 0)
(0 0 0)
(0 0 0)
(0 0 0)
(-11.7817 -5.43759 -1.46091)
(0 0 0)
(0 0 0)
(0 0 0)
(0 0 0)
(0.0828426 0.0906929 -0.0057044)
(-13.9978 -8.57015 -10.2201)
(0 0 0)
(0 0 0)
(0 0 0)
(0 0 0)
(0 0 0)
(0 0 0)
(1.60666 -8.06098 -6.83443)
(0 0 0)
(0 0 0)
(0 0 0)
(0 0 0)
(0 0 0)
(11.143 8.3182 -16.5858)
(0 0 0)
(0.893539 -4.86601 5.2365)
(-4.61657 -2.73274 -0.31302)
(0 0 0)
(0 0 0)
(3.02552 -4.51477 1.73133)
(0 0 0)
(0 0 0)
(0 0 0)
(0 0 0)
(0 0 0)
(0 0 0)
(0 0 0)
(0 0 0)
(0 0 0)
(0 0 0)
(0 0 0)
(0 0 0)
(0 0 0)
(0 0 0)
(1.65066 -1.64448 -1.45681)
(0 0 0)
(0 0 0)
(0 0 0)
(0 0 0)
(0 0 0)
(0 0 0)
(0 0 0)
(0 0 0)
(0 0 0)
(0 0 0)
(0 0 0)
(-12.7408 8.51187 -1.74321)
(-0.127504 1.70942 -1.92804)
(3.44118 -1.25224 -11.2533)
(0 0 0)
(-4.35828 -6.94329 8.60488)
(-0.771009 -1.30448 1.1662)
(-10.3146 1.68415 5.41186)
(0 0 0)
(0 0 0)
(3.07739 -1.47427 -3.54599)
(-1.77057 2.31682 0.205455)
(0 0 0)
(-0.539198 0.272595 1.19522)
(-5.02047 0.72257 0.705314)
(-2.26462 -3.05991 1.24019)
(0 0 0)
(0 0 0)
(2.69312 -9.67777 -3.01911)
(0 0 0)
(0 0 0)
(1.72405 -2.59198 -2.69292)
(0 0 0)
(7.07385 -1.34258 -2.57446)
(0 0 0)
(0 0 0)
(1.53713 -13.9831 -3.46785)
(0 0 0)
(0 0 0)
(3.01784 -3.25865 -0.320282)
(0 0 0)
(0 0 0)
(3.15023 -6.47955 -1.74501)
(0 0 0)
(0 0 0)
(0 0 0)
(0 0 0)
(0 0 0)
(2.1051 -3.17235 2.04401)
(0 0 0)
(0 0 0)
(0 0 0)
(0 0 0)
(0 0 0)
(0 0 0)
(0 0 0)
(0 0 0)
(0 0 0)
(0 0 0)
(0 0 0)
(-2.10131 1.15591 8.53478)
(0 0 0)
(0 0 0)
(0 0 0)
(0 0 0)
(5.77974 0.0670346 2.77839)
(9.11324 -1.28382 0.378624)
(1.26994 0.445146 -4.49046)
(0 0 0)
(0 0 0)
(0 0 0)
(10.458 -4.84001 1.11002)
(0 0 0)
(0 0 0)
(1.49689 1.95162 1.06792)
(-16.9892 7.57832 -12.9942)
(-1.17173 -2.15843 3.07797)
(5.94032 -18.7383 -5.09511)
(-14.1684 2.59753 6.32219)
(0 0 0)
(0 0 0)
(0 0 0)
(-2.42249 -9.46586 1.74554)
(6.43511 2.70546 0.315014)
(-2.21637 0.31704 0.262725)
(0 0 0)
(10.5822 4.02047 -13.1063)
(1.48155 -8.87625 1.78155)
(2.29451 -3.43528 -3.88019)
(2.04356 1.46784 -1.86341)
(1.30388 -2.29489 0.270296)
(-0.0690302 -0.535724 -7.28356)
(0 0 0)
(0 0 0)
(3.83708 -0.825033 3.2426)
(0 0 0)
(0.58846 5.4203 -3.71441)
(-2.47282 0.150692 4.35618)
(2.38106 3.48438 -3.87583)
(0 0 0)
(0 0 0)
(3.28678 0.680178 -0.648857)
(16.7791 0.11395 0.619858)
(1.02124 0.57614 0.275962)
(0 0 0)
(2.2628 2.05944 0.20707)
(-0.90285 2.0831 -0.663954)
(0.244118 5.32254 1.27712)
(3.52002 -2.90076 5.87337)
(0 0 0)
(0 0 0)
(2.22006 -0.179903 -2.83161)
(5.0371 -2.33571 -0.0466137)
(-13.1527 -3.26214 -4.34933)
(9.17348 -9.30069 7.34683)
(-1.54811 -0.288604 1.80595)
(7.91551 14.5774 9.57197)
(-0.531752 -4.822 -2.65118)
(-0.917008 -2.41276 -0.702081)
(-0.790323 -2.07944 -0.605088)
(14.6923 -14.896 11.7667)
(0 0 0)
(11.8555 -12.0199 9.49479)
(1.76635 -6.97752 -8.03288)
(-0.174351 0.215719 -0.0576754)
(-7.38187 3.43907 -4.36227)
(-0.508554 -4.61164 -2.53552)
(-2.32858 0.544738 0.655863)
(-3.09435 -1.42264 7.89078)
(-1.17356 0.918677 0.990688)
(-2.00812 -11.7708 2.20938)
(-24.1143 -0.366477 9.75226)
(10.731 -10.8798 8.59422)
(0 0 0)
(18.9669 11.7154 8.32345)
(-10.1272 -6.20038 -7.3941)
(-1.02404 -2.69437 -0.784027)
(10.1708 -4.70707 1.07953)
(0 0 0)
(1.55344 -6.13649 -7.06464)
(-0.807946 2.31525 -3.97334)
(-13.0761 3.72555 -16.9532)
(0 0 0)
(-1.07444 -4.88437 -7.55905)
(0 0 0)
(-4.0419 -5.47782 11.4684)
(-0.965819 -4.39057 -6.79485)
(2.28114 0.415861 1.47883)
(3.30194 -4.97596 3.20611)
(0 0 0)
(-10.3596 -5.40689 3.21469)
(3.31596 -2.12929 1.25069)
(4.73273 -5.18684 -6.39968)
(-6.97372 -3.63975 2.16403)
(10.9976 -11.1501 8.80772)
(6.88399 5.50737 5.68706)
(-3.02443 5.97428 14.2598)
(0.874992 -0.981071 -1.28944)
(-3.27304 -4.43582 9.28685)
(5.52802 -2.85639 -0.804057)
(-2.24831 -3.03788 1.23126)
(18.4444 -7.3217 12.219)
(4.91008 1.70854 3.41148)
(2.12911 0.388145 1.38026)
(-2.79631 -6.7943 -2.06099)
(-0.702172 3.38149 8.41401)
(13.2879 -5.27476 8.80294)
(-0.090703 -0.70392 -9.57031)
(-0.799924 -2.76604 -1.96007)
(0 0 0)
(-2.31429 -13.5654 2.54623)
(-0.0540461 -0.419437 -5.70255)
(0 0 0)
(1.02918 -1.92422 1.24114)
(-0.541022 -1.7212 7.52101)
(-0.470902 1.34942 -2.31582)
(0 0 0)
(-2.83272 1.55825 11.5055)
(0.102626 0.112351 -0.00706663)
(20.4106 -8.10223 13.5216)
(-4.336 -10.5353 -3.19581)
(-10.924 4.87283 -8.35525)
(0 0 0)
(8.20718e-05 -0.000109814 -0.000194945)
(-0.88989 -3.07713 -2.18052)
(3.10327 -1.99271 1.17047)
(11.1526 2.50974 -4.08224)
(-14.8234 -0.225278 5.99484)
(1.51294 1.56583 -8.75564)
(0.720984 -1.348 0.86947)
(-2.44715 -3.30654 1.34015)
(2.42477 3.54835 -3.94699)
(-0.101753 -5.00182 -8.50596)
(0 0 0)
(-13.8222 6.16565 -10.572)
(-4.66395 -2.54411 -0.676318)
(7.57075e-05 -0.000101298 -0.000179828)
(0.643768 -1.97784 -1.93575)
(-21.8377 12.4457 7.92465)
(0 0 0)
(-4.17647 -2.2782 -0.605629)
(2.40012 -2.24814 0.573742)
(8.28398 -5.37685 0.239907)
(-2.68278 -3.62493 1.4692)
(1.55064 -2.72919 0.321449)
(12.494 -8.10943 0.361831)
(11.1019 -5.13801 1.17837)
(6.92956 -3.58058 -1.00791)
(-0.0996 -4.89599 -8.32598)
(5.99264 -6.47081 -0.635996)
(-14.9003 -9.12267 -10.879)
(1.54379 -6.09835 -7.02073)
(-3.18267 -7.73304 -2.34575)
(0 0 0)
(17.3234 -9.68041 -5.70031)
(-5.05564 0.270218 4.95071)
(3.66967 -3.43731 0.877227)
(13.5222 8.35232 5.93408)
(17.1308 3.85505 -6.27047)
(1.44693 1.49752 -8.37367)
(3.19964 -3.98083 3.61628)
(10.5834 -2.00867 -3.85172)
(8.74288 -1.65935 -3.18189)
(0 0 0)
(-6.58902 -6.60429 6.62919)
(0 0 0)
(-15.2259 8.67747 5.52529)
(-2.07833 -0.387449 2.42448)
(4.99007 -6.2084 5.63986)
(12.1512 -5.62362 1.28974)
(2.38775 9.121 2.14852)
(1.88912 0.662186 -6.67987)
(7.22698 0.08382 3.4741)
(2.38247 -3.59034 2.31333)
(0.874427 1.96709 1.04255)
(0 0 0)
(-8.57769 -4.14899 1.43101)
(-5.97397 -2.24537 6.76818)
(-13.2781 -6.12822 -1.64646)
(-2.37961 -1.57486 -3.50711)
(-3.92387 -5.31786 11.1335)
(-0.470615 -1.49721 6.54225)
(3.13568 3.10238 4.89622)
(0.890843 -2.73692 -2.67868)
(-6.68815 0.98677 -6.94367)
(-3.66916 2.20011 -0.937612)
(-1.90335 1.04702 7.73074)
(4.76706 -5.14744 -0.505926)
(-20.6535 -12.6451 -15.0796)
(5.02034 3.81447 3.72656)
(13.1754 7.05448 -3.78076)
(-3.20704 -4.45109 3.16342)
)


// ************************************************************************* //
