/*--------------------------------*- C++ -*----------------------------------*\
  =========                 |
  \\      /  F ield         | OpenFOAM: The Open Source CFD Toolbox
   \\    /   O peration     | Website:  https://openfoam.org
    \\  /    A nd           | Version:  7
     \\/     M anipulation  |
\*---------------------------------------------------------------------------*/
FoamFile
{
    version     2.0;
    format      ascii;
    class       volScalarField;
    location    "0.14";
    object      alphat;
}
// * * * * * * * * * * * * * * * * * * * * * * * * * * * * * * * * * * * * * //

dimensions      [1 -1 -1 0 0 0 0];

internalField   nonuniform List<scalar> 
48560
(
0.0051093
0.0050572
0.0050039
0.00495159
0.00490087
0.00485222
0.00480613
0.00476297
0.00472312
0.00468691
0.00465463
0.00462656
0.00460294
0.00458401
0.00457002
0.00456117
0.0045577
0.00455983
0.00456781
0.00458186
0.00460226
0.00462929
0.00466326
0.00470449
0.00475338
0.00481033
0.00487571
0.00494962
0.00505948
0.00518415
0.00532264
0.00547354
0.00563413
0.00580095
0.00596926
0.00614109
0.00631564
0.00649724
0.00668962
0.00690633
0.00715034
0.00742022
0.00771499
0.00801516
0.0082819
0.00837758
0.00797306
0.00694016
0.00546866
0.00391591
0.00126477
0.000499802
0.000550338
0.000574579
0.000615284
0.000635961
0.000681499
0.000708557
0.000775468
0.00083487
0.000960503
0.00103639
0.00108339
0.000986558
0.00108372
0.000849224
0.000856304
0.000890368
0.000947918
0.00101945
0.00110953
0.00120322
0.00130716
0.0014007
0.00148573
0.00153804
0.00154223
0.00146079
0.00128431
0.0010751
0.000947193
0.000984852
0.00104474
0.00104342
0.00101931
0.000973672
0.000931096
0.000894685
0.000871944
0.000857051
0.000854228
0.000853003
0.00085229
0.000848706
0.000843066
0.000831383
0.00081398
0.000787493
0.000751127
0.000702828
0.00484582
0.00483086
0.00481644
0.00480362
0.00479289
0.00478468
0.00477942
0.00477741
0.004779
0.00478443
0.004794
0.00480792
0.00482643
0.00484973
0.00487804
0.00491158
0.00495055
0.00499513
0.00504547
0.00510161
0.00516372
0.00523185
0.00530612
0.00538654
0.00547308
0.00556559
0.00566381
0.00576674
0.00591604
0.00607265
0.00623811
0.00641063
0.00659286
0.00678579
0.00699801
0.00723601
0.00750597
0.0078105
0.0081523
0.00852672
0.00893071
0.00933442
0.00965623
0.00973677
0.009455
0.00871781
0.00757378
0.00623729
0.00511141
0.0046069
0.00507326
0.00904726
0.00945954
0.00991218
0.0103092
0.01061
0.0102355
0.0104
0.00971415
0.00989574
0.00897484
0.00868236
0.00777495
0.00820603
0.00716811
0.00711938
0.00693646
0.00696786
0.00676143
0.006723
0.0066926
0.00676879
0.00685388
0.00699396
0.00712504
0.0071804
0.0070045
0.00648412
0.00673288
0.00642508
0.00704641
0.00995713
0.00904561
0.00847816
0.00819159
0.00817034
0.00856038
0.00958177
0.0107124
0.012142
0.0136121
0.0151027
0.0167037
0.0185533
0.0205782
0.0229583
0.0258311
0.0300275
0.0369559
0.0528135
0.0052055
0.00522041
0.00523793
0.00525814
0.00528145
0.00530815
0.00533851
0.00537266
0.00541078
0.0054529
0.00549915
0.00554951
0.00560413
0.005663
0.00572624
0.00579377
0.00586561
0.00594162
0.00602169
0.00610633
0.00619532
0.00628895
0.00638728
0.00649063
0.00659915
0.0067133
0.00683349
0.00695959
0.00715453
0.00737072
0.00760863
0.0078734
0.00816563
0.00848992
0.00884803
0.00924125
0.00967001
0.0101216
0.0105698
0.0109344
0.0111541
0.0110999
0.0107368
0.0100237
0.00903416
0.00787464
0.00689137
0.00625209
0.00621191
0.00693542
0.00896759
0.0142039
0.0146892
0.0152066
0.0148706
0.0159231
0.0148242
0.0161095
0.0141407
0.0149852
0.0131526
0.0126932
0.0114297
0.0115838
0.0104462
0.0107149
0.0108317
0.0114201
0.0112229
0.0118133
0.0117094
0.0116265
0.0116034
0.0116001
0.0116406
0.0116794
0.0117036
0.0115213
0.0113873
0.0102251
0.0145452
0.0230199
0.0211959
0.0201489
0.0198091
0.0165165
0.0190669
0.0195391
0.0258854
0.0318222
0.0386258
0.0429633
0.0475671
0.0529654
0.0592814
0.0672684
0.0697768
0.0636186
0.0592188
0.0580421
0.00629852
0.00632821
0.00636166
0.00639974
0.00644171
0.00648881
0.00654025
0.00659689
0.00665788
0.00672391
0.00679452
0.00687042
0.00695137
0.00703799
0.00713023
0.00722873
0.00733361
0.00744562
0.00756523
0.00769279
0.0078287
0.00797347
0.00812734
0.00829097
0.00846501
0.00865032
0.00884747
0.00905746
0.00937534
0.00972059
0.0100926
0.010492
0.0109127
0.0113468
0.01177
0.0121502
0.0124373
0.0125723
0.0125142
0.012213
0.0116744
0.0108998
0.0100028
0.00909909
0.00828867
0.00771658
0.00754568
0.00789059
0.00883867
0.0105876
0.0138508
0.0181511
0.0194492
0.0206601
0.0196315
0.0210331
0.0191191
0.0200131
0.0179698
0.0183776
0.0164768
0.0156706
0.0145915
0.0145782
0.0144101
0.0144291
0.0154211
0.0164502
0.0168048
0.0170125
0.0173072
0.0176551
0.0180519
0.0184746
0.0185946
0.0167342
0.0139864
0.0134946
0.0149953
0.0173609
0.0297882
0.0434107
0.0412315
0.0402565
0.032496
0.030083
0.0328656
0.0306776
0.0331759
0.0336819
0.0377838
0.0409483
0.0464347
0.0509812
0.0565192
0.06103
0.0641497
0.0647123
0.0641721
0.0638482
0.00814571
0.00818878
0.00823996
0.00829965
0.00836712
0.00844361
0.0085284
0.0086225
0.00872513
0.00883716
0.00895806
0.00908871
0.00922874
0.00937896
0.00953909
0.00970985
0.00989092
0.0100829
0.0102853
0.0104987
0.0107226
0.0109571
0.0112028
0.0114598
0.0117274
0.0120048
0.0122893
0.0125789
0.0129564
0.0133245
0.0136489
0.0139169
0.0140882
0.0141474
0.0140705
0.0138424
0.0134496
0.0128964
0.0121948
0.0114626
0.0107006
0.00999364
0.00939348
0.00898901
0.00886944
0.00913342
0.00984328
0.0110331
0.0128052
0.0145263
0.0185542
0.0205017
0.022146
0.0229202
0.0228976
0.0237654
0.0227114
0.0232875
0.0218372
0.0220476
0.0205883
0.0197336
0.0188536
0.0189804
0.0198201
0.0194332
0.0216724
0.0224365
0.0245049
0.025303
0.0265941
0.0270815
0.0270483
0.0258979
0.0234247
0.020202
0.0174895
0.0170815
0.0170713
0.0221088
0.0336045
0.0407552
0.0428446
0.028638
0.0266608
0.0273296
0.0286563
0.0288286
0.0324391
0.0341971
0.0393583
0.0430436
0.049512
0.0550695
0.062213
0.0667028
0.0685923
0.0697146
0.0709071
0.0717008
0.0113629
0.0114118
0.0114788
0.0115605
0.0116583
0.0117704
0.0118979
0.0120396
0.0121958
0.0123654
0.0125485
0.0127446
0.0129535
0.0131747
0.0134076
0.0136511
0.0139034
0.0141617
0.0144218
0.0146804
0.0149319
0.0151709
0.0153894
0.015581
0.0157388
0.0158596
0.0159405
0.0159951
0.0159352
0.0158172
0.0155728
0.0152478
0.0148004
0.0142701
0.0136796
0.0130636
0.0124303
0.0118162
0.0112476
0.0107658
0.0104016
0.0102154
0.0102583
0.0105947
0.0112724
0.0123166
0.0137278
0.0155526
0.015626
0.0173172
0.0204855
0.0222782
0.0242926
0.0255333
0.0261314
0.0263966
0.0263608
0.0262242
0.02561
0.0252509
0.0244495
0.0236182
0.0234068
0.0240628
0.0258449
0.0253861
0.028487
0.0290089
0.0322177
0.0324188
0.0346492
0.0336116
0.033311
0.0301687
0.0266212
0.0224319
0.0201856
0.0202035
0.0210771
0.0262431
0.0335043
0.0377304
0.0377155
0.0299632
0.0307795
0.0303184
0.0316324
0.03213
0.0350261
0.037143
0.0416607
0.0451478
0.0508312
0.0561782
0.0631548
0.0693887
0.0730202
0.0753357
0.0770306
0.0780991
0.0164157
0.0164097
0.0164371
0.0164843
0.0165593
0.0166512
0.0167642
0.016888
0.0170233
0.0171612
0.0173015
0.0174361
0.0175633
0.0176759
0.0177711
0.0178432
0.0178905
0.0179091
0.0178933
0.0178416
0.0177508
0.0176204
0.0174491
0.0172385
0.0169894
0.0167054
0.0163897
0.0160604
0.0155679
0.015089
0.014563
0.0140625
0.0135457
0.0130757
0.0126253
0.0122447
0.011926
0.0117174
0.0116261
0.0117013
0.0119654
0.0124658
0.0132231
0.0142581
0.0155672
0.0171392
0.0189972
0.0189292
0.0184364
0.0203952
0.0224519
0.0239229
0.0260081
0.0273754
0.0279914
0.0282542
0.0283619
0.0282468
0.0278261
0.0275132
0.0271079
0.0268351
0.0272491
0.0286766
0.0308334
0.0307703
0.0338548
0.0345521
0.0376534
0.0380387
0.0401289
0.0387582
0.037909
0.0338294
0.0297642
0.0255254
0.0236305
0.0231696
0.0244189
0.0290098
0.0327359
0.0350721
0.0335572
0.0306311
0.0321504
0.0322161
0.0338246
0.034921
0.0378831
0.0404927
0.0450397
0.0495478
0.0560858
0.0627205
0.0693352
0.0747065
0.0781277
0.0809556
0.0828151
0.0840065
0.0219642
0.0217618
0.0215761
0.0213994
0.0212381
0.0210783
0.0209241
0.020762
0.0205952
0.0204125
0.0202171
0.0200011
0.0197676
0.0195111
0.0192348
0.0189352
0.0186161
0.0182783
0.0179327
0.0175747
0.0172121
0.0168433
0.0164745
0.0161059
0.0157427
0.0153861
0.0150403
0.0147152
0.0143518
0.0140547
0.0137739
0.0135601
0.0133906
0.0133062
0.0132946
0.0133934
0.0136026
0.0139569
0.0144656
0.0151578
0.0160373
0.0171157
0.0183828
0.0198316
0.0214506
0.0232687
0.0230962
0.021081
0.0211814
0.0227996
0.0239299
0.0251866
0.0274888
0.0289666
0.0294505
0.0297574
0.0298468
0.0296924
0.0293346
0.0289294
0.0288515
0.0290079
0.030117
0.032126
0.0345878
0.0352148
0.0379907
0.0388992
0.0417746
0.042655
0.0442914
0.0429772
0.0411163
0.0364429
0.0318882
0.0280286
0.0265497
0.0262177
0.0276737
0.0309502
0.0329553
0.0352373
0.0340835
0.0336401
0.0347207
0.0353357
0.0366744
0.0382457
0.0409586
0.0440936
0.0486075
0.0537845
0.0603502
0.0674874
0.0747172
0.0803068
0.0839378
0.0869142
0.0889196
0.0902093
0.0235072
0.0230861
0.0226568
0.0222417
0.0218327
0.0214333
0.0210392
0.0206511
0.020268
0.0198899
0.0195178
0.0191511
0.0187921
0.01844
0.0180977
0.0177645
0.0174438
0.017135
0.0168415
0.0165642
0.0163074
0.0160726
0.0158654
0.0156882
0.0155475
0.0154477
0.015397
0.0154065
0.0154301
0.0155362
0.0156962
0.0159355
0.0162426
0.0166365
0.0171202
0.0177172
0.0184204
0.0192519
0.0202009
0.0212819
0.0224742
0.0237845
0.0251924
0.0267163
0.0283686
0.0279275
0.0248555
0.0235561
0.0236537
0.0247994
0.0251943
0.0263196
0.0286484
0.0300433
0.0303634
0.030661
0.0306033
0.0304848
0.0300302
0.0296609
0.0297553
0.0303055
0.0318339
0.0342304
0.0369784
0.0383386
0.0405618
0.0416109
0.0442235
0.0453913
0.0465791
0.0454418
0.042967
0.038484
0.0341574
0.0309379
0.0294895
0.0291054
0.0303195
0.0321993
0.0332387
0.0353657
0.0350004
0.03581
0.0368511
0.0378795
0.0392818
0.0413298
0.044242
0.047971
0.0528796
0.0587243
0.0658692
0.0732561
0.0804822
0.0860836
0.0900454
0.0930328
0.0952298
0.0965955
0.0214521
0.0211007
0.0207432
0.0204089
0.0200813
0.0197725
0.0194721
0.0191891
0.0189182
0.0186663
0.0184313
0.0182175
0.0180239
0.0178536
0.0177073
0.0175879
0.0174979
0.0174407
0.0174212
0.017444
0.0175162
0.0176443
0.0178378
0.0181059
0.0184614
0.0189172
0.0194913
0.0202012
0.0206408
0.021149
0.0216999
0.0223112
0.0229562
0.0236505
0.0244035
0.0252351
0.0261226
0.0270861
0.0281036
0.0291927
0.0303326
0.0315432
0.0328162
0.0341881
0.03285
0.0292719
0.0269307
0.0257483
0.0257143
0.026374
0.0262426
0.0272321
0.029431
0.030696
0.0308614
0.0311001
0.0308868
0.0307611
0.0301767
0.0298165
0.0300084
0.0308069
0.0325647
0.0351694
0.0381927
0.0401382
0.0418666
0.0430254
0.0454252
0.0468
0.0478786
0.0470121
0.0444237
0.040348
0.0364409
0.0337637
0.0323303
0.0318352
0.032382
0.0332618
0.0339652
0.0363993
0.0367992
0.0382461
0.0393426
0.0405857
0.0421547
0.0445096
0.0477931
0.0519339
0.0574648
0.0638429
0.0717084
0.0793206
0.0868534
0.0921458
0.096393
0.0992327
0.101679
0.103093
0.0199062
0.0197747
0.0196419
0.0195323
0.0194281
0.0193448
0.0192707
0.0192197
0.019185
0.0191793
0.0191992
0.0192553
0.0193448
0.0194754
0.019647
0.0198676
0.0201398
0.0204725
0.0208714
0.0213469
0.0219075
0.0225651
0.0233307
0.0242179
0.02524
0.0264113
0.027747
0.0292536
0.0298527
0.0304732
0.0311005
0.0317457
0.0323835
0.0330244
0.033695
0.0344074
0.0351417
0.035911
0.0367017
0.0375287
0.0383869
0.0392991
0.0402717
0.0368722
0.033725
0.0307526
0.0287744
0.0275186
0.0273416
0.0275573
0.0270999
0.0279319
0.0298712
0.0309598
0.0309558
0.0310873
0.0307423
0.030578
0.0298746
0.0295262
0.0297544
0.0306751
0.0324702
0.0351415
0.0383349
0.0406883
0.0421468
0.043453
0.0456328
0.0472763
0.0485012
0.0481282
0.045933
0.0425691
0.0392032
0.0367891
0.0350442
0.0341725
0.0340055
0.0341647
0.0347618
0.0374438
0.0385248
0.0404534
0.0418033
0.0432605
0.0451163
0.0478117
0.0516317
0.0562423
0.0625864
0.0694452
0.0781147
0.0856683
0.0935207
0.0984468
0.102958
0.105599
0.108287
0.109741
0.0206822
0.0207839
0.0208933
0.0210269
0.0211694
0.0213365
0.0215181
0.02173
0.0219668
0.0222446
0.0225611
0.0229314
0.0233536
0.0238377
0.0243815
0.0249956
0.0256811
0.0264483
0.0273001
0.0282469
0.0292925
0.0304449
0.0317099
0.0330913
0.0345909
0.0362058
0.0379305
0.0397441
0.0401637
0.0405703
0.0409653
0.0413582
0.0417338
0.0420946
0.0424741
0.0428747
0.0432825
0.0437034
0.0441348
0.0434448
0.0424472
0.040938
0.0392481
0.0368876
0.0345213
0.0319669
0.0301132
0.0288858
0.0284813
0.0283575
0.0276906
0.0284322
0.0299884
0.0308786
0.0306951
0.0307024
0.0302659
0.0300459
0.0292645
0.0289227
0.0291614
0.0301035
0.0318175
0.0344298
0.0376755
0.0403243
0.0418815
0.0433567
0.0453704
0.047444
0.0490417
0.0494327
0.0479231
0.0453254
0.0423469
0.039897
0.0376296
0.0362325
0.0353721
0.0350717
0.0357028
0.0386886
0.0403552
0.0427349
0.0444146
0.046087
0.0482457
0.0513435
0.0557586
0.0609448
0.0681472
0.0755108
0.0849219
0.0923907
0.100388
0.104978
0.109644
0.112162
0.115006
0.116514
0.0238709
0.0242046
0.024558
0.0249382
0.025332
0.0257527
0.0261916
0.026663
0.0271629
0.0277072
0.0282956
0.0289442
0.0296542
0.0304356
0.0312823
0.0321995
0.0331814
0.0342318
0.0353451
0.0365231
0.0377608
0.0390581
0.0404009
0.0417805
0.0431772
0.0445721
0.0459414
0.0472658
0.0473754
0.0471209
0.0461401
0.044364
0.0434719
0.0423917
0.0416354
0.0408695
0.0402272
0.0394738
0.0388747
0.0382198
0.0377269
0.0371145
0.0365233
0.0355482
0.0342085
0.0325813
0.0311472
0.0298532
0.0292327
0.0288346
0.0280502
0.0288188
0.0298657
0.0305098
0.0301183
0.0299921
0.0295005
0.0292279
0.0284112
0.0280814
0.0283277
0.0292363
0.0307969
0.0332498
0.0364358
0.0393586
0.0413177
0.0429586
0.0448724
0.0475116
0.0496518
0.0511118
0.0505474
0.0487641
0.0459093
0.0430278
0.0401105
0.0380844
0.0365703
0.0359377
0.0365945
0.0398317
0.0420611
0.0449361
0.0470838
0.0490501
0.0515428
0.0551647
0.0602398
0.0661649
0.0742288
0.0821439
0.0920932
0.0995063
0.107436
0.111729
0.116376
0.118838
0.121751
0.123327
0.0286389
0.0291859
0.0297619
0.0303642
0.0309797
0.0316175
0.032267
0.0329371
0.0336212
0.0343303
0.0350626
0.0358314
0.0366379
0.0374937
0.0383898
0.0393204
0.0402694
0.0412275
0.0421783
0.0431103
0.0440054
0.0448453
0.045605
0.0462634
0.0467942
0.0471765
0.0460294
0.0441994
0.043835
0.0411318
0.0406498
0.039028
0.0384368
0.0373579
0.0367183
0.0360275
0.0354521
0.0349225
0.0343453
0.0338505
0.033356
0.0329377
0.0325803
0.0323016
0.0321204
0.0318041
0.0311652
0.0303056
0.0297247
0.0291327
0.0283757
0.029092
0.029554
0.0298655
0.0292437
0.0289933
0.0284859
0.0282009
0.0274178
0.0271256
0.0273765
0.0282177
0.0295755
0.0317916
0.0348199
0.0379725
0.0405092
0.0423688
0.0442642
0.0475952
0.0504611
0.053298
0.0538776
0.0528068
0.0496825
0.0460172
0.0423968
0.0396902
0.0376653
0.0367379
0.0374123
0.0408376
0.0435782
0.0470393
0.0498157
0.0521624
0.0550354
0.0593108
0.0651267
0.0719509
0.0808751
0.0894148
0.0996944
0.10702
0.114663
0.11866
0.123099
0.125537
0.128436
0.13008
0.0335048
0.0341767
0.0348775
0.0355978
0.0363237
0.0370596
0.037792
0.0385223
0.0392378
0.0399395
0.0406185
0.0412791
0.0419189
0.0425463
0.0431616
0.0437579
0.0443121
0.0448036
0.0452068
0.0455009
0.0450477
0.0440941
0.0432656
0.0423669
0.0413857
0.0402409
0.0392726
0.0381797
0.0380422
0.0358502
0.0358002
0.0343865
0.0341881
0.0332981
0.03297
0.0325027
0.032065
0.0317893
0.0313301
0.0309557
0.0305535
0.0302429
0.029947
0.0297875
0.029726
0.0297546
0.0298583
0.0300501
0.0298858
0.0296169
0.0288641
0.0294107
0.0292742
0.029091
0.0281344
0.027714
0.0271987
0.0269285
0.0262071
0.0259617
0.0262378
0.027031
0.0282019
0.0301752
0.0329854
0.0362542
0.0392773
0.0414878
0.0436904
0.0475833
0.051478
0.0558737
0.0578396
0.0572717
0.0534513
0.0487836
0.044378
0.0410319
0.0386339
0.0374332
0.0380819
0.041595
0.0448199
0.0490014
0.0524956
0.05548
0.0588742
0.0638803
0.0705874
0.078432
0.0882377
0.0973454
0.107738
0.114878
0.122067
0.125722
0.129756
0.132136
0.134947
0.13665
0.0368336
0.0374722
0.0381268
0.0387873
0.0394401
0.0400876
0.0407155
0.0413211
0.041888
0.0424091
0.0428677
0.0432567
0.0435646
0.0437912
0.043936
0.044007
0.0433589
0.0419385
0.0402477
0.0386203
0.0371352
0.0359127
0.0349336
0.0341634
0.0334896
0.0328328
0.0323325
0.0319294
0.0320038
0.0304081
0.0307624
0.0295345
0.0297406
0.029072
0.0290799
0.028814
0.0285781
0.0284507
0.0281825
0.0280749
0.0279675
0.0279737
0.0279876
0.0280464
0.0280966
0.0282097
0.0285104
0.0289483
0.0294189
0.0298422
0.029422
0.0296608
0.0288492
0.0279764
0.0266584
0.0260973
0.0256343
0.0254787
0.0249537
0.024824
0.0251387
0.0258788
0.0268375
0.0285201
0.0309699
0.0341472
0.0373835
0.0402091
0.0432876
0.0472599
0.052666
0.0585401
0.0621424
0.0617387
0.0568432
0.0511784
0.0461127
0.0422642
0.0395553
0.0381215
0.0386768
0.0422119
0.0459639
0.0509236
0.0552495
0.059351
0.0634877
0.069227
0.0770669
0.0859669
0.0966828
0.106076
0.116201
0.122868
0.129453
0.132755
0.136226
0.138425
0.141068
0.142811
0.0375256
0.0379738
0.0384176
0.0388522
0.0392656
0.0396608
0.0400275
0.040362
0.0406483
0.0408803
0.0410405
0.0411157
0.0410867
0.0409417
0.0406699
0.0377851
0.0359844
0.0349058
0.0335765
0.031895
0.0301809
0.028661
0.0274099
0.0264909
0.0258641
0.02546
0.0253123
0.0254186
0.0258361
0.0252152
0.026104
0.0250468
0.0256183
0.0250763
0.0253651
0.0251345
0.0251511
0.0249714
0.0249367
0.0249708
0.0250602
0.0252043
0.0255019
0.0258345
0.0263297
0.0267938
0.0273326
0.0278348
0.0285964
0.0294839
0.030061
0.0302255
0.0291264
0.0273338
0.0252419
0.0242286
0.0237209
0.0236663
0.0233441
0.0232916
0.0236551
0.0244142
0.0252224
0.0267289
0.0288036
0.0318314
0.035096
0.0385716
0.0426296
0.0465954
0.0536477
0.0608992
0.0661512
0.0655958
0.0596075
0.0530392
0.0475033
0.0433688
0.0404266
0.0388132
0.0392061
0.0427108
0.0470498
0.05287
0.058456
0.0643205
0.0695719
0.0762618
0.0855939
0.0955313
0.106999
0.116039
0.125096
0.130594
0.136281
0.139395
0.142346
0.144187
0.14644
0.148167
0.0353968
0.0355752
0.0357317
0.0358688
0.0359775
0.036062
0.0361169
0.0361388
0.0361155
0.0360448
0.0359172
0.0357227
0.0354454
0.0350701
0.0345793
0.0339616
0.0324298
0.0296368
0.0280223
0.0264756
0.0245927
0.0226427
0.0210189
0.0197768
0.0190166
0.0186522
0.0185861
0.0174828
0.0179494
0.0184118
0.0188576
0.0193698
0.0199296
0.0205994
0.0212885
0.0217865
0.0221388
0.0220592
0.0223016
0.0223803
0.0226128
0.0227465
0.0231027
0.0234071
0.0239806
0.0246226
0.025493
0.0263772
0.0274002
0.0286024
0.0296235
0.030139
0.0282861
0.0255439
0.0230037
0.0217296
0.0212631
0.0214849
0.0216965
0.0219911
0.0223906
0.0233202
0.0238754
0.0252172
0.0266641
0.0293116
0.0323952
0.036146
0.0406818
0.0461361
0.0535621
0.0627023
0.0689704
0.0679799
0.0611849
0.0542125
0.0485456
0.044384
0.0413641
0.0396376
0.0398143
0.0431759
0.0478999
0.0546339
0.061922
0.0701909
0.0774876
0.0860824
0.0973699
0.108541
0.119938
0.127576
0.134373
0.138111
0.142391
0.145523
0.148248
0.149648
0.150973
0.152392
0.0310509
0.0309792
0.0308788
0.0307576
0.0306105
0.0304404
0.0302425
0.0300158
0.0297553
0.0294618
0.0291299
0.028758
0.0283372
0.0278602
0.0273128
0.0266808
0.0259471
0.0251021
0.0241463
0.0218627
0.0199679
0.0179865
0.0160835
0.0145496
0.0134768
0.0128492
0.0126079
0.0113171
0.0117067
0.0120792
0.0124331
0.0128593
0.0133125
0.0138741
0.014451
0.0150949
0.0157717
0.0165097
0.017294
0.0181525
0.0190879
0.0201283
0.0206326
0.0209353
0.021485
0.0221559
0.0231717
0.0243618
0.0259008
0.0277403
0.0296825
0.0324042
0.0320693
0.027928
0.0229437
0.0201021
0.0189295
0.0189785
0.0192448
0.0200104
0.0202415
0.0214603
0.0217339
0.0231823
0.024198
0.0268612
0.0298308
0.0335963
0.0378693
0.0452923
0.0528458
0.0637082
0.0705868
0.0688227
0.061602
0.0545902
0.0490234
0.0449188
0.0419393
0.0400669
0.0397874
0.0423755
0.0475244
0.0549686
0.0639348
0.0748164
0.085643
0.0966627
0.109304
0.12161
0.129054
0.133022
0.137075
0.141118
0.145053
0.148741
0.15202
0.153949
0.154688
0.155553
0.0254656
0.025231
0.0249697
0.0246923
0.0243967
0.0240832
0.0237492
0.023395
0.0230189
0.022622
0.0222022
0.0217597
0.0212915
0.0207958
0.0202667
0.0196976
0.0190764
0.0183897
0.0176216
0.0167626
0.0158199
0.0148044
0.0134783
0.0111373
0.00943123
0.00846308
0.00826006
0.00730569
0.00752603
0.00774859
0.00795017
0.00822021
0.00850521
0.00888143
0.00927043
0.00972511
0.0102082
0.0107531
0.0113339
0.011986
0.0127046
0.0135245
0.0144464
0.0155012
0.0166936
0.0180407
0.0195314
0.0209275
0.0225591
0.0244739
0.0262334
0.0277691
0.028783
0.0254614
0.0197709
0.017646
0.0171573
0.0173053
0.0177632
0.019229
0.0192854
0.0207564
0.0209029
0.0223476
0.0228709
0.0249311
0.026826
0.0301927
0.0341522
0.0405085
0.0501123
0.0582594
0.0646081
0.0631945
0.0580019
0.0523311
0.0478859
0.0444578
0.0417644
0.0398839
0.0393499
0.0417036
0.0464093
0.0532178
0.062735
0.0741058
0.0874874
0.0952921
0.0989342
0.102936
0.107319
0.112105
0.117307
0.122913
0.128865
0.135074
0.141341
0.147345
0.152581
0.156372
0.019624
0.0193296
0.0190159
0.018692
0.0183585
0.0180139
0.0176582
0.0172907
0.0169115
0.0165204
0.016117
0.0157015
0.0152732
0.0148323
0.0143779
0.0139094
0.0134244
0.012919
0.0123845
0.0118081
0.0111734
0.0104686
0.00969956
0.00887365
0.00735127
0.00587797
0.00546188
0.00512524
0.00517011
0.00523528
0.00529695
0.00541057
0.00553597
0.00572235
0.00591703
0.00616122
0.00642384
0.00673463
0.00706792
0.00745621
0.00788909
0.00839354
0.00898474
0.00968224
0.0104958
0.0114406
0.0125161
0.0137154
0.0150063
0.016342
0.0176414
0.0188365
0.0194469
0.0198792
0.0203855
0.0211831
0.0188641
0.0172732
0.0170912
0.0190856
0.0185988
0.0204971
0.0204268
0.0212728
0.0217455
0.0227809
0.0257278
0.0297909
0.0348479
0.0402152
0.0534664
0.056802
0.0565167
0.0564344
0.0552672
0.049067
0.0445174
0.0414807
0.0392293
0.0376136
0.0363602
0.0364191
0.0390693
0.0450336
0.0544757
0.0605341
0.0627888
0.0656886
0.0687374
0.0722294
0.0762277
0.0808178
0.086064
0.0921109
0.0990871
0.107189
0.116556
0.127251
0.138942
0.150368
0.0143736
0.0141079
0.0138312
0.0135488
0.0132639
0.0129731
0.0126787
0.0123784
0.0120738
0.0117636
0.0114486
0.011128
0.0108025
0.0104718
0.0101361
0.00979557
0.00945021
0.00909963
0.00874226
0.00837566
0.00799092
0.0075746
0.00711176
0.00660378
0.0060513
0.00493541
0.00384237
0.00403841
0.004052
0.00402221
0.00399664
0.00400933
0.00403107
0.0040881
0.0041506
0.00424152
0.00434073
0.00446699
0.0046018
0.00476537
0.0049493
0.00516994
0.00543379
0.00576082
0.00615685
0.00663613
0.00720079
0.00785603
0.00858483
0.00936568
0.0101539
0.010913
0.0112649
0.0114578
0.0115949
0.0118087
0.00946808
0.00959895
0.0147001
0.0206129
0.0225664
0.0255819
0.0264286
0.0280421
0.0290674
0.0290951
0.0308664
0.0292779
0.0287868
0.0289259
0.0316519
0.0334642
0.0330735
0.0328267
0.0326492
0.0324683
0.0322727
0.0320552
0.0315151
0.0301561
0.0290851
0.0296072
0.0308563
0.0313192
0.0317293
0.0322984
0.0333938
0.0350793
0.0368734
0.03899
0.0414666
0.0443941
0.0478316
0.051997
0.0571062
0.063607
0.0721155
0.0837675
0.100424
0.125293
0.0103884
0.010209
0.0100247
0.00983696
0.00965028
0.00946027
0.00927018
0.00907689
0.00888266
0.0086853
0.00848622
0.0082839
0.00807892
0.00787017
0.00765774
0.00744133
0.00722148
0.0069991
0.00677514
0.00655006
0.00632304
0.00609107
0.00583865
0.00553622
0.00515627
0.00451186
0.00270566
0.00298446
0.00347688
0.00345334
0.00339585
0.00338088
0.00335783
0.00336388
0.00336456
0.00338397
0.00340095
0.00342995
0.00345565
0.00349181
0.00353195
0.00358756
0.00365872
0.0037532
0.00387452
0.00403181
0.00422855
0.00446613
0.00474141
0.00504135
0.00534681
0.0056355
0.00576286
0.00579735
0.00576179
0.00573178
0.00578229
0.00628956
0.00861139
0.0109469
0.011477
0.0119757
0.0127212
0.013532
0.0141801
0.015059
0.0157902
0.016334
0.0168691
0.0167817
0.0153313
0.0156792
0.0154197
0.0147451
0.0143862
0.014075
0.0137924
0.0135798
0.01327
0.0130256
0.0127614
0.0127777
0.0129699
0.0130033
0.0128
0.0126727
0.0129072
0.0133885
0.0138619
0.0144561
0.0151923
0.0160889
0.0171315
0.0184127
0.0199876
0.0220596
0.0249074
0.0292281
0.0366542
0.0539218
0.00750327
0.00740215
0.00729575
0.0071851
0.00707324
0.00695679
0.00683852
0.00671521
0.00658937
0.00645799
0.00632319
0.00618222
0.00603664
0.00588397
0.00572537
0.00555892
0.00538516
0.0052018
0.00500839
0.00480315
0.00458756
0.00436148
0.00412224
0.00385867
0.00354929
0.00318454
0.00275576
0.000638847
0.000618577
0.000613309
0.00060668
0.000607355
0.000609427
0.000614659
0.000620254
0.000626339
0.000632402
0.000637487
0.000641075
0.000642444
0.000642445
0.000641142
0.000639418
0.000638095
0.000638136
0.000640099
0.000644171
0.000651009
0.000660482
0.000672939
0.000687139
0.000699375
0.000704796
0.000705106
0.000701668
0.000695766
0.000683671
0.000649544
0.000672563
0.000733417
0.000780283
0.000824324
0.000858453
0.000891225
0.000918738
0.000946408
0.000971183
0.00100787
0.00104763
0.00109388
0.00114319
0.00118107
0.0012133
0.00123602
0.00124348
0.00124204
0.00123294
0.00121667
0.00119516
0.00117003
0.00114483
0.00113423
0.001123
0.00110728
0.0010873
0.00106339
0.0010385
0.00101774
0.000999779
0.000984181
0.000969961
0.000956385
0.000941698
0.000924998
0.000904901
0.000880373
0.000850295
0.000813764
0.000769871
0.000717688
0.00037687
0.0196668
0.0223962
0.0224854
0.0224883
0.0224879
0.0224875
0.0224868
0.0224863
0.0224857
0.0224854
0.0224853
0.0224856
0.0224861
0.0224867
0.0224872
0.0224877
0.022488
0.0224884
0.0224886
0.000403018
0.0176242
0.0222159
0.0224616
0.0224721
0.0224721
0.0224717
0.0224711
0.0224706
0.0224701
0.02247
0.0224703
0.0224713
0.0224729
0.0224744
0.0224759
0.0224772
0.0224781
0.022479
0.0224795
0.000427815
0.0161198
0.0219891
0.0224322
0.0224558
0.0224567
0.0224563
0.0224559
0.0224556
0.0224552
0.0224553
0.022456
0.0224578
0.0224603
0.0224629
0.0224653
0.0224674
0.022469
0.0224703
0.0224711
0.000451209
0.0149563
0.0217302
0.0223967
0.0224394
0.0224417
0.0224415
0.0224412
0.0224409
0.0224407
0.022441
0.0224422
0.0224447
0.0224482
0.0224518
0.0224551
0.022458
0.0224602
0.022462
0.0224632
0.000473206
0.0140184
0.0214488
0.0223546
0.0224226
0.0224269
0.022427
0.0224268
0.0224266
0.0224265
0.022427
0.0224287
0.022432
0.0224364
0.0224412
0.0224454
0.022449
0.0224519
0.0224541
0.0224556
0.000493882
0.0132073
0.021148
0.0223057
0.0224051
0.0224121
0.0224126
0.0224125
0.0224125
0.0224126
0.0224134
0.0224156
0.0224196
0.0224251
0.0224308
0.022436
0.0224404
0.022444
0.0224466
0.0224484
0.000513241
0.0124531
0.0208272
0.0222496
0.0223866
0.0223974
0.0223983
0.0223985
0.0223987
0.022399
0.0224
0.0224028
0.0224076
0.022414
0.0224208
0.022427
0.0224322
0.0224364
0.0224396
0.0224416
0.000531391
0.0117425
0.0204879
0.0221863
0.022367
0.0223827
0.0223842
0.0223847
0.0223851
0.0223857
0.022387
0.0223902
0.0223959
0.0224034
0.0224112
0.0224183
0.0224243
0.0224292
0.0224329
0.0224352
0.000548352
0.0110854
0.0201344
0.0221158
0.0223461
0.022368
0.0223703
0.022371
0.0223717
0.0223725
0.0223743
0.022378
0.0223846
0.0223931
0.022402
0.0224101
0.0224169
0.0224224
0.0224266
0.0224292
0.000564239
0.0104897
0.0197712
0.0220382
0.0223241
0.0223532
0.0223565
0.0223577
0.0223586
0.0223597
0.0223618
0.0223662
0.0223737
0.0223832
0.0223932
0.0224022
0.0224099
0.0224161
0.0224207
0.0224236
0.000579059
0.00995635
0.0194033
0.0219539
0.0223006
0.0223385
0.022343
0.0223445
0.0223457
0.0223472
0.0223498
0.0223549
0.0223631
0.0223737
0.0223847
0.0223948
0.0224033
0.0224102
0.0224153
0.0224184
0.000592921
0.00948181
0.0190352
0.0218632
0.0222758
0.0223237
0.0223297
0.0223316
0.0223332
0.0223352
0.0223382
0.0223439
0.022353
0.0223646
0.0223768
0.0223878
0.0223972
0.0224047
0.0224103
0.0224138
0.000605813
0.00906095
0.0186707
0.0217668
0.0222496
0.022309
0.0223167
0.0223191
0.0223211
0.0223235
0.022327
0.0223334
0.0223434
0.0223561
0.0223693
0.0223813
0.0223916
0.0223998
0.0224059
0.0224097
0.00061784
0.00868767
0.0183128
0.0216653
0.022222
0.0222942
0.022304
0.022307
0.0223094
0.0223122
0.0223163
0.0223234
0.0223343
0.0223481
0.0223623
0.0223754
0.0223865
0.0223954
0.0224021
0.0224061
0.000628963
0.0083554
0.017964
0.0215594
0.0221931
0.0222796
0.0222917
0.0222953
0.0222982
0.0223015
0.0223062
0.022314
0.0223258
0.0223407
0.022356
0.0223701
0.0223822
0.0223917
0.0223989
0.0224032
0.000639216
0.00805459
0.0176262
0.02145
0.0221631
0.0222652
0.0222799
0.0222842
0.0222876
0.0222915
0.0222967
0.0223053
0.0223181
0.022334
0.0223505
0.0223656
0.0223785
0.0223888
0.0223965
0.022401
0.000648546
0.00778227
0.0173007
0.021338
0.0221321
0.0222511
0.0222687
0.0222737
0.0222777
0.0222822
0.022288
0.0222973
0.0223111
0.0223281
0.0223458
0.0223619
0.0223757
0.0223867
0.0223949
0.0223997
0.000656999
0.00753562
0.016989
0.0212244
0.0221004
0.0222374
0.0222582
0.022264
0.0222687
0.0222737
0.0222803
0.0222903
0.0223051
0.0223232
0.022342
0.0223592
0.0223739
0.0223856
0.0223943
0.0223994
0.000664443
0.00731241
0.0166921
0.0211103
0.0220683
0.0222245
0.0222486
0.0222553
0.0222607
0.0222664
0.0222736
0.0222845
0.0223002
0.0223195
0.0223394
0.0223577
0.0223733
0.0223856
0.0223949
0.0224003
0.000671117
0.00711073
0.0164115
0.020997
0.0220363
0.0222124
0.02224
0.0222479
0.022254
0.0222604
0.0222683
0.02228
0.0222967
0.0223171
0.0223381
0.0223575
0.0223739
0.022387
0.0223969
0.0224025
0.000676545
0.00692913
0.0161482
0.020886
0.0220048
0.0222016
0.0222329
0.0222421
0.0222489
0.0222559
0.0222645
0.022277
0.0222947
0.0223162
0.0223384
0.0223589
0.0223762
0.02239
0.0224004
0.0224064
0.000681125
0.00676656
0.015904
0.020779
0.0219745
0.0221925
0.0222276
0.0222383
0.0222458
0.0222533
0.0222626
0.0222759
0.0222946
0.0223172
0.0223406
0.022362
0.0223803
0.0223948
0.0224057
0.022412
0.000684659
0.00662211
0.0156802
0.0206781
0.0219459
0.0221855
0.0222248
0.022237
0.022245
0.0222531
0.022263
0.022277
0.0222967
0.0223204
0.0223448
0.0223674
0.0223865
0.0224017
0.0224132
0.0224198
0.000686667
0.00648861
0.015471
0.0205834
0.0219194
0.0221815
0.0222252
0.0222388
0.0222472
0.0222558
0.022266
0.0222807
0.0223013
0.0223261
0.0223516
0.0223752
0.0223952
0.0224111
0.0224231
0.02243
0.000689621
0.00634955
0.0152565
0.0204903
0.0218947
0.0221813
0.0222298
0.0222445
0.022253
0.0222617
0.0222723
0.0222875
0.0223088
0.0223346
0.0223612
0.0223858
0.0224067
0.0224232
0.0224357
0.022443
0.000696011
0.00620447
0.0150323
0.0201347