/*--------------------------------*- C++ -*----------------------------------*\
  =========                 |
  \\      /  F ield         | OpenFOAM: The Open Source CFD Toolbox
   \\    /   O peration     | Website:  https://openfoam.org
    \\  /    A nd           | Version:  7
     \\/     M anipulation  |
\*---------------------------------------------------------------------------*/
FoamFile
{
    version     2.0;
    format      ascii;
    class       volScalarField;
    location    "0.14";
    object      p;
}
// * * * * * * * * * * * * * * * * * * * * * * * * * * * * * * * * * * * * * //

dimensions      [1 -1 -2 0 0 0 0];

internalField   nonuniform List<scalar> 
48560
(
25764.5
25776
25785
25791.8
25796.9
25800.8
25803.7
25805.8
25807.5
25808.8
25809.8
25810.6
25811.3
25812
25812.7
25813.5
25814.4
25815.4
25816.6
25818
25819.8
25821.9
25824.5
25827.6
25831.4
25836.1
25841.3
25846.6
25854.5
25864.8
25877.3
25892.5
25910.3
25930.9
25955.4
25985.5
26021.4
26065
26116.6
26174
26238.8
26313.7
26396.3
26481.7
26579.2
26685.2
26813.3
26955.3
27061.4
27224.4
28083.1
32823.8
35724.9
38068.6
40291.4
42113.1
43912.4
45503.5
47053
48409.4
49614.3
50611.6
51050.3
51152.2
51271.8
51075.8
50941.6
50839.3
50678.6
50529.2
50340.7
50107.8
49796
49384.2
48813.8
48024.3
46893.8
45108.9
41889
37748.1
36622.4
37702.9
37702.9
37386
36736
36103.2
35863.4
35876.8
36106.4
36667.9
37400.3
38167.2
38907.5
39602.6
40226.1
40771
41225.8
41586.9
41838.3
41934.6
25803.8
25815.6
25824.3
25830.6
25834.9
25837.8
25839.6
25840.7
25841.4
25841.7
25841.8
25841.9
25841.9
25841.9
25842
25842.1
25842.3
25842.6
25843.2
25844
25845.1
25846.6
25848.4
25850.8
25853.7
25857.2
25861.3
25865.3
25871.4
25879.8
25890.6
25904.2
25921
25941.3
25965
25993
26027.7
26068.7
26114.5
26165.8
26226.9
26301.3
26383.3
26487.6
26612.3
26698.9
26734.5
26765.2
26881.9
27415.6
29242.5
32841.3
35375.8
37786.3
39874.9
41783
43544.3
45186.2
46729.5
48121.6
49346.1
50351.8
50840.4
51059.2
51141.9
50957.7
50876.2
50771.1
50609.1
50448.5
50231.5
49964.8
49604.6
49126.2
48464.1
47545.9
46183.9
44010.9
41067.6
38912.2
38347.2
38053.6
37762.6
37317.5
36932.7
36808.5
36809.9
36898.7
37175.1
37604.8
38127.8
38737.6
39360
39965.2
40514.7
40995.1
41381.2
41664.6
41838.3
41896.2
25845.9
25858.4
25867.4
25873.4
25877.2
25879.4
25880.4
25880.8
25880.9
25880.7
25880.3
25879.5
25878.4
25877
25875.5
25874
25872.6
25871.4
25870.7
25870.3
25870.3
25870.4
25870.8
25871.6
25873.1
25875.4
25878.4
25881.8
25887.5
25895.1
25905
25917.8
25933.2
25949.8
25968.1
25991.9
26024.3
26065.1
26109.1
26162.1
26233.2
26314.9
26390.1
26461.8
26533.7
26601.6
26682.5
26831.8
27203.8
28130.4
30069.1
32960.1
35403.6
37713.5
39760.1
41638.8
43395.1
45018.3
46562.1
47949.3
49173.7
50132.1
50632.2
50856.3
50884.4
50783.4
50740.9
50617.4
50475.9
50310.1
50098.2
49826.8
49458.3
48963.2
48277.6
47308
45851.1
43615.7
40872.7
39112.1
38604.3
38213
37794
37335.1
37004.7
36937
36949
37060.5
37343
37768.2
38299.3
38875.3
39465.9
40034.3
40563.8
41031.9
41412.8
41684.1
41839.9
41889.5
25894.9
25908.7
25917.9
25923.3
25926
25926.9
25927.1
25926.9
25926.2
25924.8
25922.6
25919.7
25916.4
25912.8
25909.3
25906.1
25903.4
25901.3
25899.9
25899.1
25898.7
25898.6
25898.6
25899
25899.6
25900.7
25902
25903.3
25905.3
25908.4
25914
25923.7
25937.5
25952.9
25971
25997.1
26034.1
26083.1
26131.9
26176.8
26219.8
26267
26322.5
26377.9
26432.5
26502.3
26631.1
26867.8
27415.3
28555.6
30501.4
33045.4
35300
37535.5
39494.7
41389.3
43110.9
44762.5
46290.2
47697.7
48909.4
49857.4
50377.6
50603.6
50616.5
50572.9
50540.6
50414
50288.7
50102.9
49878.1
49572.5
49170.7
48624
47871.2
46797.1
45218.2
43068
40916.4
39588.2
38930.9
38407
37960.9
37634.5
37506
37494.2
37524.1
37652.3
37909.7
38275.9
38735.7
39248.7
39779.2
40293.7
40764.2
41168.9
41489.5
41714.4
41845.5
41888
25943.7
25958.8
25968.4
25973.9
25976.5
25977.3
25977.4
25977.2
25976.3
25974.6
25972.2
25969
25965.2
25960.9
25956.3
25951.5
25946.5
25941.6
25936.8
25932.3
25928.4
25925
25922.2
25920.1
25918.5
25917.5
25917
25916.9
25917.4
25920.1
25926.8
25939.1
25958
25980.6
26003.8
26028.1
26052.3
26077.2
26107.9
26142.5
26183
26223.5
26265
26311.9
26375.1
26479.1
26658.5
27018.5
27721.3
28956.7
30808.7
33106.9
35259.1
37386
39316.3
41171.6
42884.5
44523.7
46049.5
47449.7
48645.4
49562.5
50087.3
50314.7
50341
50331.2
50301.5
50199.2
50085.8
49903.5
49681.2
49366.7
48952.9
48378.5
47584.5
46444.3
44823.2
42802
40994.1
39881.2
39160.1
38560
38122.9
37854.6
37782.3
37781.4
37824.3
37961.6
38216.2
38570.9
39001.4
39471
39957.5
40431.8
40872.8
41249.7
41539.7
41734.7
41847.6
41885
25994.6
26013.1
26025.2
26032.3
26035.8
26037.1
26037.3
26037.1
26035.9
26033.6
26030
26025
26018.7
26011.4
26003.1
25994.1
25984.6
25975.1
25966.2
25958.5
25952.6
25948.9
25947.1
25946.8
25947.4
25949.7
25953.3
25956.3
25959.3
25963.8
25968.3
25974.1
25981
25991.4
26006.5
26025
26044.9
26064.9
26087.3
26114.9
26143.8
26175.7
26214.6
26269.4
26354.2
26488.6
26735.6
27193.1
27993
29255.2
31003.2
33126.1
35187.3
37213.6
39098
40923.9
42618.1
44254.6
45770.4
47168.7
48346.1
49247.9
49774.8
50015.6
50064.8
50064.5
50036.7
49955.9
49843.4
49662
49431
49100.2
48662.5
48048.9
47201.3
46003.2
44410.2
42629.4
41128.9
40109.8
39353.5
38755.6
38375.2
38195.5
38159.8
38161.9
38212.3
38348.6
38583.5
38906
39297.5
39727.6
40173.3
40603.2
40994.7
41326.1
41579.3
41748.9
41848
41881.5
26052.5
26074.5
26088.8
26096.4
26099.6
26100.3
26100.2
26099
26096.2
26092
26086.3
26079.6
26072.2
26064.7
26057.4
26050.6
26044.1
26037.4
26030.7
26024.2
26017.9
26011.8
26006
26000.4
25995.3
25991
25988.4
25987.8
25987.8
25989.2
25991.6
25996.3
26002
26009.6
26018.3
26028.7
26040.6
26054.8
26071.3
26091
26115.1
26147.4
26193
26259.8
26363.3
26542.2
26855
27387.6
28238.8
29486
31132.1
33126.8
35100.6
37042.5
38886.4
40674.3
42355.5
43978.2
45488.1
46873
48033.2
48917.3
49449.9
49709.7
49785.6
49790.3
49770.7
49708.7
49601.4
49428.1
49194.1
48856.4
48401
47759.4
46875.2
45655.8
44128.6
42547.8
41246.8
40283.7
39525.6
38958.3
38627.2
38495.2
38472.8
38478.3
38533.4
38665.9
38886.8
39185.5
39545.3
39940.6
40346.9
40739.6
41095
41389.9
41612.1
41760.2
41848
41878.3
26113.4
26142.8
26164
26178
26186.4
26190.8
26192.7
26193.1
26192.9
26191.8
26189.4
26185.2
26179.1
26171
26160.9
26149.2
26136.5
26124
26111.7
26099.7
26088.2
26077.2
26066.8
26057.2
26048.4
26040.7
26034.5
26030.4
26027.2
26025.9
26025.2
26025.3
26025.6
26027.1
26029.6
26034.2
26040.7
26050.7
26063.8
26081.6
26105.7
26140.5
26191.9
26273.8
26408
26631.6
26998.4
27579.9
28449.9
29659.3
31212.5
33107.7
34993.4
36857
38658.3
40409.9
42075.7
43684.9
45186.2
46557.6
47702.1
48575.6
49117
49398.6
49497.5
49509
49496.6
49446.6
49344.1
49176.4
48937.4
48590.8
48115
47445.9
46534.4
45326.5
43908.9
42518.7
41354.6
40435.1
39706.1
39189.5
38908.9
38808.2
38791.4
38798.6
38852.8
38977.8
39181.4
39455.2
39783.1
40142.9
40511.7
40865
41182
41443.6
41639.1
41769.5
41847.7
41875.1
26206.3
26248.4
26280.9
26304.5
26320.4
26330.3
26335.8
26338.2
26338.9
26338.9
26338.2
26336
26332
26325.7
26317
26305.8
26292
26276
26258.1
26238.5
26217.8
26196.5
26175.1
26153.9
26133.6
26114.4
26097.5
26084.4
26072.1
26062.6
26055.5
26051.2
26048.8
26048
26047.9
26048.5
26050.8
26056.3
26066.2
26082.7
26108.8
26150
26215
26319
26484.8
26747.6
27154.5
27763.9
28630.1
29791.9
31260.3
33067.2
34869
36662.1
38418.6
40135.1
41783.8
43377.6
44868.8
46224.1
47355
48222
48777.2
49083.6
49206.3
49227.4
49221.4
49181.3
49086.1
48925
48684.2
48332.3
47841.2
47154.8
46235.1
45065.4
43761.1
42515.9
41452.3
40579.4
39893.8
39425
39179.9
39095.1
39081.6
39090.1
39142.4
39259.6
39447.1
39698.3
39997.4
40324.9
40658.4
40976.4
41258.5
41489.8
41662
41777.1
41847.1
41872.1
26328.8
26390.8
26442
26482.1
26511.6
26531.8
26544.3
26551
26553.8
26554.4
26554.3
26552.6
26548.5
26541.1
26530
26514.9
26495.6
26472.4
26445.5
26415.6
26383.2
26349.1
26313.9
26278.6
26243.7
26210
26179.1
26153.9
26129.7
26109.2
26093.6
26082.5
26075.4
26071.4
26069.8
26069.7
26070.6
26074.3
26083.4
26101
26132
26182.8
26263.9
26390.7
26585.8
26880.5
27315.5
27936.3
28785.5
29895.9
31285.9
33007.4
34727.1
36453.5
38163.4
39845.8
41475.4
43053.5
44532.7
45871.8
46991.1
47856
48428.1
48761.6
48910.1
48943.8
48942.4
48910.4
48823.2
48668
48426.7
48070
47566.9
46871.4
45961.1
44851.8
43662.7
42534.4
41550.6
40729.4
40092.9
39667.8
39448.9
39373
39360.4
39368.7
39416.9
39524.7
39695.3
39923.9
40194.9
40491
40790.8
41075.1
41325.5
41529.9
41681.7
41783.6
41846.4
41869.3
26466.4
26552.8
26628
26690.1
26738.4
26773.8
26797.4
26811.6
26818.7
26821.1
26821.3
26820.5
26816.9
26809
26795.9
26776.8
26751.3
26719.7
26682.2
26639.7
26592.9
26542.7
26490.3
26436.8
26383.4
26331.2
26282.2
26241.3
26202
26168.3
26141.9
26122.4
26109.1
26101
26097.2
26096.2
26096.7
26100.3
26110.6
26131.8
26169.9
26232.6
26331.2
26480.6
26702.2
27022.9
27476.1
28097.4
28922.4
29980.6
31296.6
32932.5
34570.3
36231
37892.4
39540.8
41149.6
42711.4
44176.9
45500
46609.6
47475.9
48068.1
48431.5
48609.5
48660
48661.6
48637.3
48559.4
48410.9
48171.8
47813.5
47305.2
46612.1
45727.3
44687.8
43603.2
42571.5
41656.9
40889
40298.9
39907.9
39705.6
39633.8
39621.1
39628.5
39672.1
39769.7
39924
40130.8
40375.1
40641.5
40909.8
41162.9
41384.4
41564.9
41698.8
41789.3
41845.7
41866.7
26604.4
26717.6
26820.6
26909.7
26982.8
27039.6
27080.5
27107.4
27122.8
27129.9
27131.9
27131.8
27129.7
27123.3
27110.3
27089.2
27059.4
27020.4
26972
26915.3
26852
26783.8
26711.1
26635.7
26559.3
26483.6
26411.6
26350
26290.7
26239.5
26198.5
26167.7
26146.2
26132.8
26126.1
26124.1
26124.4
26128.4
26140.7
26166.8
26213.8
26290.2
26407.7
26580.2
26826.4
27168.4
27633.2
28249.2
29046.5
30053.2
31298.6
32846.2
34400.5
35993.9
37604.1
39217.5
40803.9
42349
43799.8
45107.5
46209.2
47079.4
47693.7
48090
48301.6
48373
48379.7
48362.5
48294.4
48153.6
47919.3
47562.9
47056.4
46376.7
45530.5
44565.9
43576
42626.2
41775.6
41060.2
40511.2
40145.9
39953.1
39881.4
39867.3
39873.1
39911
39997.8
40135.6
40321
40539.7
40777.8
41016.5
41240.9
41436.6
41595.8
41714
41794.4
41845.1
41864.4
26726.2
26864.1
26995
27113.7
27217
27302.6
27369.4
27418
27449.9
27468.2
27476.4
27478.5
27478.4
27475
27464.9
27445.3
27414.4
27370.8
27313.8
27244.6
27165.3
27077.3
26981.1
26879.4
26774.8
26670.1
26569.4
26482.3
26398.9
26326.6
26268.2
26223.5
26191.7
26170.9
26159.8
26156
26155.9
26159.7
26173.4
26203.9
26259.6
26349.9
26485.8
26680.1
26949.3
27311.3
27785.4
28394
29163
30119.7
31296.8
32752.8
34220.4
35742.6
37297.9
38873.9
40436.4
41964.5
43400.2
44693.5
45788.6
46664.2
47301.8
47733.7
47984.2
48082.5
48097.7
48087.3
48029.8
47898.8
47672.6
47323.1
46826.7
46170.8
45372.5
44482.3
43573.9
42698.1
41908.6
41242.2
40727.7
40379.8
40190.1
40115.2
40098.2
40102
40133.7
40209.2
40330.8
40495.2
40689.6
40900.9
41112.3
41310.5
41482.9
41623.2
41727.6
41799
41844.7
41862.4
26829.1
26986.8
27141.8
27288.9
27423.9
27543.3
27644.1
27724.5
27784
27823.9
27847
27857.4
27860
27859.5
27853.9
27839
27811.6
27768.9
27709.6
27633.2
27540
27431.1
27308.9
27176.9
27039.2
26900.3
26766.3
26650.1
26535.3
26433.5
26349.2
26283.4
26235.7
26204.1
26187.1
26180.9
26180.4
26183.9
26198.4
26232.6
26296.3
26400.5
26556.8
26776.9
27071
27450.1
27930.1
28533.1
29276.7
30185.5
31293.9
32655.8
34032.6
35477.4
36972.2
38507
40043.7
41554.7
42975.3
44255.3
45345.4
46227.4
46888.9
47358
47653.1
47786.7
47816.7
47812.7
47766.7
47648.2
47434
47097.2
46618.9
45995.7
45250.7
44432.3
43595.2
42787.7
42056.3
41434.3
40947.8
40610.3
40418.3
40336.4
40314.5
40316
40341
40404.9
40510.4
40654.5
40825.7
41012.1
41198.3
41372.6
41524.3
41647.7
41739.8
41803.4
41844.5
41860.6
26914.7
27086.1
27259.2
27429.2
27592.2
27744.7
27882.5
28002
28100.1
28175.2
28227.2
28258.5
28273.1
28277.1
28276.6
28269.9
28251.2
28215.9
28160.3
28081.7
27979.1
27853
27705.8
27541.7
27366.4
27186.2
27009.4
26852.3
26697.4
26560.2
26446.5
26357
26291.8
26246.9
26221.2
26210.6
26209.2
26211.9
26226
26261.5
26329.4
26441.4
26609.6
26846.3
27162.5
27567.8
28069.1
28670.3
29391
30256.1
31294.4
32560.5
33842.4
35202
36628.5
38115.9
39624.5
41118.8
42526.2
43794.7
44880.7
45768.4
46452.3
46958.7
47303.1
47483.1
47538.8
47539.8
47506.4
47404.3
47206.6
46888.9
46436.4
45852.4
45163
44412.2
43640.4
42895.4
42217.7
41635.4
41171
40838.4
40639.6
40546.2
40516.5
40515.5
40533.6
40585.6
40675.2
40799.8
40949.1
41112.2
41275.3
41428.1
41561.2
41669.7
41751
41807.5
41844.4
41859.2
26988.2
27168
27352.5
27537.7
27720.8
27899.2
28069
28226.3
28366.6
28485.7
28580.5
28649.4
28693.2
28715.5
28722.5
28722.6
28715.8
28694.5
28652
28582.7
28482.4
28349
28183.2
27988.8
27772.5
27543.2
27312.6
27102.3
26894.8
26711.9
26560.8
26441.8
26355.3
26294.5
26257.4
26238.6
26234.4
26237.2
26251.3
26288
26359.2
26477.7
26655.7
26905.2
27236.4
27657.6
28174.7
28790.2
29505.6
30331.7
31302.8
32471.3
33652.7
34916
36263.1
37694.2
39170.5
40647.9
42042.6
43301.3
44386.5
45281.4
45988
46531.7
46929.3
47166.4
47262
47272.7
47252.4
47170.1
46993.6
46701.7
46281.4
45741.5
45107.4
44416.6
43706.8
43020.5
42391.9
41844.8
41397.9
41065.5
40855.1
40746.2
40705.3
40700.1
40711.4
40751.7
40825.8
40931.8
41060.6
41202.4
41344.5
41477.9
41594.3
41689.5
41761.3
41811.4
41844.7
41858.1
27054.3
27238.6
27429.4
27623.2
27818
28012.6
28206
28393.5
28570
28732.7
28876.6
28996.9
29089.6
29153.1
29188.9
29202.7
29204.1
29199.2
29177.7
29129.4
29045.6
28919.2
28746.3
28527.4
28268.9
27982.1
27684
27404.7
27130
26889.1
26691.5
26534.6
26421
26340.8
26292.4
26266.2
26256.6
26259.4
26274.6
26309.8
26381.6
26503.7
26689.1
26949.6
27294.9
27731.2
28262.1
28887.2
29605.2
30415.5
31325.3
32397.7
33477
34635.5
35889.4
37250.5
38687.4
40149.5
41539.1
42791.7
43876.7
44775.7
45499.9
46075.8
46525
46827.4
46980.9
47015.6
47008.7
46948.8
46798.8
46538.5
46155.8
45662.4
45082.3
44446.3
43793.1
43160.6
42576.5
42060.8
41628.4
41293.1
41066.6
40938.3
40882.2
40869.6
40874.5
40903.6
40962.6
41050.9
41160.6
41282.8
41406.2
41522.4
41624
41707.4
41770.7
41815.3
41845.1
41857.4
27115.7
27302.7
27497
27695.2
27895.8
28099.5
28306.7
28512.5
28712.4
28905.6
29089.2
29258.2
29406.7
29528.6
29619
29676
29702.6
29708.3
29706.3
29687.2
29635.5
29537
29379.1
29153.9
28860.8
28511.1
28128.7
27759.1
27399
27084.1
26831.4
26629.5
26485.5
26383.1
26322.1
26289.8
26278.6
26279.2
26291
26324.2
26395.5
26518.9
26708.9
26977.1
27333.8
27784.3
28330.1
28967.5
29689.7
30487.4
31357.1
32341.1
33310.2
34346
35486.5
36759.6
38146.2
39590.9
40974.2
42221.8
43314.5
44223.8
44970.8
45582.8
46086
46460.9
46691.1
46775.9
46779.2
46743.4
46626.2
46402.1
46061.2
45615.1
45084.9
44501.4
43900.7
43317
42772.9
42285.1
41864.5
41524
41277.7
41125.2
41048.8
41024.1
41023.4
41041.6
41086.1
41157.7
41250.1
41354.6
41461.1
41562
41650.5
41723.5
41779.3
41818.9
41845.8
41856.9
27173.1
27362.1
27558.9
27760.2
27964.7
28173.1
28385.1
28598.1
28809.5
29018.8
29225.4
29426.8
29619.2
29797.3
29954.3
30082.2
30174.2
30227.1
30245.9
30246.6
30233.6
30181.3
30064.4
29858.7
29547.5
29133.5
28648.1
28165.1
27704
27294.4
26979.4
26724.9
26546.8
26419.3
26343.4
26302.8
26289.8
26289.3
26297.6
26329
26399.2
26522.9
26715
26988.2
27353.8
27816.5
28376.9
29029.3
29762.6
30559
31401
32314
33193.8
34114
35123.9
36278.7
37589.5
39014.9
40416.7
41670.4
42768.7
43683.7
44440
45072.1
45612.2
46051.8
46372.7
46540.9
46572.8
46560.7
46479.2
46295.9
45999.2
45599.4
45114
44577.3
44022.3
43481.1
42972.1
42509.2
42099.7
41754.3
41488.8
41308.4
41207.1
41165.8
41157.7
41166.6
41198.1
41254.5
41331
41419.7
41511.3
41598.5
41675.5
41738.9
41787.7
41822.6
41846.6
41856.8
27226.9
27417.7
27617
27821.1
28029.1
28240.6
28454.7
28670.5
28887.3
29104.6
29322
29539
29754.2
29965.5
30168.8
30358.1
30524
30655.3
30741.7
30781
30786.5
30778.2
30722.4
30577.3
30298.5
29852.2
29251.8
28610.1
28036.3
27508.1
27120.9
26812.4
26600.7
26449.1
26359.7
26311.4
26294.8
26293
26299.2
26328.2
26396.3
26518.8
26711.9
26988.3
27358.2
27828.6
28399.5
29064.7
29809.5
30609.8
31435.3
32284.3
33053.8
33828.3
34685.7
35700.4
36914.8
38306.9
39714.1
40974.4
42098.1
43033.2
43814.7
44490.1
45083.6
45605.7
46031.3
46310.1
46407.4
46411.4
46366.5
46228.3
45974.5
45616.4
45175.5
44683.3
44172
43669
43191
42750.4
42352.2
42004
41708.8
41493.1
41359.2
41296
41277.2
41278.9
41299.6
41343.1
41405.7
41480.5
41559.3
41634.7
41701.3
41755.8
41797.5
41827.4
41848.4
41857.5
27276.1
27469
27670.6
27877.1
28087.8
28301.6
28518
28736.1
28955.5
29175.8
29396.8
29618
29839.2
30060
30279.6
30496.6
30708.4
30909.3
31089.3
31232.7
31322.5
31353.2
31352.9
31303.7
31115.2
30684.4
29933.1
29047.5
28356.3
27717.2
27261.4
26906.1
26660.8
26485.7
26382.6
26325.2
26303.5
26299.4
26303.6
26330
26394.6
26513.5
26703.9
26980.1
27351.8
27825.7
28403.3
29078.5
29835.8
30648.9
31480.7
32324.3
33068.3
33761.1
34478
35319.5
36363.6
37654.6
39120.6
40431.1
41550.4
42500.7
43286.9
43964.2
44567
45119.1
45617.9
46031.7
46246.3
46293.8
46281.6
46186.3
45970.5
45650.9
45244.9
44790.3
44311.1
43838.5
43386.7
42964.6
42574
42217.7
41918.5
41673.8
41502.4
41411.4
41380.2
41377.3
41389.1
41421.5
41472.8
41536.7
41605.4
41671.5
41729.5
41776.2
41811.1
41835.9
41853.3
41860.9
27320.5
27515.6
27719.5
27928.1
28140.7
28356.3
28574.7
28794.9
29016.8
29239.9
29464.1
29688.9
29914.7
30141.2
30369
30598.1
30828.6
31059.4
31288
31507.2
31699.1
31832.1
31882.1
31882
31803.2
31493.5
30721.4
29484.5
28690.5
27927
27378.4
26980.2
26698.5
26510.2
26391.9
26327.1
26299.4
26292.9
26294
26312.3
26368.3
26478
26662.1
26936
27307.5
27784.3
28368.3
29052.2
29820.5
30645.1
31482.7
32300.1
32972.3
33529.9
33990.4
34510.8
35344.3
36623.1
38133.4
39484.7
40630.7
41646.5
42467.3
43195.7
43867
44516.9
45171.5
45767.7
46148.2
46286
46294.9
46236.3
46069.9
45785.9
45418.2
44991.6
44539.6
44087.6
43650
43239.4
42863.7
42525.8
42193.9
41889.3
41650.8
41512.9
41461.8
41454.3
41460.2
41484.7
41527.9
41584
41646.1
41706.3
41759.2
41800.9
41830.9
41851
41864.8
41870.6
27359
27556.2
27762
27972
28186.3
28403.7
28624.2
28847
29072
29298.5
29526.4
29755.5
29985.3
30215
30443.5
30669.8
30893.8
31116.6
31340.2
31566.8
31797.2
32026.5
32235.5
32375.8
32405.5
32343.9
31717.5
29782.6
28867.4
28067.2
27445.6
27040.3
26729.7
26537.5
26408.2
26345.8
26318.7
26315.1
26316.3
26333.2
26382.5
26490.6
26679.4
26948.5
27312.4
27787
28370.8
29056.9
29827.7
30656.3
31501.6
32350.2
33063.2
33620.3
34062.4
34536.6
35243.2
36284.5
37600.4
39095.7
40319.7
41318
42136.4
42857.5
43499.7
44118.5
44741.6
45379.2
45967.4
46243.6
46277.6
46242.6
46083.4
45822.3
45468
45059.5
44625.2
44195.3
43785.7
43397.9
43030.3
42665.3
42338.7
42044.7
41786.4
41608.5
41527.6
41511.6
41512.8
41530.5
41567.5
41618.5
41676.5
41734
41785.3
41826.3
41855.5
41873.2
41884.6
41889.1
27391.1
27591
27799.3
28011.3
28227.4
28446.2
28668.2
28891.7
29117.5
29344.4
29573.6
29803.5
30034.2
30263.2
30490.7
30717
30945.5
31176.7
31411.8
31652.6
31904.4
32174.6
32449.6
32677.9
32761.7
32743.4
32318.3
30135.1
29089.2
28229.7
27543.7
27108.2
26772.5
26562.2
26418.1
26343.7
26309.1
26302.5
26303.4
26318.3
26362.9
26454.3
26611.8
26862.7
27221.7
27686.6
28262.4
28943
29710.2
30537.9
31379.1
32228.9
32976.5
33593.3
33967.7
34052
34042.4
34062.9
35555.9
37715.9
39125.5
40213.2
41078.7
41857.4
42554.4
43243.3
44051.7
44958.7
45959.4
46437.1
46521.7
46508.4
46377.9
46103
45749.2
45361
44938.3
44522.4
44123.3
43730.7
43377.9
43046.5
42717.2
42389.6
42037.2
41729.2
41571.7
41529.3
41527.7
41549.8
41589.4
41636.7
41689.8
41744.8
41795
41838.1
41871.7
41895.3
41908.2
41911.4
42056.9
42058.2
42057.1
42057.7
42057.5
42057.6
42057.7
42057.8
42058
42058.1
42058.2
42058.2
42058.3
42058.3
42058.4
42058.4
42058.5
42058.5
42058.5
42058.5
42055.9
42057.8
42056.7
42057.3
42057.2
42057.4
42057.6
42057.8
42058
42058.2
42058.4
42058.5
42058.7
42058.8
42058.9
42058.9
42059
42059
42059.1
42059.1
42055.6
42056.8
42055.8
42056.5
42056.5
42056.9
42057.3
42057.8
42058.2
42058.6
42059
42059.2
42059.5
42059.7
42059.9
42060.1
42060.2
42060.3
42060.4
42060.4
42055.3
42055.9
42055
42055.7
42055.9
42056.4
42057
42057.7
42058.4
42059
42059.5
42059.9
42060.3
42060.7
42061
42061.2
42061.4
42061.6
42061.7
42061.8
42054.5
42054.7
42053.9
42054.7
42055.1
42055.9
42056.7
42057.7
42058.6
42059.4
42060.1
42060.8
42061.3
42061.9
42062.3
42062.7
42063
42063.2
42063.4
42063.5
42053.1
42053.2
42052.5
42053.4
42054
42055.1
42056.3
42057.6
42058.8
42059.9
42060.9
42061.9
42062.7
42063.4
42064.1
42064.6
42065
42065.4
42065.6
42065.8
42051.1
42051.2
42050.6
42051.7
42052.8
42054.2
42055.8
42057.5
42059.1
42060.6
42062
42063.2
42064.3
42065.3
42066.2
42067
42067.6
42068
42068.3
42068.6
42048.4
42048.7
42048.4
42049.8
42051.2
42053.2
42055.3
42057.5
42059.5
42061.4
42063.2
42064.8
42066.3
42067.6
42068.8
42069.8
42070.6
42071.2
42071.6
42071.9
42045
42045.6
42045.7
42047.4
42049.4
42052
42054.6
42057.4
42060
42062.4
42064.7
42066.7
42068.6
42070.3
42071.8
42073
42074.1
42074.8
42075.3
42075.6
42041.1
42041.9
42042.5
42044.8
42047.4
42050.6
42054
42057.4
42060.6
42063.6
42066.4
42068.9
42071.3
42073.4
42075.2
42076.8
42078
42078.9
42079.5
42079.9
42036.4
42037.7
42038.8
42041.7
42045
42049
42053.2
42057.4
42061.3
42064.9
42068.3
42071.5
42074.3
42076.9
42079.1
42081
42082.4
42083.6
42084.3
42084.7
42031.1
42032.8
42034.5
42038.2
42042.4
42047.4
42052.5
42057.5
42062.1
42066.5
42070.5
42074.3
42077.7
42080.8
42083.4
42085.6
42087.4
42088.7
42089.5
42090
42025
42027.2
42029.6
42034.3
42039.5
42045.6
42051.7
42057.7
42063.1
42068.3
42073.1
42077.5
42081.6
42085.1
42088.2
42090.8
42092.9
42094.4
42095.4
42095.9
42018.1
42020.9
42024.1
42029.9
42036.4
42043.6
42051
42058
42064.3
42070.4
42076
42081.2
42085.9
42090
42093.6
42096.6
42099
42100.7
42101.8
42102.4
42010.2
42013.6
42017.9
42025.1
42032.9
42041.7
42050.3
42058.4
42065.8
42072.8
42079.3
42085.3
42090.7
42095.5
42099.5
42103
42105.7
42107.7
42108.9
42109.6
42001
42005.4
42010.9
42019.8
42029.3
42039.7
42049.8
42059
42067.6
42075.7
42083.2
42090
42096.1
42101.5
42106.2
42110
42113.1
42115.3
42116.7
42117.5
41990.2
41996.1
42003.1
42014
42025.4
42037.7
42049.4
42059.9
42069.7
42079
42087.6
42095.3
42102.3
42108.3
42113.6
42117.9
42121.3
42123.8
42125.3
42126.2
41976.9
41985.5
41994.2
42007.8
42021.3
42035.8
42049.2
42061.1
42072.4
42083
42092.6
42101.4
42109.1
42116
42121.8
42126.6
42130.4
42133.2
42134.8
42135.8
41961.2
41973.3
41984.1
42001.1
42017.1
42034.1
42049.3
42062.8
42075.7
42087.6
42098.4
42108.2
42116.9
42124.5
42131
42136.3
42140.5
42143.5
42145.4
42146.4
41942.6
41959.5
41972.7
41994.1
42012.8
42032.7
42049.7
42065.1
42079.7
42093.1
42105.2
42116.1
42125.8
42134.1
42141.2
42147.1
42151.6
42155
42157
42158.1
41919.8
41943.9
41959.7
41986.8
42008.5
42031.7
42050.5
42068.1
42084.5
42099.5
42113
42125.1
42135.7
42144.9
42152.7
42159.1
42164
42167.6
42169.8
42171
41890
41926.5
41945.1
41979.6
42004.4
42031.2
42052
42072.1
42090.5
42107.1
42122.1
42135.4
42147.1
42157.1
42165.5
42172.4
42177.8
42181.7
42184
42185.2
41849.4
41907.4
41928.5
41972.9
42000.7
42031.2
42054.5
42077.2
42097.7
42116.2
42132.6
42147.2
42159.9
42170.7
42179.8
42187.3
42193
42197.2
42199.6
42200.9
41794.7
41887.4
41910
41967.2
41997.5
42032
42058.1
42083.8
42106.5
42126.8
42144.8
42160.6
42174.3
42186
42195.8
42203.7
42209.9
42214.3
42216.8
42218.2
41727.3
41868.9
41890.2
41963.1
41995.1
42034
42063.4
42092.2
42117.1
42139.4
42158.9
42176
42190.7
42203.2
42213.6
42222
42228.5
42233.1
42235.7
42237.2
41667.3
41852.8
41871.2
41960.7
41993.8
42037.9
42070.7
42102.6
42129.8
42154
42175
42193.3
42209
42222.2
42233.2
42242.1
42248.9
42253.7
42256.4
42257.9
41629
41839.3
41856.2
41959.9
41993.7
42044.3
42080.2
42115.5
42144.8
42170.9
42193.4
42212.8
42229.4
42243.4
42254.9
42264.1
42271.2
42276.3
42278.9
42280.5
41608.9
41829.5
41848
41960.1
41995.6
42053.6
42092.6
42131.1
42162.5
42190.4
42214.2
42234.7
42252
42266.6
42278.6
42288.2
42295.4
42300.7
42303.3
42305
41600.8
41825.1
41845.1
41962.4
42001.1
42066.3
42108.5
42149.9
42183.1
42212.6
42237.6
42258.9
42277
42292.1
42304.4
42314.3
42321.7
42327
42329.7
42331.4
41599.8
41824.7
41845.4
41969.1
42011.9
42083
42127.9
42172.1
42207
42237.9
42263.8
42285.9
42304.4
42319.9
42332.5
42342.5
42350
42355.4
42358.1
42359.7
41602.4
41827.5
41851.1
41982.9
42029.1
42104.7
42151.5
42198.1
42234.3
42266.4
42292.9
42315.5
42334.4
42350.1
42362.8
42372.9
42380.5
42385.8
42388.5
42390.1
41618.4
41840.8
41867.5
42005.7
42053.9
42132.3
42179.9
42228.2
42265.2
42298.1
42325.1
42348
42367
42382.8
42395.5
42405.5
42413
42418.3
42420.9
42422.4
41656.6
41870.8
41898.8
42038.8
42087
42166.3
42213.7
42262.9
42300
42333.2
42360.3
42383.3
42402.2
42417.8
42430.4
42440.3
42447.7
42452.7
42455.2
42456.7
41718.1
41919.2
41945.8
42082.6
42128.9
42207.2
42253.3
42302.4
42338.9
42371.9
42398.6
42421.3
42439.9
42455.3
42467.6
42477.2
42484.3
42489.2
42491.5
42492.8
41798.1
41983.8
42007.5
42136.7
42179.9
42255.2
42298.8
42346.9
42382.1
42414.2
42440
42462
42480.1
42494.9
42506.7
42516
42522.7
42527.4
42529.4
42530.7
41891.5
42061
42081.1
42200.1
42239.2
42309.8
42350.3
42396.2
42429.3
42460
42484.6
42505.5
42522.7
42536.7
42547.9
42556.6
42562.9
42567.2
42569
42570.1
41994.8
42147.4
42164
42271.5
42306.1
42370.5
42407.3
42450
42480.6
42509.2
42532
42551.6
42567.5
42580.5
42590.9
42598.9
42604.7
42608.6
42610.1
42611
42104.5
42240.4
42254
42349.4
42379.2
42436.6
42469.2
42508
42535.5
42561.5
42582.2
42600
42614.4
42626.2
42635.6
42642.8
42647.9
42651.3
42652.4
42653.1
42219.2
42338.5
42349.3
42432.5
42457.5
42507.1
42535.4
42569.5
42593.5
42616.6
42634.8
42650.5
42663.2
42673.6
42681.8
42688
42692.4
42695.2
42695.9
42696.4
42337.8
42440.5
42448.5
42519.3
42539.7
42581.2
42605.1
42634
42654.3
42674
42689.4
42702.8
42713.6
42722.3
42729.2
42734.3
42737.9
42740.1
42740.4
42740.6
42459.6
42545.5
42550.6
42609.2
42624.9
42658.2
42677.4
42700.9
42717.2
42733.2
42745.7
42756.5
42765.2
42772.1
42777.5
42781.5
42784.2
42785.7
42785.5
42785.5
42584.2
42653.1
42655.2
42701.4
42712.1
42737.4
42751.8
42769.6
42781.8
42793.9
42803.2
42811.3
42817.7
42822.8
42826.6
42829.3
42831
42831.8
42831.2
42830.9
42711.1
42762.5
42761
42795.5
42800.8
42818.1
42827.5
42839.5
42847.5
42855.5
42861.6
42866.8
42870.8
42873.9
42876.1
42877.5
42878.1
42878.2
42877
42876.6
42839.7
42873.4
42867.8
42890.9
42890.1
42899.7
42904
42910.1
42913.8
42917.6
42920.3
42922.6
42924.1
42925.1
42925.6
42925.7
42925.3
42924.5
42922.8
42922.2
42969.6
42985.1
42974.9
42987.2
42979.6
42981.8
42980.6
42981
42980.2
42979.9
42979.1
42978.4
42977.4
42976.3
42975
42973.6
42972.1
42970.6
42968.4
42967.5
43100
43097.8
43082.3
43083.6
43068.7
43064.5
43056.5
43051.9
43046.1
43041.8
43037.4
43033.7
43030.1
43026.8
43023.8
43021
43018.3
43016.1
43013.4
43012.4
43230.8
43210.8
43189.3
43179.9
43157.1
43146.9
43131.8
43121.9
43111.2
43102.9
43095
43088.2
43082
43076.6
43071.8
43067.6
43063.9
43060.9
43057.7
43056.5
43363
43322.3
43295.1
43275.5
43244.6
43227.8
43205.9
43190.8
43175.3
43162.9
43151.4
43141.6
43132.9
43125.4
43118.8
43113.2
43108.4
43104.7
43101
43099.7
43495.1
43432.9
43400.6
43368.4
43331
43306.7
43278.6
43258.1
43237.9
43221.5
43206.5
43193.8
43182.6
43172.9
43164.7
43157.7
43151.8
43147.3
43143.2
43141.7
43628.4
43542.2
43504.7
43458.7
43415.4
43383.3
43349.4
43323.6
43298.8
43278.5
43260.1
43244.5
43230.8
43219.1
43209.1
43200.8
43193.9
43188.7
43184.2
43182.5
43760.3
43649.8
43606.5
43546.3
43497.6
43457.3
43418.1
43387
43357.8
43333.7
43312
43293.5
43277.4
43263.7
43252.1
43242.4
43234.5
43228.6
43223.6
43221.9
43890
43753.7
43705.6
43630.8
43577
43528.5
43484.3
43448
43414.7
43386.8
43361.9
43340.7
43322.2
43306.6
43293.3
43282.4
43273.5
43266.9
43261.6
43259.7
44011.6
43854
43800.6
43711.9
43653.2
43596.7
43547.9
43506.6
43469.3
43437.8
43409.8
43386
43365.3
43347.7
43332.8
43320.6
43310.8
43303.5
43297.8
43295.9
44106.2
43947.3
43888.2
43788.5
43725.4
43661.6
43608.5
43562.5
43521.5
43486.5
43455.6
43429.2
43406.4
43387
43370.6
43357.2
43346.4
43338.5
43332.3
43330.3
44176.2
44029.3
43965.5
43859.5
43792.7
43722.6
43665.9
43615.4
43571
43532.9
43499.3
43470.5
43445.5
43424.4
43406.5
43392
43380.2
43371.7
43365.1
43363
44229.9
44098.5
44031.9
43923.7
43854.1
43779.2
43719.4
43665.1
43617.8
43576.7
43540.6
43509.5
43482.7
43459.9
43440.6
43424.9
43412.3
43403.1
43396.2
43394
44272.2
44155.8
44088
43980.6
43909.2
43830.9
43768.8
43711.2
43661.4
43617.7
43579.4
43546.3
43517.7
43493.3
43472.8
43456
43442.5
43432.8
43425.5
43423.1
44305.7
44202.6
44134.8
44029.9
43957.6
43877.3
43813.6
43753.5
43701.7
43655.8
43615.6
43580.7
43550.4
43524.7
43502.9
43485.1
43470.9
43460.5
43452.9
43450.3
44332.4
44240.5
44173.4
44072
43999.5
43918.5
43853.8
43791.7
43738.5
43690.7
43648.9
43612.4
43580.8
43553.8
43531
43512.2
43497.2
43486.3
43478.3
43475.6
44352.2
44270.4
44204.4
44107.1
44035
43954.2
43889.1
43825.8
43771.5
43722.4
43679.3
43641.5
43608.8
43580.6
43556.8
43537.2
43521.5
43510.1
43501.8
43498.9
44368.1
44293.8
44229.1
44135.9
44064.6
43984.7
43919.6
43855.8
43800.9
43750.7
43706.7
43667.9
43634.1
43605
43580.3
43559.9
43543.7
43531.8
43523.3
43520.2
44380.3
44311.7
44248.2
44158.7
44088.9
44010.2
43945.5
43881.7
43826.5
43775.7
43731
43691.5
43656.9
43626.9
43601.4
43580.5
43563.7
43551.5
43542.8
43539.6
44389.2
44324.8
44262.2
44176.4
44107.9
44031
43967.1
43903.5
43848.4
43797.3
43752.3
43712.2
43676.9
43646.3
43620.2
43598.8
43581.6
43569.1
43560.2
43556.8
44395.1
44333.8
44271.7
44189.7
44122.1
44047.3
43984.4
43921.5
43866.7
43815.6
43770.6
43730
43694.2
43663.1
43636.6
43614.8
43597.3
43584.5
43575.6
43572
44398.5
44338.9
44277.5
44198.5
44132.2
44059.5
43997.7
43935.8
43881.5
43830.7
43785.7
43744.9
43708.8
43677.4
43650.7
43628.6
43610.9
43597.8
43588.8
43585.1
44399.5
44340.6
44280.1
44203.5
44138.6
44067.9
44007.3
43946.5
43893
43842.6
43797.7
43756.9
43720.7
43689.2
43662.3
43640.1
43622.2
43609
43600
43596.1
44398.9
44340.4
44280.5
44205.4
44141.9
44072.9
44013.5
43954
43901.3
43851.5
43806.9
43766.1
43730.1
43698.6
43671.6
43649.3
43631.3
43618.1
43609
43605.1
44394.2
44336.5
44278.7
44205.3
44142.6
44075
44016.9
43958.5
43906.6
43857.5
43813.2
43772.7
43736.9
43705.5
43678.6
43656.2
43638.3
43625