/*--------------------------------*- C++ -*----------------------------------*\
  =========                 |
  \\      /  F ield         | OpenFOAM: The Open Source CFD Toolbox
   \\    /   O peration     | Website:  https://openfoam.org
    \\  /    A nd           | Version:  7
     \\/     M anipulation  |
\*---------------------------------------------------------------------------*/
FoamFile
{
    version     2.0;
    format      ascii;
    class       volVectorField;
    location    "0.14";
    object      U;
}
// * * * * * * * * * * * * * * * * * * * * * * * * * * * * * * * * * * * * * //

dimensions      [0 1 -1 0 0 0 0];

internalField   nonuniform List<vector> 
48560
(
(221.948 -5.36775 -4.90672e-11)
(221.756 -6.19694 -5.89208e-11)
(221.586 -7.02834 -7.81867e-11)
(221.439 -7.84036 -1.00123e-10)
(221.306 -8.63326 -1.3121e-10)
(221.187 -9.40122 -1.65898e-10)
(221.075 -10.147 -2.09112e-10)
(220.969 -10.8665 -2.55717e-10)
(220.867 -11.5639 -3.09344e-10)
(220.767 -12.2366 -3.65518e-10)
(220.668 -12.8902 -4.26032e-10)
(220.567 -13.5232 -4.87277e-10)
(220.464 -14.1407 -5.49539e-10)
(220.357 -14.7411 -6.0986e-10)
(220.245 -15.3283 -6.66269e-10)
(220.125 -15.9005 -7.17054e-10)
(219.997 -16.4603 -7.58879e-10)
(219.858 -17.0061 -7.89867e-10)
(219.705 -17.5399 -8.06793e-10)
(219.536 -18.0609 -8.07786e-10)
(219.348 -18.5705 -7.89956e-10)
(219.135 -19.0684 -7.51128e-10)
(218.896 -19.555 -6.89687e-10)
(218.623 -20.0296 -6.02821e-10)
(218.314 -20.4915 -4.92902e-10)
(217.96 -20.9396 -3.5676e-10)
(217.56 -21.3724 -1.98035e-10)
(217.042 -21.8648 1.70296e-11)
(216.288 -22.4137 3.11532e-10)
(215.395 -22.9119 5.96083e-10)
(214.308 -23.3846 8.82251e-10)
(212.965 -23.8067 1.15997e-09)
(211.283 -24.1916 1.37829e-09)
(209.083 -24.5151 1.53878e-09)
(206.059 -24.7615 1.44291e-09)
(202.493 -24.8963 1.19455e-09)
(198.255 -24.8756 5.65361e-10)
(193.604 -24.746 -1.40097e-10)
(188.79 -24.4531 -1.378e-09)
(184.857 -24.0504 -2.54075e-09)
(180.813 -23.2555 -4.16573e-09)
(176.736 -22.6198 -4.55062e-09)
(172.879 -21.4531 -5.91383e-09)
(169.15 -20.0219 -6.40528e-09)
(165.806 -18.713 -7.0278e-09)
(165.084 -16.097 -9.50545e-09)
(171.771 -12.2477 -1.25238e-08)
(191.39 -6.88461 -1.71188e-08)
(221.31 -4.08045 -2.21831e-08)
(250.056 -7.78876 -2.61622e-08)
(271.686 -31.4681 -2.9262e-08)
(263.864 -74.1574 -3.08639e-08)
(229.269 -57.6505 -2.97283e-08)
(214.681 -60.7851 -2.98145e-08)
(195.662 -51.6236 -2.92089e-08)
(183.878 -51.0943 -2.92483e-08)
(165.481 -43.5363 -2.86457e-08)
(153.75 -41.3576 -2.86602e-08)
(133.696 -34.3428 -2.80027e-08)
(121.444 -31.2415 -2.80408e-08)
(99.3227 -24.1236 -2.73118e-08)
(85.6832 -20.417 -2.73074e-08)
(66.0754 -11.0082 -2.64247e-08)
(66.3463 -8.54311 -2.67591e-08)
(55.7814 -5.57967 -2.62874e-08)
(52.6453 1.12769 -2.60735e-08)
(56.5747 2.2247 -2.63176e-08)
(58.8229 4.44236 -2.65352e-08)
(60.5567 6.50869 -2.67408e-08)
(63.5757 8.64362 -2.70251e-08)
(67.9237 11.4707 -2.74348e-08)
(73.4448 14.9745 -2.78836e-08)
(80.3088 19.2409 -2.83871e-08)
(88.7299 24.4694 -2.89279e-08)
(98.9291 30.8338 -2.95109e-08)
(111.36 38.4929 -3.0121e-08)
(127.427 48.2366 -3.07967e-08)
(149.439 61.6848 -3.15081e-08)
(182.285 78.9864 -3.22214e-08)
(220.441 84.7197 -3.28701e-08)
(259.689 66.4919 -3.37738e-08)
(254.786 60.4473 -3.40214e-08)
(246.368 53.3836 -3.4387e-08)
(251.803 56.0634 -3.43961e-08)
(256.211 56.6906 -3.46407e-08)
(267.566 53.7093 -3.53864e-08)
(271.759 43.0845 -3.55564e-08)
(275.782 36.6796 -3.59244e-08)
(275.79 26.9355 -3.60921e-08)
(275.43 19.8337 -3.63773e-08)
(273.263 14.3847 -3.64779e-08)
(270.017 8.44321 -3.66552e-08)
(266.521 3.74695 -3.68042e-08)
(263.136 -0.00116539 -3.69444e-08)
(260.008 -3.04811 -3.7051e-08)
(257.305 -5.51271 -3.71563e-08)
(255.074 -7.47895 -3.72362e-08)
(253.411 -8.90356 -3.72996e-08)
(252.353 -9.71777 -3.73454e-08)
(252.112 -9.95824 -3.73691e-08)
(221.193 -5.08792 -5.89753e-10)
(221.01 -5.94575 -6.17998e-10)
(220.842 -6.80031 -6.46891e-10)
(220.707 -7.64512 -6.73454e-10)
(220.579 -8.4626 -6.99072e-10)
(220.468 -9.26021 -7.18628e-10)
(220.357 -10.0283 -7.35806e-10)
(220.252 -10.7749 -7.4308e-10)
(220.141 -11.4973 -7.45666e-10)
(220.028 -12.2043 -7.3455e-10)
(219.909 -12.8958 -7.18493e-10)
(219.784 -13.573 -6.87775e-10)
(219.647 -14.235 -6.47557e-10)
(219.499 -14.8798 -5.90227e-10)
(219.336 -15.507 -5.19784e-10)
(219.155 -16.114 -4.31267e-10)
(218.954 -16.7021 -3.28181e-10)
(218.729 -17.2693 -2.08709e-10)
(218.478 -17.8191 -7.68124e-11)
(218.199 -18.3515 6.6113e-11)
(217.884 -18.8697 2.2227e-10)
(217.53 -19.3712 3.85975e-10)
(217.128 -19.8552 5.59957e-10)
(216.672 -20.3192 7.355e-10)
(216.148 -20.7628 9.17469e-10)
(215.539 -21.1841 1.09062e-09)
(214.827 -21.5814 1.25753e-09)
(213.849 -22.0214 1.41488e-09)
(212.235 -22.4904 1.51301e-09)
(210.28 -22.9014 1.40492e-09)
(208.02 -23.2593 1.20329e-09)
(205.369 -23.5389 6.85024e-10)
(202.472 -23.7666 1.11494e-10)
(199.347 -23.9087 -9.01417e-10)
(196.473 -23.9689 -1.93643e-09)
(193.657 -23.8485 -3.34169e-09)
(191.147 -23.7678 -3.79546e-09)
(188.658 -23.5226 -5.0738e-09)
(186.654 -23.2635 -5.89845e-09)
(184.847 -22.7268 -6.77053e-09)
(183.408 -22.2537 -7.20726e-09)
(183.043 -21.7386 -8.15517e-09)
(184.918 -20.8173 -1.09417e-08)
(190.628 -20.8876 -1.25648e-08)
(204.549 -21.4822 -1.69172e-08)
(229.836 -22.8103 -2.20614e-08)
(255.638 -23.8669 -2.63489e-08)
(277.807 -24.7593 -2.96256e-08)
(288.944 -26.5142 -3.09999e-08)
(295.841 -34.6626 -3.23927e-08)
(287.449 -53.5423 -3.27537e-08)
(275.131 -72.074 -3.32453e-08)
(246.997 -67.1274 -3.26842e-08)
(235.294 -67.3322 -3.26009e-08)
(216.33 -61.472 -3.22357e-08)
(206.916 -58.394 -3.2099e-08)
(189.502 -52.6491 -3.17869e-08)
(179.974 -48.589 -3.15819e-08)
(162.665 -42.4782 -3.12963e-08)
(152.775 -37.7518 -3.10357e-08)
(136.166 -31.2762 -3.0778e-08)
(125.728 -26.056 -3.03933e-08)
(113.384 -16.8047 -3.00701e-08)
(111.847 -12.2643 -2.98504e-08)
(107.958 -6.68254 -2.98556e-08)
(105.468 1.30449 -2.93713e-08)
(111.121 3.49158 -2.98202e-08)
(113.938 8.65579 -2.99013e-08)
(116.835 11.7532 -3.01489e-08)
(121.023 15.5199 -3.03243e-08)
(124.798 18.9556 -3.06281e-08)
(130.436 23.1842 -3.0875e-08)
(135.909 27.5026 -3.12289e-08)
(143.594 32.9526 -3.15405e-08)
(151.846 39.1091 -3.19464e-08)
(163.024 46.951 -3.23264e-08)
(176.868 56.9038 -3.28056e-08)
(197.309 71.479 -3.32759e-08)
(221.301 90.2733 -3.38528e-08)
(241.908 94.6582 -3.44574e-08)
(258.387 73.9818 -3.50284e-08)
(263.721 63.9366 -3.5506e-08)
(266.057 61.5186 -3.57045e-08)
(270.263 62.6656 -3.61606e-08)
(272.857 63.466 -3.59424e-08)
(275.839 59.6065 -3.69402e-08)
(277.533 51.0351 -3.65122e-08)
(279.534 43.4011 -3.72384e-08)
(278.851 33.3397 -3.68523e-08)
(278.004 24.7954 -3.75716e-08)
(274.971 16.7012 -3.71517e-08)
(272.278 10.845 -3.76948e-08)
(268.296 5.71674 -3.73666e-08)
(265.214 1.9854 -3.77597e-08)
(261.551 -1.19583 -3.74899e-08)
(258.961 -3.59794 -3.7763e-08)
(256.277 -5.6709 -3.75493e-08)
(254.712 -7.14225 -3.77095e-08)
(253.724 -7.74748 -3.76007e-08)
(253.359 -7.93816 -3.7623e-08)
(219.989 -4.79958 -1.82289e-10)
(219.794 -5.71128 -1.57169e-10)
(219.578 -6.62102 -1.04053e-10)
(219.426 -7.52536 -6.28309e-11)
(219.248 -8.39301 3.83097e-12)
(219.109 -9.24212 6.16828e-11)
(218.939 -10.0544 1.41735e-10)
(218.79 -10.8541 2.16494e-10)
(218.606 -11.6305 3.09292e-10)
(218.425 -12.396 3.98996e-10)
(218.209 -13.1355 5.04653e-10)
(217.983 -13.8554 6.10619e-10)
(217.719 -14.5413 7.26581e-10)
(217.431 -15.1989 8.41093e-10)
(217.095 -15.819 9.56822e-10)
(216.715 -16.4094 1.06482e-09)
(216.264 -16.9672 1.16014e-09)
(215.734 -17.502 1.23307e-09)
(215.088 -18.0149 1.2662e-09)
(214.398 -18.5117 1.28293e-09)
(213.612 -18.9919 1.2525e-09)
(212.771 -19.4574 1.18921e-09)
(211.835 -19.9046 1.06276e-09)
(210.831 -20.3305 9.20451e-10)
(209.731 -20.7366 6.7656e-10)
(208.561 -21.1166 4.14087e-10)
(207.318 -21.4732 2.74909e-11)
(205.834 -21.8559 -4.54955e-10)
(203.895 -22.2597 -1.3213e-09)
(202.31 -22.6013 -2.15647e-09)
(200.522 -22.8638 -3.27226e-09)
(199.026 -23.0901 -3.59853e-09)
(197.416 -23.2614 -4.62369e-09)
(196.139 -23.3987 -5.19815e-09)
(194.947 -23.4174 -5.95193e-09)
(193.89 -23.3378 -6.42734e-09)
(193.275 -23.1709 -7.12879e-09)
(193.118 -22.9855 -8.07651e-09)
(194.532 -22.8286 -1.00619e-08)
(197.556 -23.0408 -1.12227e-08)
(204.157 -23.6031 -1.37614e-08)
(215.886 -24.703 -1.69596e-08)
(233.747 -26.1254 -2.12582e-08)
(253.358 -27.6656 -2.46789e-08)
(273.413 -28.0493 -2.86303e-08)
(287.786 -27.118 -3.03365e-08)
(299.473 -26.4189 -3.21803e-08)
(305.308 -27.0857 -3.26753e-08)
(307.594 -31.1717 -3.32159e-08)
(303.599 -41.4127 -3.32817e-08)
(292.418 -57.7442 -3.32461e-08)
(276.518 -68.0654 -3.30853e-08)
(256.592 -61.9599 -3.29082e-08)
(244.507 -65.3499 -3.2654e-08)
(227.863 -57.5582 -3.24959e-08)
(217.675 -57.0995 -3.22075e-08)
(202.677 -49.8137 -3.20866e-08)
(192.626 -47.5255 -3.17753e-08)
(178.162 -40.712 -3.16923e-08)
(168.183 -37.2399 -3.13594e-08)
(155.111 -30.7833 -3.131e-08)
(145.973 -26.3742 -3.09583e-08)
(137.71 -18.2056 -3.09178e-08)
(136.059 -13.8375 -3.06464e-08)
(135.387 -5.9047 -3.07409e-08)
(132.908 0.995015 -3.04458e-08)
(138.64 4.57928 -3.07967e-08)
(139.529 10.9696 -3.07386e-08)
(143.233 14.6249 -3.10258e-08)
(145.455 19.6312 -3.10694e-08)
(149.132 23.9291 -3.13803e-08)
(152.45 28.994 -3.15088e-08)
(156.904 34.1491 -3.18512e-08)
(162.028 40.1001 -3.20631e-08)
(168.646 46.7089 -3.24539e-08)
(177.393 54.5429 -3.27601e-08)
(189.893 64.2627 -3.32303e-08)
(208.61 76.2672 -3.36607e-08)
(232.075 84.8543 -3.42148e-08)
(250.996 79.659 -3.46681e-08)
(260.317 67.7104 -3.50182e-08)
(265.186 63.5585 -3.52871e-08)
(267.593 61.0896 -3.55835e-08)
(272.031 59.6339 -3.61035e-08)
(274.946 55.1727 -3.59268e-08)
(277.793 48.568 -3.6752e-08)
(278.733 41.1951 -3.62562e-08)
(280.056 33.9935 -3.69672e-08)
(278.899 26.4906 -3.65771e-08)
(277.593 20.1403 -3.71006e-08)
(274.456 14.266 -3.68303e-08)
(271.703 9.30767 -3.71956e-08)
(267.975 5.10045 -3.69808e-08)
(264.962 1.73823 -3.72377e-08)
(261.557 -1.00204 -3.70585e-08)
(258.988 -3.0732 -3.72321e-08)
(256.461 -4.57348 -3.70824e-08)
(254.881 -5.47512 -3.71854e-08)
(253.926 -5.77581 -3.71103e-08)
(253.57 -5.88516 -3.71226e-08)
(216.944 -4.51608 6.05801e-10)
(216.669 -5.45258 6.62412e-10)
(216.272 -6.37379 6.72637e-10)
(216.013 -7.293 7.05721e-10)
(215.633 -8.16741 7.03826e-10)
(215.344 -9.02761 7.07409e-10)
(214.93 -9.84963 6.85244e-10)
(214.57 -10.6653 6.52561e-10)
(214.094 -11.4558 5.996e-10)
(213.659 -12.2357 5.21296e-10)
(213.125 -12.9854 4.23695e-10)
(212.619 -13.7173 2.87799e-10)
(212.029 -14.4179 1.30087e-10)
(211.455 -15.0984 -7.60302e-11)
(210.812 -15.7499 -3.07834e-10)
(210.181 -16.3814 -5.93614e-10)
(209.506 -16.9859 -9.0542e-10)
(208.86 -17.5686 -1.26658e-09)
(208.224 -18.1218 -1.63992e-09)
(207.585 -18.6475 -2.07174e-09)
(206.953 -19.1412 -2.52601e-09)
(206.34 -19.6068 -3.03163e-09)
(205.714 -20.0195 -3.16397e-09)
(205.104 -20.4334 -3.64145e-09)
(204.494 -20.8072 -3.87694e-09)
(203.911 -21.1732 -4.33776e-09)
(203.344 -21.5008 -4.63927e-09)
(202.739 -21.8597 -5.14672e-09)
(202.045 -22.2178 -5.6539e-09)
(201.515 -22.5038 -6.11782e-09)
(200.993 -22.6711 -6.40296e-09)
(200.72 -22.7675 -6.94286e-09)
(200.622 -22.8607 -7.70062e-09)
(201.336 -23.065 -9.16554e-09)
(202.72 -23.2559 -9.89126e-09)
(205.363 -23.7415 -1.14592e-08)
(209.958 -24.507 -1.31915e-08)
(217.063 -25.7166 -1.55844e-08)
(229.131 -27.4875 -1.87419e-08)
(242.037 -29.3752 -2.15388e-08)
(258.048 -31.3144 -2.50943e-08)
(272.303 -32.602 -2.75561e-08)
(285.721 -33.232 -2.99956e-08)
(296.953 -33.4717 -3.14375e-08)
(305.756 -33.101 -3.28282e-08)
(311.081 -32.9129 -3.30325e-08)
(314.26 -33.5222 -3.36204e-08)
(315.309 -35.9811 -3.34176e-08)
(312.889 -41.2705 -3.35973e-08)
(306.176 -50.7481 -3.32314e-08)
(294.206 -61.8916 -3.31138e-08)
(279.336 -67.2207 -3.2597e-08)
(262.275 -65.1722 -3.28103e-08)
(249.867 -65.1664 -3.22634e-08)
(235.469 -59.8278 -3.24095e-08)
(224.749 -57.4533 -3.19126e-08)
(211.732 -51.4211 -3.20319e-08)
(201.411 -47.8927 -3.15924e-08)
(189.023 -41.7755 -3.17071e-08)
(179.179 -37.4837 -3.12987e-08)
(168.46 -31.2252 -3.14024e-08)
(160.276 -25.9414 -3.10498e-08)
(154.009 -18.3002 -3.11593e-08)
(152.301 -12.9599 -3.08686e-08)
(152.213 -5.0376 -3.10199e-08)
(150.306 0.596221 -3.08243e-08)
(154.922 5.91014 -3.10604e-08)
(154.343 11.8018 -3.09803e-08)
(158.262 16.0943 -3.12376e-08)
(158.94 21.0267 -3.12461e-08)
(162.825 25.4656 -3.15291e-08)
(164.794 30.3338 -3.16215e-08)
(169.395 35.4427 -3.19365e-08)
(173.53 41.0822 -3.21159e-08)
(180.515 47.6158 -3.24794e-08)
(189.03 55.3924 -3.27575e-08)
(202.267 65.3123 -3.31939e-08)
(219.259 76.2533 -3.35778e-08)
(237.754 81.7575 -3.40772e-08)
(252.198 74.5075 -3.44193e-08)
(260.429 66.6996 -3.46215e-08)
(265.766 64.3272 -3.48225e-08)
(269.16 61.9006 -3.53328e-08)
(272.983 59.8103 -3.54104e-08)
(274.784 54.6562 -3.56417e-08)
(276.836 47.8173 -3.59797e-08)
(277.628 41.2826 -3.58964e-08)
(278.355 34.4167 -3.62115e-08)
(277.297 27.511 -3.6126e-08)
(275.953 21.1935 -3.63751e-08)
(273.187 15.3352 -3.62462e-08)
(270.511 10.5055 -3.64982e-08)
(267.077 6.3556 -3.63576e-08)
(264.133 3.06835 -3.65319e-08)
(260.949 0.376962 -3.64069e-08)
(258.489 -1.65744 -3.65247e-08)
(256.192 -3.03843 -3.64157e-08)
(254.762 -3.7422 -3.64809e-08)
(253.938 -3.9057 -3.64211e-08)
(253.624 -3.94779 -3.64359e-08)
(212.16 -3.91964 -2.46619e-09)
(211.788 -4.85685 -2.47463e-09)
(211.386 -5.76187 -2.7617e-09)
(211.094 -6.73361 -2.68555e-09)
(210.753 -7.63233 -2.94935e-09)
(210.489 -8.56933 -2.94929e-09)
(210.16 -9.44518 -3.20407e-09)
(209.889 -10.3468 -3.26879e-09)
(209.561 -11.1986 -3.52415e-09)
(209.294 -12.0654 -3.64407e-09)
(208.985 -12.8887 -3.90589e-09)
(208.734 -13.7159 -4.07147e-09)
(208.45 -14.5009 -4.3402e-09)
(208.222 -15.2777 -4.53987e-09)
(207.969 -16.0085 -4.81073e-09)
(207.767 -16.7154 -5.02904e-09)
(207.547 -17.366 -5.29067e-09)
(207.371 -17.9734 -5.50752e-09)
(207.178 -18.5128 -5.74308e-09)
(207.01 -18.9998 -5.93519e-09)
(206.823 -19.423 -6.11887e-09)
(206.64 -19.8027 -6.2495e-09)
(206.516 -20.1634 -6.73698e-09)
(206.487 -20.488 -7.04773e-09)
(206.554 -20.7975 -7.51264e-09)
(206.757 -21.0909 -7.94399e-09)
(207.102 -21.3865 -8.43489e-09)
(207.718 -21.7475 -9.04577e-09)
(208.715 -22.1502 -9.81229e-09)
(210.385 -22.6404 -1.0732e-08)
(212.693 -23.2256 -1.18382e-08)
(216.166 -24.0195 -1.32865e-08)
(220.888 -25.0413 -1.49544e-08)
(227.917 -26.4077 -1.709e-08)
(236.383 -28.022 -1.92055e-08)
(246.403 -29.9172 -2.18129e-08)
(257.472 -31.8512 -2.41573e-08)
(268.782 -33.6124 -2.66037e-08)
(278.806 -34.7607 -2.83541e-08)
(289.197 -35.8189 -3.02317e-08)
(298.057 -36.4025 -3.15781e-08)
(305.612 -36.7806 -3.2583e-08)
(311.616 -36.7856 -3.3314e-08)
(315.958 -36.6578 -3.35996e-08)
(318.799 -36.5515 -3.38531e-08)
(320.298 -37.0859 -3.36885e-08)
(320.672 -38.5033 -3.37716e-08)
(319.102 -41.5324 -3.33969e-08)
(314.9 -47.394 -3.33894e-08)
(307.007 -55.6094 -3.28813e-08)
(295.352 -63.4394 -3.26918e-08)
(281.702 -66.2217 -3.20211e-08)
(266.447 -64.8273 -3.23869e-08)
(254.173 -64.14 -3.17451e-08)
(241.133 -59.1637 -3.20108e-08)
(230.155 -56.7096 -3.14592e-08)
(218.416 -50.6664 -3.16692e-08)
(207.931 -47.1978 -3.12201e-08)
(196.804 -40.9442 -3.14062e-08)
(187.069 -36.6866 -3.10098e-08)
(177.686 -30.2192 -3.11577e-08)
(170.218 -24.9366 -3.08587e-08)
(165.122 -17.4567 -3.10175e-08)
(163.387 -11.6318 -3.07596e-08)
(163.211 -4.12556 -3.09121e-08)
(162.016 1.01011 -3.0799e-08)
(165.117 7.60495 -3.09063e-08)
(164.316 12.9174 -3.08749e-08)
(167.501 18.063 -3.10378e-08)
(167.696 23.0784 -3.10689e-08)
(171.112 27.9678 -3.12782e-08)
(172.538 33.0226 -3.1383e-08)
(176.9 38.3655 -3.16485e-08)
(180.617 44.1487 -3.18371e-08)
(187.63 50.8065 -3.21666e-08)
(196.042 58.4528 -3.24483e-08)
(209.381 67.3725 -3.28584e-08)
(225.223 75.0112 -3.32328e-08)
(241.657 76.2751 -3.36488e-08)
(252.951 70.3996 -3.38958e-08)
(260.631 65.523 -3.4017e-08)
(266.073 62.6768 -3.409e-08)
(269.843 59.9258 -3.49629e-08)
(273.195 55.7459 -3.47325e-08)
(274.783 49.9371 -3.51961e-08)
(276.234 43.6947 -3.53657e-08)
(276.769 37.6642 -3.53604e-08)
(276.97 31.1405 -3.54354e-08)
(275.795 25.2207 -3.54832e-08)
(274.215 19.5076 -3.55984e-08)
(271.656 14.5163 -3.5521e-08)
(269.066 10.0867 -3.56987e-08)
(265.979 6.44387 -3.56146e-08)
(263.178 3.43752 -3.5734e-08)
(260.286 1.14874 -3.56454e-08)
(257.948 -0.526154 -3.57151e-08)
(255.909 -1.57928 -3.56355e-08)
(254.633 -2.11049 -3.56755e-08)
(253.925 -2.22352 -3.56318e-08)
(253.652 -2.25173 -3.56482e-08)
(212.224 -3.3232 -5.77454e-09)
(211.796 -4.30991 -5.81014e-09)
(211.475 -5.33811 -5.80039e-09)
(211.198 -6.35656 -5.9709e-09)
(210.987 -7.37028 -6.05299e-09)
(210.804 -8.36674 -6.21362e-09)
(210.649 -9.33751 -6.36315e-09)
(210.521 -10.2987 -6.53436e-09)
(210.415 -11.2227 -6.73714e-09)
(210.362 -12.1291 -6.93244e-09)
(210.341 -12.986 -7.1804e-09)
(210.395 -13.8155 -7.40933e-09)
(210.495 -14.5885 -7.69951e-09)
(210.688 -15.3297 -7.97042e-09)
(210.944 -16.0177 -8.30486e-09)
(211.313 -16.6798 -8.6269e-09)
(211.765 -17.3019 -9.01343e-09)
(212.352 -17.9084 -9.40024e-09)
(213.048 -18.4856 -9.85664e-09)
(213.922 -19.0597 -1.03406e-08)
(214.972 -19.6272 -1.0915e-08)
(216.295 -20.2148 -1.15623e-08)
(217.897 -20.8259 -1.23185e-08)
(219.86 -21.4756 -1.30822e-08)
(222.272 -22.1798 -1.40092e-08)
(225.257 -22.9602 -1.49913e-08)
(228.96 -23.8495 -1.61787e-08)
(234.331 -25.055 -1.77127e-08)
(239.479 -26.2804 -1.91886e-08)
(246.609 -27.8683 -2.10445e-08)
(253.444 -29.4139 -2.27548e-08)
(261.427 -31.1294 -2.46185e-08)
(269.008 -32.7208 -2.62616e-08)
(276.483 -34.1688 -2.77821e-08)
(283.815 -35.4975 -2.91619e-08)
(291.073 -36.6868 -3.04858e-08)
(297.838 -37.6765 -3.15349e-08)
(303.981 -38.4624 -3.24854e-08)
(309.354 -39.0637 -3.31021e-08)
(314.008 -39.4957 -3.3687e-08)
(317.654 -39.7204 -3.39047e-08)
(320.571 -39.7983 -3.41159e-08)
(322.604 -39.8205 -3.40665e-08)
(323.96 -39.9839 -3.40102e-08)
(324.646 -40.4551 -3.38412e-08)
(324.614 -41.5093 -3.36317e-08)
(323.565 -43.4855 -3.34415e-08)
(320.759 -47.1877 -3.31118e-08)
(315.553 -52.7772 -3.29004e-08)
(307.171 -59.4736 -3.24084e-08)
(296.055 -64.9363 -3.21012e-08)
(283.196 -66.6852 -3.14154e-08)
(269.206 -65.33 -3.17987e-08)
(257.357 -63.9534 -3.11682e-08)
(245.12 -59.4789 -3.14466e-08)
(234.335 -56.3247 -3.09201e-08)
(223.218 -50.6289 -3.1143e-08)
(212.947 -46.5936 -3.07395e-08)
(202.441 -40.4926 -3.09377e-08)
(193.063 -35.7298 -3.05813e-08)
(184.39 -29.138 -3.07314e-08)
(177.555 -23.4467 -3.04895e-08)
(173.002 -16.144 -3.06638e-08)
(171.225 -10.0297 -3.04485e-08)
(170.781 -3.05354 -3.05924e-08)
(170.086 1.94695 -3.05333e-08)
(171.929 8.8614 -3.05503e-08)
(171.411 13.8274 -3.05687e-08)
(173.663 19.3879 -3.0648e-08)
(174.019 24.2364 -3.07122e-08)
(176.894 29.286 -3.08555e-08)
(178.493 34.2403 -3.09875e-08)
(182.68 39.573 -3.12079e-08)
(186.689 45.2741 -3.14144e-08)
(193.906 51.8487 -3.17116e-08)
(202.677 59.2861 -3.20041e-08)
(215.656 67.3321 -3.23792e-08)
(229.617 72.9249 -3.27395e-08)
(243.463 72.4298 -3.30951e-08)
(253.075 67.8684 -3.329e-08)
(260.51 64.4321 -3.3383e-08)
(265.842 61.2144 -3.33794e-08)
(269.457 58.3607 -3.41501e-08)
(271.889 53.3212 -3.41741e-08)
(273.243 47.8195 -3.44065e-08)
(274.317 41.8416 -3.46551e-08)
(274.81 36.1822 -3.44967e-08)
(274.786 30.12 -3.46349e-08)
(273.788 24.6458 -3.46577e-08)
(272.263 19.2628 -3.47751e-08)
(270.006 14.7102 -3.47306e-08)
(267.549 10.5605 -3.48398e-08)
(264.763 7.1985 -3.47999e-08)
(262.126 4.35519 -3.48761e-08)
(259.548 2.23241 -3.48167e-08)
(257.42 0.699565 -3.48546e-08)
(255.657 -0.170959 -3.47971e-08)
(254.53 -0.600821 -3.48189e-08)
(253.913 -0.688086 -3.47886e-08)
(253.673 -0.711095 -3.47962e-08)
(218.383 -2.39077 -1.01368e-08)
(217.832 -3.40167 -1.01185e-08)
(217.747 -4.42398 -1.03061e-08)
(217.565 -5.50723 -1.04034e-08)
(217.73 -6.56653 -1.06322e-08)
(217.842 -7.64779 -1.08248e-08)
(218.201 -8.6927 -1.11107e-08)
(218.564 -9.73721 -1.1387e-08)
(219.154 -10.7427 -1.17403e-08)
(219.827 -11.7528 -1.21006e-08)
(220.732 -12.7417 -1.25359e-08)
(221.795 -13.7445 -1.29934e-08)
(223.12 -14.7413 -1.35342e-08)
(224.688 -15.7625 -1.41169e-08)
(226.589 -16.7942 -1.48003e-08)
(228.859 -17.8657 -1.55552e-08)
(231.605 -18.9734 -1.6441e-08)
(234.846 -20.1432 -1.74197e-08)
(238.338 -21.3345 -1.84553e-08)
(242.284 -22.5859 -1.95638e-08)
(246.504 -23.8596 -2.07236e-08)
(251.108 -25.1716 -2.19263e-08)
(255.931 -26.4834 -2.31493e-08)
(261.02 -27.7998 -2.43749e-08)
(266.205 -29.0905 -2.5593e-08)
(271.438 -30.3496 -2.67534e-08)
(276.504 -31.5362 -2.78483e-08)
(281.88 -32.7976 -2.89308e-08)
(286.006 -33.8531 -2.97342e-08)
(291.789 -35.1754 -3.08068e-08)
(295.881 -36.1751 -3.14904e-08)
(301.108 -37.3516 -3.23518e-08)
(304.798 -38.2308 -3.28522e-08)
(309.213 -39.2078 -3.34674e-08)
(312.471 -39.9355 -3.38042e-08)
(316.09 -40.6616 -3.41956e-08)
(318.651 -41.1459 -3.43361e-08)
(321.348 -41.6143 -3.45146e-08)
(323.157 -41.9226 -3.44783e-08)
(324.989 -42.2213 -3.44891e-08)
(326.062 -42.3776 -3.43075e-08)
(327.089 -42.5991 -3.42092e-08)
(327.598 -42.8709 -3.39352e-08)
(327.887 -43.3557 -3.37698e-08)
(327.665 -44.1655 -3.34634e-08)
(326.855 -45.5835 -3.32441e-08)
(324.907 -48.0602 -3.2925e-08)
(321.357 -51.8978 -3.26264e-08)
(315.525 -56.9775 -3.2275e-08)
(307.162 -62.2505 -3.18343e-08)
(296.622 -66.1267 -3.14059e-08)
(284.467 -67.1612 -3.07805e-08)
(271.436 -65.6541 -3.11095e-08)
(260.081 -63.7118 -3.05434e-08)
(248.427 -59.3753 -3.07835e-08)
(237.904 -55.8015 -3.03191e-08)
(227.22 -50.1569 -3.05194e-08)
(217.162 -45.7939 -3.01796e-08)
(207.084 -39.6351 -3.03699e-08)
(197.995 -34.5527 -3.00607e-08)
(189.819 -27.767 -3.01993e-08)
(183.4 -21.8492 -3.00096e-08)
(179.157 -14.5953 -3.01838e-08)
(177.254 -8.41463 -3.00091e-08)
(176.595 -1.71459 -3.01398e-08)
(176.131 3.37493 -3.01156e-08)
(177.208 10.2514 -3.00786e-08)
(176.89 15.167 -3.01228e-08)
(178.458 20.9976 -3.01461e-08)
(179.008 25.8186 -3.02267e-08)
(181.385 31.0637 -3.03204e-08)
(183.2 36.0229 -3.04685e-08)
(187.104 41.4281 -3.06522e-08)
(191.374 47.1252 -3.08728e-08)
(198.513 53.5574 -3.11428e-08)
(207.438 60.4399 -3.14458e-08)
(219.773 66.9487 -3.17913e-08)
(232.43 70.3371 -3.21313e-08)
(244.364 69.095 -3.24177e-08)
(252.935 65.7134 -3.25708e-08)
(260.127 62.62 -3.26336e-08)
(265.226 58.8998 -3.27842e-08)
(268.567 55.6924 -3.3299e-08)
(270.583 50.1871 -3.35565e-08)
(271.736 45.2235 -3.36123e-08)
(272.611 39.4472 -3.3829e-08)
(273.041 34.272 -3.36929e-08)
(272.883 28.5952 -3.38541e-08)
(271.97 23.6549 -3.37945e-08)
(270.491 18.6672 -3.39438e-08)
(268.447 14.5368 -3.38825e-08)
(266.144 10.6729 -3.39815e-08)
(263.632 7.64464 -3.39514e-08)
(261.204 5.06234 -3.40067e-08)
(258.896 3.23521 -3.39628e-08)
(256.976 1.89501 -3.39834e-08)
(255.442 1.17731 -3.39416e-08)
(254.444 0.809588 -3.39488e-08)
(253.901 0.740266 -3.39289e-08)
(253.686 0.720362 -3.39311e-08)
(237.354 -1.01993 -1.73504e-08)
(237.226 -2.1402 -1.74721e-08)
(237.799 -3.32674 -1.77982e-08)
(238.323 -4.63363 -1.80592e-08)
(239.459 -5.97159 -1.84998e-08)
(240.624 -7.38489 -1.89073e-08)
(242.322 -8.80176 -1.94705e-08)
(244.105 -10.2528 -2.00243e-08)
(246.356 -11.7013 -2.07095e-08)
(248.736 -13.1879 -2.13971e-08)
(251.535 -14.6962 -2.21909e-08)
(254.495 -16.2535 -2.29895e-08)
(257.815 -17.8373 -2.38671e-08)
(261.279 -19.4566 -2.47402e-08)
(265.003 -21.0814 -2.56575e-08)
(268.788 -22.706 -2.65453e-08)
(272.655 -24.2951 -2.7429e-08)
(276.454 -25.8439 -2.82539e-08)
(280.441 -27.3631 -2.91071e-08)
(284.349 -28.8286 -2.98989e-08)
(288.323 -30.2407 -3.06868e-08)
(292.181 -31.5865 -3.14064e-08)
(296.001 -32.8641 -3.20973e-08)
(299.66 -34.0702 -3.27138e-08)
(303.196 -35.2032 -3.32854e-08)
(306.534 -36.2653 -3.37788e-08)
(309.695 -37.2548 -3.42207e-08)
(313.016 -38.3084 -3.46339e-08)
(314.434 -38.9682 -3.47137e-08)
(317.506 -39.9327 -3.50404e-08)
(319.002 -40.6042 -3.50529e-08)
(321.399 -41.3656 -3.52383e-08)
(322.62 -41.9436 -3.51531e-08)
(324.494 -42.5524 -3.5227e-08)
(325.486 -43.0418 -3.50649e-08)
(326.908 -43.5118 -3.50479e-08)
(327.645 -43.8998 -3.48171e-08)
(328.644 -44.2413 -3.47284e-08)
(329.141 -44.5505 -3.44421e-08)
(329.778 -44.8102 -3.43052e-08)
(330.044 -45.1152 -3.39751e-08)
(330.356 -45.4443 -3.38041e-08)
(330.279 -45.916 -3.34585e-08)
(330.102 -46.6 -3.3259e-08)
(329.318 -47.713 -3.29044e-08)
(327.965 -49.5086 -3.26723e-08)
(325.396 -52.2421 -3.22974e-08)
(321.346 -56.0126 -3.20013e-08)
(315.232 -60.4103 -3.15771e-08)
(307.109 -64.5992 -3.11673e-08)
(297.09 -67.4306 -3.06645e-08)
(285.514 -68.0528 -3.0113e-08)
(273.314 -66.1856 -3.03691e-08)
(262.447 -63.8998 -2.98751e-08)
(251.303 -59.4769 -3.00636e-08)
(241.082 -55.5223 -2.96674e-08)
(230.745 -49.8383 -2.9836e-08)
(220.924 -45.0869 -2.95621e-08)
(211.178 -38.8391 -2.97396e-08)
(202.373 -33.333 -2.9474e-08)
(194.561 -26.3599 -2.95987e-08)
(188.422 -20.1497 -2.9452e-08)
(184.309 -12.9555 -2.96242e-08)
(182.246 -6.74022 -2.94808e-08)
(181.403 -0.235385 -2.96013e-08)
(181.003 4.92907 -2.95999e-08)
(181.619 11.6002 -2.95321e-08)
(181.381 16.5628 -2.95868e-08)
(182.5 22.4551 -2.9576e-08)
(183.138 27.2373 -2.96595e-08)
(185.175 32.5479 -2.97206e-08)
(187.154 37.4159 -2.98757e-08)
(190.904 42.7938 -3.00354e-08)
(195.461 48.3363 -3.02659e-08)
(202.598 54.5004 -3.05177e-08)
(211.553 60.7103 -3.08246e-08)
(222.993 65.9068 -3.1142e-08)
(234.306 67.8768 -3.14555e-08)
(244.774 66.5145 -3.16938e-08)
(252.777 63.8008 -3.18368e-08)
(259.642 60.7032 -3.18955e-08)
(264.422 56.7396 -3.2064e-08)
(267.37 53.3143 -3.26198e-08)
(269.122 47.8473 -3.25894e-08)
(270.099 43.252 -3.30105e-08)
(270.898 37.7109 -3.27495e-08)
(271.244 32.9231 -3.30373e-08)
(271.061 27.5763 -3.29469e-08)
(270.209 23.0285 -3.30141e-08)
(268.832 18.3666 -3.30867e-08)
(266.97 14.5701 -3.30546e-08)
(264.86 10.9693 -3.3127e-08)
(262.582 8.21681 -3.31077e-08)
(260.377 5.83523 -3.31473e-08)
(258.314 4.22166 -3.31148e-08)
(256.6 3.04657 -3.31156e-08)
(255.255 2.44727 -3.30924e-08)
(254.37 2.1252 -3.30855e-08)
(253.886 2.06955 -3.30756e-08)
(253.694 2.05183 -3.3072e-08)
(268.098 -0.223225 -2.6256e-08)
(268.89 -1.59348 -2.65928e-08)
(270.06 -3.10194 -2.70002e-08)
(271.416 -4.76363 -2.74149e-08)
(273.124 -6.49635 -2.78964e-08)
(274.979 -8.31357 -2.83782e-08)
(277.136 -10.1495 -2.89193e-08)
(279.384 -12.0135 -2.94504e-08)
(281.864 -13.8603 -3.00265e-08)
(284.373 -15.7028 -3.05806e-08)
(287.048 -17.5211 -3.11626e-08)
(289.714 -19.3382 -3.17106e-08)
(292.496 -21.1365 -3.22703e-08)
(295.234 -22.9273 -3.27855e-08)
(298.036 -24.6921 -3.32981e-08)
(300.761 -26.4353 -3.37581e-08)
(303.501 -28.1384 -3.42039e-08)
(306.142 -29.7994 -3.45949e-08)
(308.763 -31.3966 -3.49655e-08)
(311.246 -32.9251 -3.5275e-08)
(313.672 -34.3718 -3.55588e-08)
(315.932 -35.7328 -3.57794e-08)
(318.105 -37.002 -3.59722e-08)
(320.097 -38.1782 -3.61026e-08)
(321.981 -39.2605 -3.62045e-08)
(323.683 -40.2504 -3.62497e-08)
(325.261 -41.15 -3.62673e-08)
(326.799 -42.0694 -3.62276e-08)
(327.013 -42.5526 -3.60577e-08)
(328.317 -43.2838 -3.59898e-08)
(328.769 -43.8567 -3.57449e-08)
(329.648 -44.3266 -3.56501e-08)
(329.971 -44.819 -3.53599e-08)
(330.648 -45.1949 -3.52374e-08)
(330.883 -45.6446 -3.49191e-08)
(331.434 -45.986 -3.47718e-08)
(331.59 -46.3979 -3.4434e-08)
(332.01 -46.6973 -3.42682e-08)
(332.08 -47.0669 -3.39143e-08)
(332.344 -47.3543 -3.373e-08)
(332.261 -47.7473 -3.33728e-08)
(332.279 -48.1704 -3.31708e-08)
(331.876 -48.8184 -3.2812e-08)
(331.356 -49.7333 -3.25913e-08)
(330.161 -51.1369 -3.22268e-08)
(328.386 -53.1811 -3.19742e-08)
(325.364 -56.0309 -3.15835e-08)
(321.019 -59.5409 -3.12758e-08)
(314.864 -63.3277 -3.08316e-08)
(307.047 -66.7144 -3.04318e-08)
(297.526 -68.854 -2.9907e-08)
(286.489 -69.1642 -2.94111e-08)
(275.048 -66.8608 -2.96056e-08)
(264.64 -64.2935 -2.91688e-08)
(253.98 -59.6653 -2.93121e-08)
(244.061 -55.3763 -2.89722e-08)
(234.042 -49.5432 -2.91135e-08)
(224.451 -44.4373 -2.88966e-08)
(214.999 -38.0171 -2.90647e-08)
(206.454 -32.1189 -2.88355e-08)
(198.936 -24.9273 -2.89486e-08)
(192.98 -18.444 -2.88353e-08)
(188.898 -11.2325 -2.9004e-08)
(186.642 -4.95885 -2.88882e-08)
(185.606 1.45407 -2.89998e-08)
(185.163 6.63189 -2.90156e-08)
(185.494 13.1276 -2.89292e-08)
(185.25 18.1802 -2.89877e-08)
(186.057 24.0662 -2.89556e-08)
(186.696 28.8656 -2.90365e-08)
(188.504 34.2122 -2.90768e-08)
(190.567 39.0195 -2.92354e-08)
(194.232 44.3623 -2.93805e-08)
(198.961 49.7069 -2.96176e-08)
(206.02 55.4745 -2.98582e-08)
(214.783 60.7953 -3.01664e-08)
(225.356 64.6674 -3.04584e-08)
(235.624 65.6199 -3.07524e-08)
(245.023 64.3446 -3.09657e-08)
(252.602 61.8381 -3.11048e-08)
(259.063 58.5646 -3.11627e-08)
(263.509 54.3919 -3.13245e-08)
(266.149 50.8362 -3.18406e-08)
(267.724 45.5752 -3.16823e-08)
(268.565 41.2759 -3.23896e-08)
(269.303 36.0339 -3.17831e-08)
(269.564 31.5861 -3.23326e-08)
(269.389 26.5826 -3.19665e-08)
(268.574 22.392 -3.23318e-08)
(267.32 18.0625 -3.21467e-08)
(265.606 14.5821 -3.2317e-08)
(263.692 11.263 -3.22473e-08)
(261.622 8.76869 -3.23151e-08)
(259.639 6.61221 -3.22785e-08)
(257.795 5.19043 -3.23009e-08)
(256.275 4.15091 -3.22605e-08)
(255.088 3.64013 -3.22638e-08)
(254.301 3.35388 -3.22483e-08)
(253.869 3.30821 -3.22416e-08)
(253.696 3.29225 -3.22385e-08)
(296.219 0.0228907 -3.31251e-08)
(297.113 -1.45636 -3.34435e-08)
(297.954 -3.11027 -3.37237e-08)
(299.165 -4.93865 -3.40478e-08)
(300.372 -6.86522 -3.43421e-08)
(301.851 -8.89019 -3.46616e-08)
(303.336 -10.947 -3.49568e-08)
(304.987 -13.0326 -3.52597e-08)
(306.625 -15.0991 -3.55398e-08)
(308.33 -17.1505 -3.58123e-08)
(309.995 -19.1593 -3.6061e-08)
(311.664 -21.1454 -3.62901e-08)
(313.299 -23.0986 -3.64946e-08)
(314.912 -25.0274 -3.66715e-08)
(316.496 -26.9164 -3.68227e-08)
(318.037 -28.7662 -3.69403e-08)
(319.546 -30.5598 -3.70339e-08)
(320.994 -32.2951 -3.70901e-08)
(322.404 -33.9558 -3.7122e-08)
(323.736 -35.5408 -3.71169e-08)
(325.022 -37.0367 -3.7089e-08)
(326.217 -38.4439 -3.70252e-08)
(327.361 -39.7524 -3.69403e-08)
(328.406 -40.9661 -3.68222e-08)
(329.397 -42.0784 -3.66869e-08)
(330.287 -43.0964 -3.65192e-08)
(331.115 -44.0164 -3.63388e-08)
(331.871 -44.9471 -3.61042e-08)
(331.883 -45.3686 -3.59023e-08)
(332.533 -46.0986 -3.56678e-08)
(332.643 -46.574 -3.53756e-08)
(333.073 -47.0422 -3.5165e-08)
(333.114 -47.4281 -3.48488e-08)
(333.435 -47.7892 -3.46333e-08)
(333.437 -48.1322 -3.43102e-08)