/*--------------------------------*- C++ -*----------------------------------*\
  =========                 |
  \\      /  F ield         | OpenFOAM: The Open Source CFD Toolbox
   \\    /   O peration     | Website:  https://openfoam.org
    \\  /    A nd           | Version:  7
     \\/     M anipulation  |
\*---------------------------------------------------------------------------*/
FoamFile
{
    version     2.0;
    format      ascii;
    class       volScalarField;
    location    "0.125";
    object      alphat;
}
// * * * * * * * * * * * * * * * * * * * * * * * * * * * * * * * * * * * * * //

dimensions      [1 -1 -1 0 0 0 0];

internalField   nonuniform List<scalar> 
48560
(
0.00510935
0.00505725
0.00500395
0.00495164
0.00490092
0.00485227
0.00480617
0.00476301
0.00472317
0.00468696
0.00465468
0.0046266
0.00460298
0.00458406
0.00457006
0.00456122
0.00455775
0.00455988
0.00456785
0.0045819
0.00460231
0.00462933
0.0046633
0.00470454
0.00475343
0.00481038
0.00487576
0.00494967
0.00505953
0.00518419
0.00532269
0.00547359
0.00563418
0.005801
0.00596932
0.00614115
0.0063157
0.00649729
0.00668967
0.00690639
0.0071504
0.00742028
0.00771505
0.00801522
0.00828196
0.00837764
0.00797312
0.00694021
0.00546869
0.00391594
0.00126478
0.000499803
0.000550339
0.000574581
0.000615285
0.000635962
0.0006815
0.000708558
0.000775468
0.000834872
0.000960503
0.00103639
0.00108339
0.000986559
0.00108372
0.000849223
0.000856304
0.000890368
0.000947918
0.00101945
0.00110953
0.00120322
0.00130716
0.00140071
0.00148573
0.00153804
0.00154224
0.00146079
0.00128432
0.0010751
0.000947196
0.000984855
0.00104474
0.00104343
0.00101932
0.000973675
0.000931098
0.000894687
0.000871946
0.000857053
0.00085423
0.000853005
0.000852292
0.000848707
0.000843067
0.000831384
0.000813981
0.000787494
0.000751128
0.000702829
0.00484587
0.00483091
0.00481649
0.00480366
0.00479294
0.00478473
0.00477946
0.00477746
0.00477904
0.00478448
0.00479405
0.00480797
0.00482647
0.00484977
0.00487809
0.00491163
0.0049506
0.00499518
0.00504552
0.00510166
0.00516377
0.0052319
0.00530617
0.00538659
0.00547313
0.00556564
0.00566386
0.00576679
0.0059161
0.0060727
0.00623816
0.00641069
0.00659292
0.00678585
0.00699807
0.00723608
0.00750603
0.00781057
0.00815237
0.00852679
0.00893079
0.00933449
0.00965631
0.00973684
0.00945507
0.00871788
0.00757383
0.00623733
0.00511145
0.00460692
0.00507328
0.00904729
0.00945956
0.00991219
0.0103093
0.01061
0.0102356
0.0103999
0.00971424
0.00989572
0.00897491
0.00868235
0.007775
0.00820604
0.00716814
0.0071194
0.00693649
0.00696789
0.00676146
0.00672302
0.00669262
0.00676881
0.0068539
0.00699398
0.00712506
0.00718041
0.00700452
0.00648414
0.00673289
0.00642509
0.00704642
0.00995714
0.00904562
0.00847817
0.0081916
0.00817035
0.00856039
0.00958178
0.0107124
0.012142
0.0136121
0.0151027
0.0167037
0.0185533
0.0205782
0.0229583
0.0258311
0.0300276
0.0369559
0.0528135
0.00520556
0.00522046
0.00523798
0.00525819
0.0052815
0.0053082
0.00533856
0.00537271
0.00541083
0.00545296
0.0054992
0.00554956
0.00560418
0.00566306
0.00572629
0.00579382
0.00586566
0.00594167
0.00602175
0.00610638
0.00619538
0.00628901
0.00638734
0.00649069
0.00659922
0.00671336
0.00683356
0.00695965
0.00715459
0.00737079
0.0076087
0.00787347
0.00816571
0.00849
0.00884811
0.00924133
0.0096701
0.0101217
0.0105699
0.0109345
0.0111542
0.0111
0.0107369
0.0100237
0.00903422
0.0078747
0.00689142
0.00625213
0.00621195
0.00693545
0.00896762
0.014204
0.0146892
0.0152066
0.0148706
0.0159231
0.0148242
0.0161095
0.0141407
0.0149853
0.0131527
0.0126932
0.0114298
0.0115838
0.0104462
0.010715
0.0108317
0.0114201
0.0112229
0.0118133
0.0117094
0.0116265
0.0116034
0.0116001
0.0116406
0.0116795
0.0117036
0.0115213
0.0113873
0.0102251
0.0145452
0.0230199
0.0211959
0.020149
0.0198092
0.0165165
0.0190669
0.0195392
0.0258855
0.0318223
0.0386258
0.0429633
0.0475671
0.0529654
0.0592815
0.0672685
0.0697769
0.0636187
0.0592189
0.0580421
0.00629859
0.00632827
0.00636172
0.00639981
0.00644178
0.00648887
0.00654031
0.00659695
0.00665794
0.00672397
0.00679458
0.00687049
0.00695143
0.00703806
0.0071303
0.0072288
0.00733368
0.00744569
0.0075653
0.00769286
0.00782877
0.00797354
0.00812741
0.00829105
0.00846509
0.0086504
0.00884755
0.00905755
0.00937542
0.00972068
0.0100926
0.0104921
0.0109128
0.0113469
0.0117701
0.0121503
0.0124374
0.0125724
0.0125143
0.0122131
0.0116745
0.0108999
0.0100029
0.00909917
0.00828874
0.00771663
0.00754574
0.00789064
0.00883872
0.0105878
0.0138508
0.0181512
0.0194493
0.0206601
0.0196316
0.0210331
0.0191192
0.0200132
0.0179698
0.0183776
0.0164769
0.0156706
0.0145916
0.0145783
0.0144101
0.0144292
0.0154212
0.0164503
0.0168048
0.0170125
0.0173072
0.0176551
0.0180519
0.0184747
0.0185946
0.0167343
0.0139864
0.0134947
0.0149953
0.0173609
0.0297883
0.0434108
0.0412316
0.0402566
0.0324961
0.030083
0.0328657
0.0306777
0.033176
0.033682
0.0377839
0.0409484
0.0464348
0.0509813
0.0565193
0.0610301
0.0641498
0.0647124
0.0641721
0.0638483
0.00814578
0.00818886
0.00824004
0.00829973
0.0083672
0.00844369
0.00852849
0.00862259
0.00872521
0.00883725
0.00895815
0.0090888
0.00922883
0.00937905
0.00953919
0.00970994
0.00989102
0.010083
0.0102854
0.0104988
0.0107227
0.0109572
0.0112029
0.0114599
0.0117276
0.0120049
0.0122894
0.012579
0.0129565
0.0133246
0.0136491
0.0139171
0.0140883
0.0141475
0.0140706
0.0138425
0.0134497
0.0128965
0.012195
0.0114627
0.0107007
0.00999372
0.00939356
0.00898908
0.00886951
0.00913349
0.00984335
0.0110332
0.0128053
0.0145265
0.0185545
0.0205019
0.0221461
0.0229203
0.0228977
0.0237654
0.0227115
0.0232876
0.0218372
0.0220476
0.0205884
0.0197336
0.0188536
0.0189804
0.0198202
0.0194333
0.0216724
0.0224366
0.0245049
0.025303
0.0265941
0.0270816
0.0270483
0.0258979
0.0234248
0.0202021
0.0174896
0.0170815
0.0170714
0.0221088
0.0336045
0.0407553
0.0428447
0.0286381
0.0266608
0.0273297
0.0286564
0.0288287
0.0324392
0.0341972
0.0393584
0.0430437
0.0495121
0.0550696
0.0622132
0.0667029
0.0685924
0.0697147
0.0709072
0.0717008
0.0113631
0.0114119
0.0114789
0.0115607
0.0116584
0.0117706
0.011898
0.0120397
0.0121959
0.0123655
0.0125486
0.0127447
0.0129536
0.0131749
0.0134077
0.0136512
0.0139036
0.0141619
0.0144219
0.0146806
0.014932
0.015171
0.0153896
0.0155811
0.015739
0.0158597
0.0159407
0.0159953
0.0159353
0.0158173
0.0155729
0.0152479
0.0148006
0.0142703
0.0136797
0.0130637
0.0124304
0.0118163
0.0112477
0.0107659
0.0104017
0.0102155
0.0102584
0.0105948
0.0112725
0.0123167
0.0137279
0.0155527
0.0156263
0.0173175
0.0204858
0.0222784
0.0242928
0.0255334
0.0261315
0.0263966
0.0263609
0.0262242
0.02561
0.0252509
0.0244495
0.0236182
0.0234069
0.0240629
0.025845
0.0253862
0.0284871
0.0290089
0.0322177
0.0324188
0.0346493
0.0336117
0.0333111
0.0301688
0.0266213
0.022432
0.0201857
0.0202035
0.0210771
0.0262431
0.0335043
0.0377305
0.0377157
0.0299633
0.0307796
0.0303185
0.0316324
0.03213
0.0350262
0.037143
0.0416608
0.0451479
0.0508313
0.0561783
0.063155
0.0693888
0.0730203
0.0753358
0.0770306
0.0780991
0.0164159
0.0164098
0.0164373
0.0164844
0.0165595
0.0166514
0.0167644
0.0168881
0.0170234
0.0171614
0.0173016
0.0174363
0.0175635
0.017676
0.0177713
0.0178433
0.0178907
0.0179092
0.0178934
0.0178418
0.0177509
0.0176206
0.0174492
0.0172387
0.0169895
0.0167055
0.0163899
0.0160606
0.0155681
0.0150892
0.0145632
0.0140627
0.0135459
0.0130759
0.0126255
0.0122448
0.0119261
0.0117175
0.0116262
0.0117015
0.0119655
0.0124659
0.0132232
0.0142582
0.0155673
0.0171393
0.0189973
0.0189296
0.0184368
0.0203956
0.0224522
0.0239232
0.0260083
0.0273756
0.0279915
0.0282543
0.028362
0.0282468
0.0278261
0.0275133
0.0271079
0.0268352
0.0272492
0.0286767
0.0308335
0.0307703
0.0338548
0.0345522
0.0376535
0.0380388
0.040129
0.0387583
0.0379091
0.0338295
0.0297644
0.0255256
0.0236306
0.0231697
0.0244189
0.0290098
0.0327359
0.0350721
0.0335573
0.0306312
0.0321504
0.0322162
0.0338247
0.0349211
0.0378832
0.0404928
0.0450398
0.0495479
0.0560859
0.0627206
0.0693353
0.0747067
0.0781278
0.0809556
0.0828151
0.0840066
0.0219644
0.021762
0.0215763
0.0213996
0.0212383
0.0210785
0.0209243
0.0207622
0.0205953
0.0204127
0.0202173
0.0200013
0.0197678
0.0195113
0.019235
0.0189354
0.0186163
0.0182785
0.0179328
0.0175749
0.0172122
0.0168434
0.0164746
0.0161061
0.0157428
0.0153863
0.0150405
0.0147153
0.0143519
0.0140549
0.013774
0.0135602
0.0133907
0.0133063
0.0132947
0.0133935
0.0136028
0.013957
0.0144657
0.015158
0.0160374
0.0171159
0.0183829
0.0198318
0.0214508
0.0232689
0.0230968
0.0210815
0.0211818
0.0228
0.0239303
0.0251868
0.027489
0.0289668
0.0294506
0.0297575
0.0298468
0.0296924
0.0293347
0.0289295
0.0288515
0.029008
0.0301171
0.032126
0.0345879
0.0352148
0.0379908
0.0388992
0.0417747
0.0426551
0.0442915
0.0429773
0.0411164
0.0364431
0.0318883
0.0280287
0.0265498
0.0262178
0.0276738
0.0309503
0.0329553
0.0352374
0.0340836
0.0336402
0.0347207
0.0353358
0.0366745
0.0382458
0.0409587
0.0440937
0.0486076
0.0537846
0.0603503
0.0674875
0.0747174
0.0803069
0.0839379
0.0869143
0.0889197
0.0902094
0.0235074
0.0230863
0.022657
0.0222419
0.0218329
0.0214335
0.0210394
0.0206513
0.0202682
0.0198901
0.019518
0.0191513
0.0187923
0.0184402
0.0180979
0.0177647
0.0174439
0.0171352
0.0168417
0.0165643
0.0163075
0.0160728
0.0158655
0.0156883
0.0155477
0.0154478
0.0153972
0.0154067
0.0154302
0.0155364
0.0156963
0.0159357
0.0162427
0.0166367
0.0171204
0.0177174
0.0184206
0.0192521
0.0202011
0.0212821
0.0224744
0.0237847
0.0251926
0.0267166
0.0283688
0.0279282
0.0248561
0.0235566
0.0236541
0.0247998
0.0251946
0.0263198
0.0286486
0.0300434
0.0303635
0.0306611
0.0306034
0.0304849
0.0300302
0.0296609
0.0297554
0.0303055
0.0318339
0.0342305
0.0369785
0.0383387
0.0405619
0.0416109
0.0442236
0.0453914
0.0465793
0.0454419
0.0429672
0.0384841
0.0341576
0.030938
0.0294896
0.0291054
0.0303195
0.0321993
0.0332388
0.0353657
0.0350005
0.03581
0.0368512
0.0378795
0.0392819
0.0413299
0.0442421
0.0479711
0.0528798
0.0587245
0.0658694
0.0732562
0.0804824
0.0860837
0.0900455
0.0930329
0.0952299
0.0965956
0.0214523
0.0211009
0.0207434
0.020409
0.0200815
0.0197726
0.0194723
0.0191893
0.0189184
0.0186664
0.0184314
0.0182176
0.0180241
0.0178538
0.0177075
0.017588
0.017498
0.0174409
0.0174213
0.0174442
0.0175163
0.0176444
0.0178379
0.0181061
0.0184616
0.0189174
0.0194915
0.0202014
0.020641
0.0211492
0.0217001
0.0223114
0.0229564
0.0236508
0.0244037
0.0252353
0.0261228
0.0270864
0.0281038
0.029193
0.0303329
0.0315435
0.0328164
0.0341883
0.0328508
0.0292726
0.0269313
0.0257488
0.0257148
0.0263744
0.0262429
0.0272324
0.0294312
0.0306962
0.0308616
0.0311002
0.0308868
0.0307611
0.0301768
0.0298166
0.0300084
0.0308069
0.0325648
0.0351695
0.0381928
0.0401383
0.0418667
0.0430255
0.0454253
0.0468001
0.0478787
0.0470123
0.0444239
0.0403482
0.0364411
0.0337638
0.0323304
0.0318353
0.0323821
0.0332618
0.0339652
0.0363994
0.0367993
0.0382462
0.0393427
0.0405858
0.0421548
0.0445097
0.0477932
0.051934
0.0574649
0.0638431
0.0717086
0.0793208
0.0868535
0.0921459
0.0963932
0.0992329
0.101679
0.103093
0.0199064
0.0197749
0.0196421
0.0195325
0.0194283
0.019345
0.0192709
0.0192198
0.0191852
0.0191794
0.0191994
0.0192555
0.0193449
0.0194756
0.0196472
0.0198678
0.0201399
0.0204727
0.0208716
0.0213471
0.0219077
0.0225653
0.0233309
0.0242182
0.0252403
0.0264115
0.0277472
0.0292539
0.029853
0.0304734
0.0311008
0.031746
0.0323838
0.0330247
0.0336953
0.0344077
0.035142
0.0359114
0.036702
0.0375291
0.0383872
0.0392994
0.0402721
0.036873
0.0337258
0.0307532
0.028775
0.0275191
0.027342
0.0275577
0.0271002
0.0279321
0.0298714
0.0309599
0.0309559
0.0310874
0.0307424
0.030578
0.0298746
0.0295263
0.0297544
0.0306751
0.0324702
0.0351415
0.0383349
0.0406883
0.0421469
0.0434531
0.0456329
0.0472764
0.0485014
0.0481284
0.0459332
0.0425693
0.0392034
0.0367893
0.0350443
0.0341725
0.0340055
0.0341647
0.0347619
0.0374439
0.0385249
0.0404535
0.0418034
0.0432606
0.0451164
0.0478118
0.0516318
0.0562424
0.0625865
0.0694453
0.0781149
0.0856686
0.0935209
0.098447
0.102958
0.1056
0.108287
0.109741
0.0206824
0.020784
0.0208935
0.0210271
0.0211696
0.0213367
0.0215182
0.0217302
0.021967
0.0222448
0.0225613
0.0229316
0.0233538
0.0238379
0.0243817
0.0249958
0.0256813
0.0264485
0.0273003
0.0282471
0.0292928
0.0304452
0.0317102
0.0330917
0.0345912
0.0362061
0.0379309
0.0397444
0.040164
0.0405707
0.0409657
0.0413586
0.0417342
0.042095
0.0424745
0.0428751
0.0432829
0.0437038
0.0441352
0.0434457
0.0424481
0.0409389
0.0392489
0.0368884
0.034522
0.0319676
0.0301138
0.0288863
0.0284818
0.028358
0.0276909
0.0284324
0.0299886
0.0308787
0.0306953
0.0307025
0.030266
0.030046
0.0292646
0.0289227
0.0291614
0.0301036
0.0318175
0.0344299
0.0376756
0.0403244
0.0418816
0.0433568
0.0453706
0.0474441
0.0490419
0.0494329
0.0479233
0.0453256
0.0423471
0.0398972
0.0376297
0.0362326
0.0353721
0.0350717
0.0357029
0.0386887
0.0403552
0.042735
0.0444147
0.0460871
0.0482458
0.0513436
0.0557587
0.0609449
0.0681473
0.075511
0.0849221
0.092391
0.100389
0.104978
0.109644
0.112162
0.115006
0.116515
0.0238711
0.0242048
0.0245582
0.0249384
0.0253322
0.025753
0.0261918
0.0266633
0.0271631
0.0277075
0.0282959
0.0289445
0.0296545
0.0304359
0.0312826
0.0321998
0.0331817
0.0342321
0.0353454
0.0365235
0.0377612
0.0390585
0.0404013
0.0417809
0.0431776
0.0445725
0.0459418
0.0472663
0.0473758
0.0471219
0.046141
0.0443649
0.0434728
0.0423926
0.0416363
0.0408704
0.0402282
0.0394747
0.0388757
0.0382207
0.0377278
0.0371154
0.0365242
0.0355489
0.0342092
0.032582
0.0311478
0.0298537
0.0292332
0.028835
0.0280505
0.0288191
0.0298659
0.0305099
0.0301184
0.0299922
0.0295005
0.0292279
0.0284113
0.0280814
0.0283278
0.0292364
0.030797
0.0332499
0.0364358
0.0393587
0.0413178
0.0429587
0.0448725
0.0475118
0.049652
0.051112
0.0505476
0.0487644
0.0459095
0.0430279
0.0401106
0.0380845
0.0365703
0.0359377
0.0365946
0.0398317
0.0420611
0.0449362
0.0470839
0.0490502
0.051543
0.0551649
0.0602399
0.066165
0.074229
0.0821441
0.0920934
0.0995066
0.107436
0.11173
0.116376
0.118838
0.121751
0.123327
0.0286392
0.0291861
0.0297621
0.0303644
0.03098
0.0316178
0.0322673
0.0329374
0.0336215
0.0343306
0.0350629
0.0358317
0.0366383
0.0374941
0.0383901
0.0393208
0.0402698
0.0412279
0.0421787
0.0431107
0.0440058
0.0448457
0.0456054
0.0462638
0.0467947
0.0471769
0.0460301
0.0442001
0.0438358
0.0411325
0.0406505
0.0390287
0.0384376
0.0373586
0.036719
0.0360281
0.0354528
0.0349232
0.034346
0.0338512
0.0333568
0.0329384
0.032581
0.0323024
0.0321212
0.0318049
0.0311659
0.0303063
0.0297252
0.0291331
0.0283761
0.0290922
0.0295543
0.0298656
0.0292439
0.0289934
0.028486
0.028201
0.0274178
0.0271257
0.0273766
0.0282177
0.0295756
0.0317917
0.0348199
0.0379726
0.0405092
0.0423689
0.0442643
0.0475954
0.0504613
0.0532982
0.0538779
0.0528071
0.0496828
0.0460173
0.0423969
0.0396903
0.0376654
0.0367379
0.0374123
0.0408376
0.0435782
0.0470393
0.0498158
0.0521626
0.0550355
0.059311
0.0651268
0.0719511
0.0808753
0.089415
0.0996947
0.10702
0.114663
0.11866
0.123099
0.125537
0.128436
0.13008
0.0335051
0.034177
0.0348778
0.0355981
0.036324
0.0370599
0.0377923
0.0385226
0.0392382
0.0399398
0.0406188
0.0412795
0.0419193
0.0425466
0.043162
0.0437583
0.0443125
0.044804
0.0452072
0.0455013
0.0450485
0.0440948
0.0432663
0.0423675
0.0413863
0.0402414
0.0392731
0.0381803
0.0380428
0.0358508
0.0358008
0.034387
0.0341887
0.0332986
0.0329705
0.0325032
0.0320655
0.0317899
0.0313307
0.0309563
0.0305541
0.0302435
0.0299476
0.0297882
0.0297268
0.0297553
0.029859
0.0300507
0.0298863
0.0296173
0.0288645
0.029411
0.0292745
0.0290912
0.0281346
0.0277141
0.0271988
0.0269285
0.0262071
0.0259617
0.0262378
0.0270311
0.028202
0.0301752
0.0329854
0.0362543
0.0392774
0.0414879
0.0436905
0.0475834
0.0514782
0.055874
0.0578399
0.057272
0.0534515
0.0487838
0.0443781
0.041032
0.0386339
0.0374332
0.0380819
0.041595
0.04482
0.0490015
0.0524957
0.0554801
0.0588743
0.0638805
0.0705876
0.0784322
0.0882379
0.0973457
0.107738
0.114879
0.122068
0.125722
0.129757
0.132136
0.134948
0.136651
0.036834
0.0374725
0.0381271
0.0387877
0.0394404
0.040088
0.0407159
0.0413215
0.0418883
0.0424094
0.0428681
0.0432571
0.043565
0.0437916
0.0439364
0.0440074
0.0433598
0.0419394
0.0402486
0.0386212
0.037136
0.0359134
0.0349343
0.034164
0.0334902
0.0328333
0.032333
0.0319299
0.0320043
0.0304086
0.030763
0.029535
0.0297412
0.0290725
0.0290804
0.0288145
0.0285787
0.0284513
0.028183
0.0280755
0.0279681
0.0279743
0.0279882
0.0280469
0.0280972
0.0282103
0.028511
0.0289489
0.0294194
0.0298427
0.0294224
0.0296611
0.0288495
0.0279766
0.0266586
0.0260974
0.0256344
0.0254788
0.0249537
0.0248241
0.0251387
0.0258788
0.0268376
0.0285201
0.0309699
0.0341472
0.0373835
0.0402092
0.0432877
0.0472601
0.0526662
0.0585403
0.0621427
0.061739
0.0568434
0.0511786
0.0461128
0.0422643
0.0395554
0.0381215
0.0386769
0.0422119
0.0459639
0.0509237
0.0552496
0.0593512
0.0634879
0.0692272
0.0770671
0.0859671
0.0966831
0.106076
0.116202
0.122869
0.129453
0.132756
0.136226
0.138425
0.141068
0.142811
0.0375259
0.0379741
0.0384179
0.0388525
0.0392659
0.0396611
0.0400278
0.0403624
0.0406486
0.0408807
0.0410408
0.0411161
0.0410871
0.040942
0.0406702
0.037786
0.0359851
0.0349065
0.0335772
0.0318957
0.0301816
0.0286617
0.0274105
0.0264914
0.0258645
0.0254604
0.0253127
0.025419
0.0258364
0.0252156
0.0261044
0.0250472
0.0256188
0.0250767
0.0253655
0.0251349
0.0251517
0.0249719
0.0249372
0.0249714
0.0250607
0.0252048
0.0255024
0.025835
0.0263303
0.0267943
0.027333
0.0278353
0.0285969
0.0294843
0.0300614
0.0302259
0.0291267
0.027334
0.0252421
0.0242287
0.023721
0.0236664
0.0233442
0.0232916
0.0236551
0.0244143
0.0252225
0.0267289
0.0288036
0.0318315
0.0350961
0.0385717
0.0426297
0.0465956
0.0536479
0.0608995
0.0661515
0.0655961
0.0596077
0.0530394
0.0475034
0.0433689
0.0404266
0.0388132
0.0392062
0.0427108
0.0470498
0.05287
0.0584561
0.0643207
0.0695721
0.076262
0.0855942
0.0955315
0.106999
0.116039
0.125097
0.130595
0.136281
0.139396
0.142346
0.144187
0.146441
0.148167
0.0353971
0.0355755
0.035732
0.0358691
0.0359778
0.0360623
0.0361172
0.0361391
0.0361158
0.0360451
0.0359175
0.035723
0.0354457
0.0350704
0.0345796
0.0339619
0.0324305
0.0296374
0.0280229
0.0264762
0.0245933
0.0226433
0.0210194
0.0197772
0.0190169
0.0186525
0.0185864
0.017483
0.0179496
0.018412
0.0188577
0.01937
0.0199298
0.0205996
0.0212887
0.0217869
0.0221392
0.0220596
0.0223021
0.0223808
0.0226133
0.0227469
0.0231032
0.0234076
0.0239811
0.0246231
0.0254935
0.0263777
0.0274006
0.0286028
0.0296238
0.0301392
0.0282863
0.0255441
0.0230038
0.0217297
0.0212632
0.021485
0.0216965
0.0219912
0.0223907
0.0233203
0.0238754
0.0252172
0.0266641
0.0293117
0.0323953
0.036146
0.0406819
0.0461363
0.0535623
0.0627026
0.0689706
0.0679802
0.0611852
0.0542127
0.0485458
0.0443841
0.0413641
0.0396377
0.0398143
0.0431759
0.0478999
0.0546339
0.0619221
0.0701911
0.0774879
0.0860828
0.0973703
0.108542
0.119938
0.127576
0.134374
0.138111
0.142392
0.145524
0.148248
0.149648
0.150974
0.152392
0.0310512
0.0309795
0.0308791
0.0307579
0.0306108
0.0304407
0.0302427
0.0300161
0.0297555
0.0294621
0.0291302
0.0287582
0.0283375
0.0278605
0.027313
0.026681
0.0259473
0.0251023
0.0241465
0.0218631
0.0199684
0.017987
0.0160839
0.01455
0.0134771
0.0128494
0.0126081
0.0113172
0.0117068
0.0120794
0.0124332
0.0128594
0.0133127
0.0138743
0.0144511
0.015095
0.0157718
0.0165099
0.0172942
0.0181527
0.019088
0.0201285
0.0206331
0.0209357
0.0214855
0.0221563
0.0231721
0.0243622
0.0259011
0.0277406
0.0296827
0.0324044
0.0320694
0.0279281
0.0229438
0.0201022
0.0189296
0.0189786
0.0192448
0.0200104
0.0202416
0.0214604
0.0217339
0.0231824
0.024198
0.0268612
0.0298308
0.0335964
0.0378693
0.0452924
0.0528459
0.0637084
0.0705871
0.0688229
0.0616022
0.0545903
0.0490236
0.0449189
0.0419394
0.0400669
0.0397874
0.0423755
0.0475244
0.0549686
0.0639349
0.0748166
0.0856432
0.096663
0.109304
0.12161
0.129054
0.133022
0.137076
0.141118
0.145053
0.148741
0.15202
0.153949
0.154688
0.155554
0.0254658
0.0252312
0.0249699
0.0246925
0.0243969
0.0240834
0.0237494
0.0233952
0.0230191
0.0226222
0.0222024
0.0217599
0.0212917
0.0207959
0.0202668
0.0196977
0.0190766
0.0183899
0.0176218
0.0167627
0.0158201
0.0148045
0.0134786
0.0111376
0.00943143
0.00846324
0.00826019
0.00730576
0.0075261
0.00774867
0.00795025
0.00822029
0.0085053
0.00888152
0.00927052
0.0097252
0.0102083
0.0107532
0.011334
0.0119861
0.0127047
0.0135246
0.0144465
0.0155013
0.0166937
0.0180408
0.0195315
0.0209278
0.0225594
0.0244741
0.0262335
0.0277692
0.0287831
0.0254615
0.0197712
0.0176463
0.0171575
0.0173054
0.0177632
0.019229
0.0192853
0.0207563
0.020903
0.0223476
0.0228709
0.0249311
0.0268261
0.0301928
0.0341523
0.0405086
0.0501124
0.0582596
0.0646083
0.0631947
0.0580021
0.0523313
0.047886
0.0444579
0.0417644
0.0398839
0.0393499
0.0417036
0.0464092
0.0532178
0.062735
0.0741059
0.0874877
0.0952921
0.0989343
0.102936
0.107319
0.112105
0.117307
0.122913
0.128866
0.135074
0.141342
0.147345
0.152581
0.156372
0.0196242
0.0193297
0.0190161
0.0186921
0.0183587
0.018014
0.0176584
0.0172909
0.0169117
0.0165205
0.0161172
0.0157016
0.0152733
0.0148324
0.014378
0.0139095
0.0134245
0.0129191
0.0123846
0.0118081
0.0111735
0.0104687
0.00969963
0.00887372
0.00735142
0.00587808
0.00546196
0.00512529
0.00517016
0.00523533
0.00529701
0.00541062
0.00553602
0.0057224
0.00591708
0.00616128
0.0064239
0.0067347
0.00706798
0.00745627
0.00788916
0.00839361
0.00898481
0.0096823
0.0104959
0.0114407
0.0125162
0.0137155
0.0150063
0.016342
0.0176415
0.0188366
0.0194469
0.0198792
0.0203855
0.0211832
0.0188643
0.0172732
0.0170913
0.0190855
0.0185985
0.0204972
0.0204269
0.0212729
0.0217456
0.0227809
0.0257278
0.0297909
0.034848
0.0402152
0.0534665
0.056802
0.0565167
0.0564345
0.0552673
0.0490671
0.0445175
0.0414808
0.0392294
0.0376136
0.0363602
0.0364191
0.0390693
0.0450336
0.0544757
0.0605342
0.0627889
0.0656887
0.0687374
0.0722294
0.0762277
0.0808178
0.086064
0.0921109
0.0990872
0.107189
0.116556
0.127251
0.138942
0.150368
0.0143737
0.014108
0.0138313
0.0135489
0.013264
0.0129732
0.0126788
0.0123785
0.0120739
0.0117637
0.0114487
0.0111281
0.0108026
0.0104719
0.0101362
0.00979565
0.00945029
0.0090997
0.00874233
0.00837573
0.00799098
0.00757466
0.00711181
0.00660383
0.00605135
0.00493549
0.00384242
0.00403845
0.00405204
0.00402225
0.00399668
0.00400937
0.00403111
0.00408814
0.00415064
0.00424156
0.00434077
0.00446703
0.00460184
0.00476541
0.00494934
0.00516999
0.00543383
0.00576086
0.00615689
0.00663617
0.00720083
0.00785607
0.00858486
0.00936571
0.0101539
0.010913
0.0112649
0.0114578
0.0115949
0.0118088
0.00946814
0.00959907
0.0147001
0.0206125
0.0225668
0.0255826
0.0264287
0.0280422
0.0290674
0.0290952
0.0308665
0.029278
0.0287869
0.028926
0.031652
0.0334642
0.0330735
0.0328267
0.0326492
0.0324683
0.0322728
0.0320552
0.0315152
0.0301561
0.0290851
0.0296072
0.0308563
0.0313192
0.0317294
0.0322984
0.0333938
0.0350793
0.0368734
0.03899
0.0414666
0.0443941
0.0478316
0.0519971
0.0571063
0.063607
0.0721156
0.0837675
0.100424
0.125293
0.0103885
0.0102091
0.0100248
0.00983705
0.00965036
0.00946034
0.00927026
0.00907697
0.00888273
0.00868537
0.00848629
0.00828396
0.00807899
0.00787023
0.0076578
0.00744139
0.00722153
0.00699915
0.00677519
0.00655011
0.00632309
0.00609111
0.0058387
0.00553626
0.00515631
0.00451193
0.00270569
0.0029845
0.00347692
0.00345337
0.00339588
0.00338092
0.00335787
0.00336391
0.00336459
0.003384
0.00340098
0.00342998
0.00345568
0.00349184
0.00353198
0.00358759
0.00365875
0.00375322
0.00387454
0.00403183
0.00422857
0.00446615
0.00474143
0.00504136
0.00534683
0.00563551
0.00576287
0.00579736
0.0057618
0.0057318
0.0057823
0.00628957
0.00861141
0.010947
0.011477
0.0119758
0.0127212
0.013532
0.0141801
0.015059
0.0157902
0.016334
0.0168691
0.0167817
0.0153313
0.0156792
0.0154197
0.0147451
0.0143863
0.014075
0.0137924
0.0135798
0.01327
0.0130256
0.0127614
0.0127777
0.0129699
0.0130033
0.0128
0.0126728
0.0129073
0.0133885
0.013862
0.0144561
0.0151923
0.016089
0.0171315
0.0184127
0.0199876
0.0220596
0.0249074
0.0292281
0.0366542
0.0539218
0.00750333
0.00740221
0.00729581
0.00718516
0.0070733
0.00695684
0.00683857
0.00671527
0.00658942
0.00645804
0.00632324
0.00618227
0.00603669
0.00588401
0.00572541
0.00555897
0.0053852
0.00520184
0.00500843
0.00480319
0.00458759
0.00436151
0.00412226
0.00385869
0.00354931
0.00318457
0.00275578
0.000638857
0.000618588
0.00061332
0.00060669
0.000607365
0.000609437
0.000614669
0.000620264
0.000626348
0.000632411
0.000637497
0.000641085
0.000642454
0.000642455
0.000641151
0.000639426
0.000638102
0.000638142
0.000640106
0.000644176
0.000651014
0.000660487
0.000672943
0.000687142
0.000699378
0.000704799
0.000705108
0.00070167
0.000695768
0.000683672
0.000649545
0.000672563
0.000733417
0.000780286
0.000824325
0.000858455
0.000891226
0.00091874
0.00094641
0.000971185
0.00100788
0.00104763
0.00109388
0.00114319
0.00118108
0.0012133
0.00123602
0.00124349
0.00124204
0.00123294
0.00121667
0.00119516
0.00117003
0.00114483
0.00113424
0.00112301
0.00110729
0.00108731
0.00106339
0.0010385
0.00101774
0.000999781
0.000984182
0.000969962
0.000956387
0.000941699
0.000924999
0.000904903
0.000880375
0.000850296
0.000813765
0.000769872
0.000717689
0.000376873
0.0196669
0.0223962
0.0224854
0.0224883
0.022488
0.0224875
0.0224868
0.0224863
0.0224858
0.0224854
0.0224854
0.0224856
0.0224861
0.0224867
0.0224872
0.0224877
0.022488
0.0224884
0.0224886
0.000403021
0.0176242
0.022216
0.0224617
0.0224721
0.0224721
0.0224717
0.0224711
0.0224707
0.0224702
0.02247
0.0224704
0.0224714
0.0224729
0.0224744
0.0224759
0.0224772
0.0224781
0.022479
0.0224795
0.000427819
0.0161198
0.0219891
0.0224322
0.0224558
0.0224567
0.0224564
0.0224559
0.0224556
0.0224552
0.0224553
0.0224561
0.0224578
0.0224604
0.0224629
0.0224653
0.0224674
0.022469
0.0224703
0.0224711
0.000451212
0.0149563
0.0217302
0.0223967
0.0224395
0.0224417
0.0224416
0.0224412
0.022441
0.0224407
0.022441
0.0224422
0.0224447
0.0224482
0.0224519
0.0224551
0.022458
0.0224602
0.022462
0.0224632
0.00047321
0.0140185
0.0214488
0.0223546
0.0224226
0.0224269
0.022427
0.0224268
0.0224266
0.0224266
0.022427
0.0224287
0.022432
0.0224365
0.0224412
0.0224454
0.022449
0.0224519
0.0224541
0.0224556
0.000493886
0.0132074
0.0211481
0.0223057
0.0224051
0.0224121
0.0224126
0.0224126
0.0224126
0.0224127
0.0224134
0.0224156
0.0224196
0.0224251
0.0224308
0.022436
0.0224404
0.022444
0.0224466
0.0224485
0.000513245
0.0124531
0.0208272
0.0222496
0.0223866
0.0223974
0.0223984
0.0223985
0.0223987
0.022399
0.0224001
0.0224028
0.0224076
0.0224141
0.0224208
0.022427
0.0224322
0.0224364
0.0224396
0.0224417
0.000531396
0.0117425
0.0204879
0.0221863
0.022367
0.0223828
0.0223842
0.0223847
0.0223851
0.0223857
0.022387
0.0223903
0.022396
0.0224034
0.0224112
0.0224184
0.0224244
0.0224292
0.0224329
0.0224352
0.000548356
0.0110855
0.0201344
0.0221158
0.0223462
0.022368
0.0223703
0.0223711
0.0223717
0.0223726
0.0223743
0.0223781
0.0223846
0.0223931
0.022402
0.0224101
0.0224169
0.0224225
0.0224266
0.0224292
0.000564244
0.0104897
0.0197712
0.0220382
0.0223241
0.0223533
0.0223566
0.0223577
0.0223586
0.0223597
0.0223619
0.0223663
0.0223737
0.0223832
0.0223932
0.0224022
0.0224099
0.0224161
0.0224207
0.0224236
0.000579064
0.00995636
0.0194033
0.0219539
0.0223007
0.0223385
0.022343
0.0223445
0.0223458
0.0223473
0.0223498
0.0223549
0.0223631
0.0223737
0.0223848
0.0223948
0.0224034
0.0224102
0.0224153
0.0224184
0.000592925
0.00948182
0.0190352
0.0218632
0.0222759
0.0223237
0.0223297
0.0223317
0.0223333
0.0223352
0.0223382
0.0223439
0.022353
0.0223646
0.0223768
0.0223878
0.0223972
0.0224047
0.0224103
0.0224138
0.000605818
0.00906096
0.0186707
0.0217668
0.0222496
0.022309
0.0223167
0.0223191
0.0223211
0.0223235
0.022327
0.0223334
0.0223434
0.0223561
0.0223693
0.0223813
0.0223916
0.0223998
0.0224059
0.0224097
0.000617845
0.00868768
0.0183128
0.0216653
0.0222221
0.0222943
0.022304
0.022307
0.0223094
0.0223123
0.0223163
0.0223234
0.0223343
0.0223481
0.0223623
0.0223754
0.0223866
0.0223954
0.0224021
0.0224061
0.000628969
0.00835541
0.017964
0.0215594
0.0221932
0.0222796
0.0222917
0.0222953
0.0222982
0.0223016
0.0223062
0.022314
0.0223259
0.0223407
0.022356
0.0223702
0.0223822
0.0223917
0.022399
0.0224032
0.000639221
0.0080546
0.0176262
0.0214501
0.0221631
0.0222652
0.0222799
0.0222842
0.0222876
0.0222915
0.0222967
0.0223053
0.0223181
0.022334
0.0223505
0.0223656
0.0223785
0.0223888
0.0223965
0.022401
0.000648551
0.00778228
0.0173007
0.0213381
0.0221322
0.0222511
0.0222687
0.0222737
0.0222777
0.0222822
0.0222881
0.0222973
0.0223111
0.0223281
0.0223458
0.0223619
0.0223757
0.0223867
0.0223949
0.0223997
0.000657004
0.00753562
0.016989
0.0212244
0.0221004
0.0222375
0.0222582
0.022264
0.0222687
0.0222738
0.0222803
0.0222904
0.0223051
0.0223233
0.022342
0.0223592
0.0223739
0.0223856
0.0223943
0.0223994
0.000664448
0.00731242
0.0166922
0.0211103
0.0220683
0.0222245
0.0222486
0.0222553
0.0222607
0.0222664
0.0222736
0.0222845
0.0223002
0.0223195
0.0223394
0.0223577
0.0223733
0.0223856
0.0223949
0.0224003
0.000671122
0.00711074
0.0164115
0.020997
0.0220363
0.0222124
0.02224
0.0222479
0.022254
0.0222604
0.0222683
0.02228
0.0222967
0.0223171
0.0223382
0.0223575
0.022374
0.022387
0.0223969
0.0224026
0.00067655
0.00692914
0.0161482
0.020886
0.0220048
0.0222016
0.0222329
0.0222422
0.0222489
0.0222559
0.0222645
0.022277
0.0222947
0.0223162
0.0223385
0.0223589
0.0223762
0.02239
0.0224004
0.0224064
0.00068113
0.00676656
0.0159041
0.0207791
0.0219745
0.0221925
0.0222276
0.0222383
0.0222458
0.0222534
0.0222626
0.0222759
0.0222946
0.0223172
0.0223406
0.0223621
0.0223803
0.0223948
0.0224058
0.022412
0.000684664
0.00662211
0.0156802
0.0206782
0.0219459
0.0221856
0.0222248
0.022237
0.022245
0.0222532
0.022263
0.022277
0.0222967
0.0223204
0.0223448
0.0223674
0.0223866
0.0224017
0.0224132
0.0224198
0.000686673
0.00648862
0.015471
0.0205835
0.0219194
0.0221815
0.0222252
0.0222388
0.0222472
0.0222558
0.022266
0.0222807
0.0223013
0.0223261
0.0223516
0.0223752
0.0223953
0.0224111
0.0224231
0.02243
0.000689627
0.00634955
0.0152565
0.0204903
0.0218947
0.0221813
0.0222298
0.0222445
0.022253
0.0222618
0.0222723
0.0222875
0.0223089
0.0223346
0.0223612
0.0223858
0.0224067
0.0224233
0.0224357
0.0224431
0.000696017
0.00620447
0.0150323
0.0201349