/*--------------------------------*- C++ -*----------------------------------*\
  =========                 |
  \\      /  F ield         | OpenFOAM: The Open Source CFD Toolbox
   \\    /   O peration     | Website:  https://openfoam.org
    \\  /    A nd           | Version:  7
     \\/     M anipulation  |
\*---------------------------------------------------------------------------*/
FoamFile
{
    version     2.0;
    format      ascii;
    class       volScalarField;
    location    "0.125";
    object      p;
}
// * * * * * * * * * * * * * * * * * * * * * * * * * * * * * * * * * * * * * //

dimensions      [1 -1 -2 0 0 0 0];

internalField   nonuniform List<scalar> 
48560
(
25764.7
25776.3
25785.2
25792
25797.2
25801
25803.9
25806.1
25807.7
25809
25810
25810.9
25811.6
25812.3
25813
25813.7
25814.6
25815.6
25816.8
25818.3
25820
25822.1
25824.7
25827.9
25831.7
25836.3
25841.5
25846.8
25854.7
25865
25877.6
25892.7
25910.5
25931.1
25955.7
25985.7
26021.6
26065.2
26116.8
26174.2
26239
26313.9
26396.5
26481.9
26579.4
26685.4
26813.5
26955.4
27061.5
27224.6
28083.2
32823.8
35725
38068.7
40291.5
42113.2
43912.4
45503.6
47053
48409.5
49614.4
50611.6
51050.3
51152.2
51271.8
51075.8
50941.6
50839.4
50678.6
50529.3
50340.7
50107.9
49796.1
49384.2
48813.8
48024.3
46893.8
45108.9
41889
37748.2
36622.4
37703
37703
37386
36736.1
36103.3
35863.4
35876.9
36106.4
36668
37400.4
38167.2
38907.6
39602.6
40226.1
40771
41225.8
41586.9
41838.4
41934.7
25804
25815.8
25824.6
25830.8
25835.2
25838
25839.9
25841
25841.6
25841.9
25842.1
25842.1
25842.2
25842.2
25842.2
25842.3
25842.5
25842.9
25843.4
25844.3
25845.4
25846.8
25848.7
25851
25853.9
25857.5
25861.5
25865.6
25871.7
25880
25890.8
25904.4
25921.2
25941.5
25965.2
25993.2
26027.9
26068.9
26114.7
26166
26227.1
26301.5
26383.5
26487.8
26612.5
26699.1
26734.7
26765.4
26882.1
27415.8
29242.6
32841.4
35375.9
37786.4
39875
41783
43544.3
45186.3
46729.5
48121.6
49346.1
50351.8
50840.5
51059.2
51142
50957.7
50876.2
50771.1
50609.2
50448.5
50231.5
49964.9
49604.6
49126.3
48464.2
47545.9
46183.9
44011
41067.7
38912.3
38347.3
38053.6
37762.6
37317.5
36932.7
36808.6
36810
36898.7
37175.1
37604.8
38127.9
38737.6
39360
39965.2
40514.7
40995.1
41381.2
41664.6
41838.3
41896.2
25846.2
25858.7
25867.7
25873.7
25877.5
25879.6
25880.7
25881.1
25881.1
25881
25880.5
25879.7
25878.6
25877.2
25875.7
25874.2
25872.8
25871.7
25871
25870.6
25870.5
25870.6
25871
25871.9
25873.3
25875.6
25878.6
25882
25887.7
25895.3
25905.2
25918.1
25933.4
25950.1
25968.3
25992.1
26024.6
26065.4
26109.3
26162.3
26233.5
26315.2
26390.3
26462
26533.9
26601.8
26682.7
26832
27204
28130.5
30069.2
32960.2
35403.7
37713.6
39760.1
41638.8
43395.1
45018.3
46562.2
47949.4
49173.7
50132.2
50632.2
50856.3
50884.4
50783.4
50741
50617.4
50475.9
50310.1
50098.2
49826.8
49458.3
48963.3
48277.6
47308.1
45851.1
43615.8
40872.8
39112.1
38604.4
38213
37794.1
37335.2
37004.7
36937.1
36949.1
37060.6
37343
37768.2
38299.3
38875.3
39465.9
40034.3
40563.8
41031.9
41412.8
41684.1
41840
41889.5
25895.2
25909
25918.2
25923.5
25926.2
25927.2
25927.3
25927.2
25926.5
25925
25922.8
25920
25916.7
25913.1
25909.6
25906.3
25903.6
25901.6
25900.1
25899.3
25898.9
25898.8
25898.9
25899.2
25899.9
25900.9
25902.2
25903.5
25905.6
25908.6
25914.2
25924
25937.7
25953.1
25971.3
25997.3
26034.3
26083.3
26132.1
26177
26220
26267.2
26322.7
26378.1
26432.7
26502.5
26631.3
26868
27415.4
28555.8
30501.5
33045.5
35300
37535.6
39494.7
41389.4
43110.9
44762.6
46290.2
47697.7
48909.4
49857.4
50377.6
50603.7
50616.5
50573
50540.6
50414
50288.7
50102.9
49878.1
49572.5
49170.8
48624.1
47871.2
46797.1
45218.2
43068
40916.4
39588.3
38931
38407
37960.9
37634.6
37506
37494.3
37524.2
37652.3
37909.8
38276
38735.7
39248.8
39779.3
40293.7
40764.3
41168.9
41489.6
41714.4
41845.5
41888
25944
25959.1
25968.7
25974.2
25976.7
25977.6
25977.7
25977.4
25976.6
25974.9
25972.4
25969.2
25965.5
25961.2
25956.6
25951.7
25946.8
25941.8
25937
25932.6
25928.6
25925.2
25922.5
25920.3
25918.8
25917.8
25917.3
25917.1
25917.6
25920.3
25927
25939.4
25958.2
25980.8
26004.1
26028.3
26052.5
26077.4
26108.1
26142.8
26183.2
26223.7
26265.2
26312.1
26375.4
26479.3
26658.7
27018.7
27721.4
28956.8
30808.8
33107
35259.2
37386
39316.3
41171.6
42884.6
44523.7
46049.5
47449.7
48645.4
49562.6
50087.3
50314.7
50341.1
50331.3
50301.5
50199.2
50085.9
49903.5
49681.3
49366.7
48952.9
48378.6
47584.6
46444.4
44823.3
42802.1
40994.2
39881.2
39160.1
38560
38122.9
37854.6
37782.4
37781.5
37824.4
37961.6
38216.2
38571
39001.4
39471
39957.5
40431.8
40872.8
41249.7
41539.7
41734.7
41847.6
41885
25994.8
26013.4
26025.5
26032.6
26036
26037.4
26037.6
26037.3
26036.2
26033.8
26030.2
26025.2
26019
26011.6
26003.3
25994.3
25984.8
25975.3
25966.4
25958.7
25952.9
25949.1
25947.4
25947
25947.6
25949.9
25953.6
25956.5
25959.6
25964
25968.5
25974.3
25981.2
25991.7
26006.7
26025.3
26045.1
26065.2
26087.6
26115.1
26144
26175.9
26214.8
26269.6
26354.4
26488.8
26735.8
27193.2
27993.1
29255.3
31003.3
33126.2
35187.3
37213.6
39098.1
40923.9
42618.2
44254.7
45770.4
47168.7
48346.1
49247.9
49774.9
50015.7
50064.8
50064.5
50036.7
49955.9
49843.4
49662.1
49431.1
49100.3
48662.5
48048.9
47201.3
46003.3
44410.2
42629.5
41128.9
40109.8
39353.6
38755.7
38375.3
38195.6
38159.8
38161.9
38212.3
38348.7
38583.5
38906
39297.5
39727.6
40173.3
40603.2
40994.8
41326.1
41579.4
41748.9
41848.1
41881.5
26052.7
26074.8
26089
26096.6
26099.9
26100.6
26100.4
26099.2
26096.5
26092.2
26086.6
26079.8
26072.5
26064.9
26057.7
26050.8
26044.3
26037.7
26031
26024.5
26018.1
26012.1
26006.2
26000.7
25995.6
25991.3
25988.6
25988
25988
25989.5
25991.9
25996.5
26002.3
26009.8
26018.5
26028.9
26040.8
26055
26071.6
26091.3
26115.3
26147.6
26193.3
26260
26363.5
26542.4
26855.2
27387.7
28238.9
29486.1
31132.2
33126.9
35100.7
37042.6
38886.4
40674.3
42355.6
43978.2
45488.1
46873
48033.2
48917.4
49449.9
49709.7
49785.6
49790.3
49770.8
49708.7
49601.5
49428.1
49194.1
48856.4
48401
47759.4
46875.2
45655.8
44128.7
42547.8
41246.8
40283.8
39525.7
38958.3
38627.2
38495.3
38472.9
38478.3
38533.4
38666
38886.8
39185.5
39545.3
39940.6
40346.9
40739.6
41095
41389.9
41612.1
41760.3
41848.1
41878.3
26113.7
26143
26164.3
26178.2
26186.7
26191.1
26192.9
26193.3
26193.1
26192
26189.6
26185.5
26179.4
26171.2
26161.2
26149.4
26136.8
26124.2
26111.9
26099.9
26088.4
26077.4
26067
26057.4
26048.7
26040.9
26034.8
26030.7
26027.5
26026.1
26025.4
26025.5
26025.9
26027.3
26029.9
26034.4
26041
26051
26064
26081.8
26105.9
26140.7
26192.1
26274
26408.2
26631.8
26998.6
27580
28450
29659.4
31212.6
33107.8
34993.5
36857.1
38658.3
40410
42075.8
43684.9
45186.2
46557.6
47702.1
48575.7
49117
49398.6
49497.5
49509.1
49496.7
49446.7
49344.2
49176.5
48937.4
48590.9
48115.1
47446
46534.5
45326.6
43909
42518.7
41354.6
40435.1
39706.2
39189.6
38908.9
38808.3
38791.4
38798.6
38852.8
38977.8
39181.4
39455.2
39783.2
40142.9
40511.7
40865.1
41182.1
41443.6
41639.1
41769.5
41847.7
41875.2
26206.6
26248.7
26281.2
26304.7
26320.7
26330.6
26336
26338.4
26339.1
26339.2
26338.4
26336.2
26332.2
26326
26317.3
26306
26292.3
26276.3
26258.3
26238.8
26218.1
26196.8
26175.3
26154.2
26133.8
26114.7
26097.8
26084.6
26072.4
26062.8
26055.7
26051.5
26049.1
26048.2
26048.1
26048.8
26051.1
26056.5
26066.4
26082.9
26109
26150.2
26215.2
26319.2
26485
26747.8
27154.7
27764
28630.2
29792
31260.4
33067.2
34869.1
36662.2
38418.6
40135.2
41783.8
43377.6
44868.9
46224.2
47355
48222
48777.2
49083.6
49206.4
49227.4
49221.5
49181.4
49086.2
48925
48684.2
48332.3
47841.3
47154.8
46235.1
45065.4
43761.1
42516
41452.4
40579.5
39893.8
39425
39179.9
39095.2
39081.6
39090.1
39142.4
39259.6
39447.1
39698.3
39997.4
40324.9
40658.4
40976.4
41258.5
41489.9
41662
41777.1
41847.1
41872.2
26329
26391
26442.2
26482.4
26511.8
26532
26544.5
26551.3
26554.1
26554.7
26554.5
26552.9
26548.7
26541.4
26530.3
26515.1
26495.8
26472.6
26445.8
26415.9
26383.5
26349.3
26314.2
26278.8
26244
26210.3
26179.3
26154.1
26130
26109.5
26093.8
26082.8
26075.7
26071.7
26070.1
26069.9
26070.8
26074.5
26083.6
26101.3
26132.2
26183
26264.1
26390.9
26586
26880.7
27315.7
27936.4
28785.6
29896
31285.9
33007.5
34727.1
36453.5
38163.4
39845.8
41475.5
43053.5
44532.7
45871.8
46991.1
47856
48428.1
48761.6
48910.1
48943.9
48942.4
48910.4
48823.3
48668.1
48426.7
48070
47566.9
46871.5
45961.2
44851.8
43662.7
42534.4
41550.7
40729.5
40092.9
39667.9
39448.9
39373
39360.4
39368.8
39417
39524.7
39695.4
39924
40195
40491.1
40790.9
41075.2
41325.5
41530
41681.7
41783.7
41846.4
41869.3
26466.6
26553.1
26628.2
26690.3
26738.6
26774
26797.7
26811.9
26818.9
26821.4
26821.6
26820.7
26817.1
26809.3
26796.2
26777
26751.6
26719.9
26682.5
26639.9
26593.1
26542.9
26490.5
26437.1
26383.7
26331.4
26282.5
26241.6
26202.3
26168.6
26142.1
26122.7
26109.4
26101.2
26097.4
26096.4
26096.9
26100.6
26110.9
26132.1
26170.1
26232.8
26331.4
26480.8
26702.4
27023.1
27476.2
28097.5
28922.6
29980.7
31296.7
32932.5
34570.4
36231
37892.5
39540.8
41149.6
42711.4
44176.9
45500
46609.7
47475.9
48068.1
48431.5
48609.5
48660
48661.6
48637.3
48559.4
48410.9
48171.8
47813.6
47305.3
46612.2
45727.4
44687.8
43603.2
42571.5
41656.9
40889.1
40298.9
39907.9
39705.6
39633.8
39621.1
39628.6
39672.1
39769.8
39924
40130.9
40375.2
40641.6
40909.9
41162.9
41384.5
41565
41698.8
41789.4
41845.7
41866.8
26604.6
26717.8
26820.8
26909.9
26983.1
27039.9
27080.8
27107.7
27123.1
27130.1
27132.1
27132.1
27130
27123.6
27110.6
27089.5
27059.6
27020.6
26972.3
26915.5
26852.3
26784
26711.3
26636
26559.6
26483.9
26411.8
26350.2
26290.9
26239.7
26198.7
26168
26146.5
26133.1
26126.4
26124.3
26124.6
26128.6
26141
26167.1
26214
26290.5
26407.9
26580.4
26826.6
27168.6
27633.3
28249.4
29046.6
30053.3
31298.7
32846.3
34400.6
35993.9
37604.2
39217.5
40803.9
42349
43799.8
45107.5
46209.2
47079.4
47693.7
48090
48301.7
48373.1
48379.8
48362.6
48294.4
48153.7
47919.3
47562.9
47056.5
46376.7
45530.6
44565.9
43576
42626.3
41775.7
41060.2
40511.3
40145.9
39953.1
39881.5
39867.4
39873.2
39911
39997.8
40135.7
40321
40539.8
40777.8
41016.6
41241
41436.6
41595.8
41714
41794.4
41845.2
41864.4
26726.4
26864.3
26995.2
27114
27217.2
27302.8
27369.7
27418.2
27450.1
27468.4
27476.6
27478.8
27478.6
27475.2
27465.2
27445.6
27414.6
27371.1
27314.1
27244.8
27165.6
27077.6
26981.3
26879.7
26775.1
26670.4
26569.7
26482.5
26399.1
26326.8
26268.4
26223.8
26192
26171.1
26160
26156.2
26156.1
26160
26173.6
26204.2
26259.9
26350.1
26486
26680.3
26949.4
27311.5
27785.5
28394.1
29163.1
30119.8
31296.9
32752.9
34220.4
35742.7
37297.9
38873.9
40436.4
41964.6
43400.3
44693.5
45788.6
46664.2
47301.9
47733.7
47984.2
48082.5
48097.7
48087.4
48029.8
47898.8
47672.7
47323.2
46826.8
46170.9
45372.6
44482.4
43574
42698.2
41908.7
41242.3
40727.7
40379.8
40190.2
40115.2
40098.3
40102
40133.7
40209.2
40330.8
40495.3
40689.6
40900.9
41112.3
41310.5
41483
41623.2
41727.6
41799.1
41844.7
41862.4
26829.3
26987
27142.1
27289.1
27424.1
27543.5
27644.3
27724.7
27784.2
27824.2
27847.3
27857.7
27860.3
27859.7
27854.1
27839.3
27811.8
27769.2
27709.8
27633.4
27540.3
27431.4
27309.2
27177.1
27039.4
26900.5
26766.5
26650.4
26535.6
26433.7
26349.4
26283.6
26235.9
26204.3
26187.4
26181.1
26180.7
26184.1
26198.6
26232.8
26296.5
26400.7
26557
26777.1
27071.2
27450.3
27930.2
28533.2
29276.8
30185.6
31294
32655.9
34032.6
35477.5
36972.2
38507
40043.7
41554.7
42975.3
44255.3
45345.4
46227.4
46888.9
47358.1
47653.1
47786.8
47816.7
47812.8
47766.7
47648.2
47434.1
47097.2
46619
45995.7
45250.7
44432.3
43595.3
42787.7
42056.3
41434.4
40947.8
40610.3
40418.4
40336.5
40314.6
40316
40341
40404.9
40510.4
40654.6
40825.8
41012.2
41198.3
41372.6
41524.3
41647.7
41739.9
41803.4
41844.5
41860.7
26914.9
27086.3
27259.5
27429.4
27592.4
27744.9
27882.7
28002.3
28100.4
28175.4
28227.4
28258.7
28273.4
28277.3
28276.9
28270.1
28251.5
28216.2
28160.6
28082
27979.3
27853.2
27706.1
27542
27366.7
27186.5
27009.7
26852.6
26697.7
26560.5
26446.7
26357.3
26292
26247.2
26221.4
26210.8
26209.4
26212.1
26226.2
26261.8
26329.6
26441.6
26609.8
26846.5
27162.7
27568
28069.3
28670.4
29391.1
30256.2
31294.5
32560.6
33842.5
35202.1
36628.5
38116
39624.5
41118.8
42526.2
43794.8
44880.7
45768.5
46452.3
46958.7
47303.1
47483.2
47538.8
47539.9
47506.5
47404.3
47206.6
46889
46436.4
45852.5
45163
44412.2
43640.5
42895.4
42217.8
41635.4
41171.1
40838.4
40639.6
40546.3
40516.5
40515.5
40533.6
40585.6
40675.2
40799.8
40949.1
41112.2
41275.4
41428.2
41561.2
41669.7
41751.1
41807.5
41844.5
41859.2
26988.4
27168.2
27352.7
27537.9
27721
27899.4
28069.2
28226.6
28366.8
28486
28580.8
28649.7
28693.4
28715.7
28722.8
28722.8
28716.1
28694.8
28652.3
28582.9
28482.6
28349.3
28183.5
27989.1
27772.8
27543.5
27312.8
27102.5
26895.1
26712.2
26561.1
26442.1
26355.6
26294.7
26257.7
26238.9
26234.6
26237.4
26251.5
26288.2
26359.5
26477.9
26655.9
26905.4
27236.6
27657.8
28174.9
28790.3
29505.7
30331.8
31302.9
32471.4
33652.7
34916.1
36263.1
37694.2
39170.5
40648
42042.6
43301.3
44386.6
45281.4
45988
46531.7
46929.3
47166.4
47262.1
47272.7
47252.5
47170.2
46993.6
46701.7
46281.5
45741.5
45107.5
44416.6
43706.9
43020.6
42392
41844.8
41398
41065.6
40855.1
40746.3
40705.3
40700.1
40711.4
40751.8
40825.8
40931.8
41060.6
41202.4
41344.5
41477.9
41594.4
41689.6
41761.3
41811.5
41844.7
41858.1
27054.5
27238.8
27429.7
27623.4
27818.2
28012.8
28206.2
28393.7
28570.3
28732.9
28876.8
28997.1
29089.9
29153.4
29189.2
29202.9
29204.3
29199.4
29177.9
29129.7
29045.9
28919.5
28746.5
28527.7
28269.1
27982.4
27684.3
27404.9
27130.2
26889.4
26691.7
26534.8
26421.2
26341
26292.6
26266.4
26256.8
26259.7
26274.9
26310
26381.9
26503.9
26689.3
26949.8
27295
27731.4
28262.2
28887.3
29605.4
30415.6
31325.4
32397.8
33477.1
34635.5
35889.5
37250.5
38687.4
40149.5
41539.1
42791.7
43876.8
44775.8
45500
46075.9
46525
46827.4
46980.9
47015.7
47008.8
46948.8
46798.8
46538.5
46155.8
45662.4
45082.3
44446.3
43793.1
43160.6
42576.5
42060.9
41628.4
41293.1
41066.7
40938.4
40882.3
40869.6
40874.5
40903.6
40962.6
41050.9
41160.7
41282.9
41406.2
41522.4
41624
41707.4
41770.7
41815.3
41845.2
41857.4
27116
27302.9
27497.2
27695.4
27896.1
28099.7
28306.9
28512.8
28712.6
28905.8
29089.4
29258.5
29407
29528.8
29619.2
29676.2
29702.8
29708.5
29706.6
29687.4
29635.7
29537.3
29379.4
29154.1
28861.1
28511.4
28129
27759.4
27399.3
27084.4
26831.7
26629.7
26485.7
26383.4
26322.4
26290.1
26278.8
26279.5
26291.2
26324.4
26395.7
26519.2
26709.1
26977.3
27334
27784.4
28330.2
28967.6
29689.8
30487.5
31357.2
32341.2
33310.3
34346.1
35486.5
36759.6
38146.2
39591
40974.2
42221.8
43314.5
44223.8
44970.8
45582.9
46086
46460.9
46691.2
46775.9
46779.2
46743.4
46626.3
46402.2
46061.2
45615.2
45084.9
44501.5
43900.8
43317
42773
42285.2
41864.6
41524
41277.7
41125.2
41048.8
41024.1
41023.4
41041.6
41086.2
41157.8
41250.1
41354.6
41461.2
41562
41650.6
41723.5
41779.3
41818.9
41845.8
41856.9
27173.4
27362.3
27559.1
27760.4
27964.9
28173.4
28385.3
28598.3
28809.7
29019
29225.6
29427
29619.4
29797.6
29954.5
30082.5
30174.4
30227.3
30246.2
30246.8
30233.8
30181.5
30064.6
29859
29547.8
29133.8
28648.4
28165.4
27704.3
27294.7
26979.7
26725.1
26547
26419.6
26343.6
26303.1
26290
26289.5
26297.8
26329.3
26399.5
26523.1
26715.2
26988.4
27354
27816.7
28377
29029.5
29762.7
30559.1
31401.1
32314.1
33193.9
34114.1
35124
36278.7
37589.5
39014.9
40416.7
41670.4
42768.7
43683.7
44440
45072.1
45612.2
46051.8
46372.7
46540.9
46572.8
46560.7
46479.3
46296
45999.3
45599.5
45114
44577.3
44022.4
43481.1
42972.1
42509.2
42099.7
41754.3
41488.8
41308.5
41207.1
41165.8
41157.7
41166.6
41198.1
41254.5
41331.1
41419.7
41511.3
41598.6
41675.5
41738.9
41787.7
41822.6
41846.7
41856.8
27227.1
27418
27617.2
27821.3
28029.3
28240.8
28454.9
28670.8
28887.5
29104.8
29322.3
29539.2
29754.5
29965.7
30169.1
30358.3
30524.3
30655.5
30742
30781.3
30786.8
30778.5
30722.7
30577.5
30298.8
29852.4
29252
28610.4
28036.6
27508.3
27121.2
26812.7
26601
26449.3
26359.9
26311.7
26295
26293.3
26299.5
26328.5
26396.5
26519
26712.1
26988.5
27358.4
27828.7
28399.7
29064.8
29809.6
30609.9
31435.4
32284.4
33053.9
33828.4
34685.8
35700.4
36914.8
38306.9
39714.2
40974.4
42098.1
43033.2
43814.8
44490.1
45083.7
45605.7
46031.3
46310.1
46407.5
46411.4
46366.5
46228.3
45974.6
45616.5
45175.5
44683.3
44172
43669
43191.1
42750.5
42352.3
42004
41708.9
41493.1
41359.2
41296
41277.2
41278.9
41299.7
41343.2
41405.7
41480.5
41559.4
41634.8
41701.3
41755.8
41797.5
41827.5
41848.5
41857.5
27276.3
27469.2
27670.8
27877.4
28088
28301.9
28518.3
28736.4
28955.8
29176.1
29397
29618.2
29839.5
30060.2
30279.8
30496.9
30708.6
30909.5
31089.5
31233
31322.8
31353.5
31353.1
31303.9
31115.5
30684.6
29933.4
29047.8
28356.6
27717.5
27261.7
26906.3
26661.1
26485.9
26382.9
26325.4
26303.8
26299.6
26303.8
26330.2
26394.8
26513.7
26704.1
26980.3
27351.9
27825.8
28403.4
29078.6
29835.9
30649
31480.7
32324.4
33068.4
33761.1
34478.1
35319.5
36363.7
37654.6
39120.6
40431.2
41550.5
42500.7
43287
43964.2
44567
45119.1
45618
46031.7
46246.3
46293.8
46281.7
46186.4
45970.6
45650.9
45244.9
44790.3
44311.2
43838.5
43386.8
42964.6
42574.1
42217.7
41918.5
41673.8
41502.4
41411.4
41380.2
41377.3
41389.1
41421.5
41472.8
41536.7
41605.4
41671.5
41729.5
41776.2
41811.1
41835.9
41853.3
41860.9
27320.8
27515.9
27719.7
27928.3
28140.9
28356.6
28574.9
28795.1
29017
29240.1
29464.3
29689.2
29914.9
30141.4
30369.2
30598.3
30828.9
31059.6
31288.3
31507.4
31699.3
31832.3
31882.3
31882.2
31803.4
31493.7
30721.7
29484.8
28690.8
27927.3
27378.7
26980.5
26698.7
26510.4
26392.2
26327.3
26299.7
26293.1
26294.2
26312.5
26368.5
26478.2
26662.3
26936.2
27307.6
27784.5
28368.5
29052.4
29820.6
30645.2
31482.8
32300.2
32972.3
33530
33990.5
34510.9
35344.4
36623.2
38133.4
39484.7
40630.7
41646.5
42467.4
43195.8
43867
44516.9
45171.5
45767.7
46148.2
46286.1
46295
46236.4
46069.9
45786
45418.3
44991.6
44539.7
44087.7
43650.1
43239.4
42863.7
42525.8
42194
41889.4
41650.8
41513
41461.8
41454.3
41460.2
41484.7
41528
41584
41646.1
41706.3
41759.2
41800.9
41830.9
41851.1
41864.8
41870.6
27359.3
27556.5
27762.2
27972.3
28186.5
28403.9
28624.5
28847.3
29072.2
29298.7
29526.7
29755.7
29985.5
30215.2
30443.8
30670.1
30894
31116.8
31340.4
31567.1
31797.4
32026.8
32235.7
32376
32405.7
32344.2
31717.8
29782.9
28867.7
28067.5
27445.9
27040.6
26729.9
26537.8
26408.5
26346.1
26319
26315.3
26316.6
26333.5
26382.8
26490.9
26679.6
26948.7
27312.6
27787.2
28370.9
29057
29827.8
30656.4
31501.7
32350.2
33063.3
33620.4
34062.5
34536.7
35243.3
36284.6
37600.4
39095.8
40319.7
41318.1
42136.4
42857.5
43499.8
44118.6
44741.7
45379.3
45967.5
46243.6
46277.6
46242.6
46083.5
45822.3
45468.1
45059.6
44625.3
44195.3
43785.8
43397.9
43030.4
42665.4
42338.8
42044.7
41786.4
41608.6
41527.6
41511.7
41512.8
41530.6
41567.5
41618.5
41676.6
41734
41785.3
41826.3
41855.5
41873.3
41884.6
41889.2
27391.3
27591.2
27799.5
28011.5
28227.7
28446.5
28668.4
28891.9
29117.8
29344.7
29573.9
29803.7
30034.4
30263.4
30490.9
30717.3
30945.8
31176.9
31412.1
31652.8
31904.7
32174.9
32449.9
32678.1
32762
32743.7
32318.6
30135.3
29089.5
28229.9
27544
27108.5
26772.8
26562.5
26418.4
26343.9
26309.3
26302.8
26303.7
26318.5
26363.2
26454.6
26612
26862.9
27221.9
27686.7
28262.6
28943.1
29710.3
30538
31379.2
32229
32976.6
33593.3
33967.7
34052
34042.4
34062.9
35556
37715.9
39125.6
40213.1
41078.7
41857.4
42554.4
43243.3
44051.8
44958.8
45959.4
46437.2
46521.7
46508.5
46377.9
46103
45749.2
45361.1
44938.3
44522.5
44123.4
43730.7
43377.9
43046.6
42717.2
42389.6
42037.2
41729.3
41571.7
41529.3
41527.7
41549.9
41589.4
41636.7
41689.9
41744.8
41795
41838.1
41871.7
41895.3
41908.2
41911.5
42056.9
42058.3
42057.1
42057.7
42057.6
42057.7
42057.8
42057.9
42058
42058.1
42058.2
42058.3
42058.3
42058.4
42058.4
42058.5
42058.5
42058.5
42058.5
42058.5
42056
42057.8
42056.7
42057.4
42057.3
42057.5
42057.6
42057.9
42058.1
42058.3
42058.4
42058.6
42058.7
42058.8
42058.9
42059
42059
42059.1
42059.1
42059.1
42055.7
42056.8
42055.8
42056.5
42056.6
42057
42057.3
42057.8
42058.3
42058.7
42059
42059.3
42059.5
42059.8
42060
42060.1
42060.3
42060.4
42060.4
42060.4
42055.3
42055.9
42055
42055.7
42055.9
42056.5
42057.1
42057.7
42058.4
42059
42059.5
42060
42060.4
42060.7
42061
42061.3
42061.5
42061.6
42061.7
42061.8
42054.5
42054.8
42053.9
42054.7
42055.1
42055.9
42056.8
42057.7
42058.6
42059.4
42060.2
42060.8
42061.4
42061.9
42062.4
42062.7
42063
42063.3
42063.4
42063.6
42053.1
42053.2
42052.5
42053.4
42054.1
42055.2
42056.4
42057.6
42058.9
42060
42061
42061.9
42062.7
42063.5
42064.1
42064.7
42065.1
42065.4
42065.7
42065.9
42051.1
42051.2
42050.7
42051.8
42052.8
42054.3
42055.9
42057.6
42059.2
42060.7
42062
42063.3
42064.4
42065.4
42066.3
42067
42067.6
42068.1
42068.4
42068.6
42048.4
42048.7
42048.4
42049.8
42051.3
42053.2
42055.3
42057.5
42059.6
42061.5
42063.2
42064.9
42066.4
42067.7
42068.8
42069.8
42070.6
42071.2
42071.6
42071.9
42045.1
42045.6
42045.7
42047.5
42049.5
42052
42054.7
42057.5
42060.1
42062.5
42064.7
42066.8
42068.7
42070.4
42071.8
42073.1
42074.1
42074.9
42075.3
42075.7
42041.1
42042
42042.5
42044.8
42047.4
42050.6
42054
42057.5
42060.6
42063.6
42066.4
42069
42071.3
42073.4
42075.3
42076.8
42078.1
42079
42079.6
42079.9
42036.5
42037.7
42038.8
42041.7
42045.1
42049.1
42053.3
42057.5
42061.3
42064.9
42068.3
42071.5
42074.4
42076.9
42079.1
42081
42082.5
42083.6
42084.3
42084.7
42031.1
42032.8
42034.5
42038.2
42042.4
42047.4
42052.5
42057.6
42062.1
42066.5
42070.6
42074.3
42077.8
42080.8
42083.5
42085.7
42087.4
42088.8
42089.6
42090.1
42025
42027.3
42029.7
42034.3
42039.6
42045.6
42051.8
42057.7
42063.1
42068.3
42073.1
42077.6
42081.6
42085.2
42088.3
42090.9
42092.9
42094.5
42095.4
42096
42018.1
42020.9
42024.2
42029.9
42036.4
42043.7
42051
42058
42064.4
42070.4
42076
42081.2
42085.9
42090.1
42093.6
42096.6
42099
42100.8
42101.8
42102.5
42010.2
42013.7
42018
42025.1
42033
42041.7
42050.4
42058.4
42065.8
42072.9
42079.4
42085.4
42090.7
42095.5
42099.6
42103
42105.7
42107.7
42108.9
42109.6
42001.1
42005.5
42011
42019.8
42029.3
42039.7
42049.8
42059
42067.6
42075.7
42083.2
42090
42096.2
42101.6
42106.2
42110.1
42113.1
42115.4
42116.8
42117.5
41990.2
41996.2
42003.1
42014.1
42025.4
42037.7
42049.5
42059.9
42069.8
42079.1
42087.6
42095.4
42102.3
42108.4
42113.6
42117.9
42121.3
42123.9
42125.4
42126.2
41977
41985.5
41994.2
42007.8
42021.3
42035.8
42049.3
42061.2
42072.5
42083
42092.7
42101.4
42109.2
42116
42121.8
42126.6
42130.4
42133.2
42134.9
42135.8
41961.2
41973.4
41984.1
42001.1
42017.1
42034.1
42049.3
42062.9
42075.7
42087.6
42098.5
42108.3
42117
42124.6
42131
42136.3
42140.5
42143.6
42145.4
42146.4
41942.6
41959.6
41972.7
41994.1
42012.8
42032.7
42049.7
42065.1
42079.7
42093.1
42105.3
42116.2
42125.8
42134.2
42141.3
42147.1
42151.7
42155
42157
42158.1
41919.8
41944
41959.8
41986.9
42008.6
42031.7
42050.5
42068.2
42084.6
42099.6
42113.1
42125.2
42135.8
42145
42152.7
42159.1
42164.1
42167.7
42169.8
42171
41890
41926.6
41945.1
41979.7
42004.5
42031.2
42052.1
42072.1
42090.5
42107.2
42122.2
42135.5
42147.1
42157.1
42165.6
42172.4
42177.8
42181.7
42184
42185.3
41849.4
41907.4
41928.6
41973
42000.8
42031.2
42054.5
42077.3
42097.7
42116.2
42132.7
42147.2
42159.9
42170.8
42179.9
42187.3
42193.1
42197.2
42199.6
42201
41794.8
41887.5
41910.1
41967.3
41997.5
42032
42058.2
42083.9
42106.5
42126.9
42144.9
42160.7
42174.4
42186.1
42195.8
42203.8
42209.9
42214.3
42216.8
42218.2
41727.4
41868.9
41890.2
41963.1
41995.1
42034
42063.4
42092.2
42117.1
42139.4
42158.9
42176
42190.7
42203.2
42213.6
42222
42228.5
42233.2
42235.7
42237.2
41667.3
41852.9
41871.2
41960.8
41993.8
42037.9
42070.7
42102.7
42129.8
42154
42175.1
42193.4
42209
42222.3
42233.3
42242.1
42248.9
42253.8
42256.4
42258
41629.1
41839.3
41856.3
41959.9
41993.8
42044.4
42080.2
42115.5
42144.9
42171
42193.4
42212.9
42229.4
42243.4
42254.9
42264.2
42271.2
42276.3
42278.9
42280.5
41608.9
41829.6
41848
41960.2
41995.6
42053.7
42092.7
42131.2
42162.6
42190.4
42214.2
42234.7
42252.1
42266.6
42278.6
42288.2
42295.5
42300.7
42303.3
42305
41600.9
41825.1
41845.1
41962.5
42001.2
42066.3
42108.5
42149.9
42183.2
42212.7
42237.6
42259
42277
42292.1
42304.5
42314.3
42321.7
42327.1
42329.8
42331.4
41599.9
41824.7
41845.5
41969.2
42011.9
42083.1
42128
42172.2
42207.1
42237.9
42263.8
42285.9
42304.5
42319.9
42332.5
42342.5
42350.1
42355.4
42358.2
42359.8
41602.5
41827.6
41851.1
41982.9
42029.1
42104.8
42151.6
42198.1
42234.3
42266.4
42293
42315.6
42334.5
42350.1
42362.9
42373
42380.5
42385.8
42388.6
42390.1
41618.4
41840.9
41867.6
42005.7
42053.9
42132.3
42179.9
42228.3
42265.3
42298.1
42325.1
42348.1
42367.1
42382.8
42395.5
42405.6
42413.1
42418.3
42420.9
42422.4
41656.7
41870.8
41898.8
42038.8
42087
42166.3
42213.7
42262.9
42300.1
42333.3
42360.3
42383.3
42402.3
42417.9
42430.5
42440.3
42447.7
42452.8
42455.3
42456.7
41718.1
41919.2
41945.9
42082.6
42129
42207.3
42253.3
42302.5
42339
42371.9
42398.6
42421.3
42440
42455.3
42467.6
42477.2
42484.3
42489.2
42491.5
42492.8
41798.1
41983.9
42007.5
42136.7
42179.9
42255.2
42298.9
42346.9
42382.1
42414.2
42440.1
42462.1
42480.1
42494.9
42506.8
42516
42522.8
42527.4
42529.5
42530.7
41891.5
42061
42081.2
42200.1
42239.3
42309.9
42350.3
42396.2
42429.4
42460.1
42484.6
42505.6
42522.7
42536.7
42547.9
42556.6
42563
42567.3
42569.1
42570.1
41994.8
42147.4
42164
42271.5
42306.1
42370.6
42407.3
42450
42480.6
42509.3
42532.1
42551.6
42567.5
42580.6
42590.9
42598.9
42604.7
42608.6
42610.1
42611
42104.6
42240.5
42254
42349.5
42379.3
42436.6
42469.3
42508
42535.5
42561.6
42582.2
42600
42614.5
42626.3
42635.6
42642.8
42648
42651.3
42652.5
42653.1
42219.3
42338.5
42349.3
42432.5
42457.5
42507.1
42535.5
42569.5
42593.6
42616.6
42634.8
42650.5
42663.3
42673.6
42681.8
42688
42692.4
42695.2
42696
42696.4
42337.8
42440.5
42448.5
42519.4
42539.8
42581.3
42605.1
42634
42654.3
42674
42689.4
42702.8
42713.6
42722.4
42729.2
42734.3
42737.9
42740.1
42740.4
42740.6
42459.7
42545.5
42550.7
42609.2
42624.9
42658.3
42677.5
42700.9
42717.3
42733.3
42745.7
42756.5
42765.2
42772.2
42777.6
42781.6
42784.2
42785.7
42785.6
42785.6
42584.3
42653.1
42655.2
42701.4
42712.2
42737.4
42751.8
42769.6
42781.8
42793.9
42803.2
42811.3
42817.7
42822.8
42826.6
42829.4
42831.1
42831.8
42831.2
42831
42711.2
42762.6
42761.1
42795.6
42800.8
42818.1
42827.6
42839.5
42847.5
42855.5
42861.6
42866.8
42870.8
42873.9
42876.1
42877.5
42878.2
42878.2
42877.1
42876.6
42839.8
42873.4
42867.8
42890.9
42890.1
42899.7
42904.1
42910.1
42913.8
42917.7
42920.4
42922.6
42924.2
42925.2
42925.7
42925.7
42925.3
42924.6
42922.9
42922.2
42969.6
42985.2
42975
42987.2
42979.6
42981.9
42980.6
42981
42980.3
42979.9
42979.2
42978.4
42977.4
42976.3
42975
42973.6
42972.1
42970.6
42968.4
42967.6
43100
43097.8
43082.4
43083.6
43068.8
43064.5
43056.5
43051.9
43046.2
43041.8
43037.5
43033.7
43030.1
43026.9
43023.8
43021
43018.4
43016.1
43013.4
43012.4
43230.8
43210.8
43189.3
43180
43157.1
43146.9
43131.8
43122
43111.3
43102.9
43095
43088.2
43082.1
43076.6
43071.8
43067.6
43063.9
43060.9
43057.7
43056.5
43363
43322.3
43295.1
43275.5
43244.7
43227.9
43206
43190.8
43175.3
43162.9
43151.4
43141.6
43132.9
43125.4
43118.9
43113.2
43108.4
43104.7
43101.1
43099.7
43495.1
43432.9
43400.6
43368.4
43331
43306.7
43278.6
43258.2
43237.9
43221.5
43206.5
43193.8
43182.6
43173
43164.7
43157.7
43151.8
43147.4
43143.3
43141.8
43628.4
43542.2
43504.7
43458.7
43415.5
43383.3
43349.4
43323.7
43298.8
43278.5
43260.1
43244.5
43230.8
43219.1
43209.1
43200.8
43193.9
43188.7
43184.2
43182.6
43760.3
43649.8
43606.6
43546.3
43497.6
43457.3
43418.1
43387
43357.8
43333.7
43312
43293.5
43277.4
43263.7
43252.1
43242.4
43234.5
43228.6
43223.7
43221.9
43890
43753.7
43705.6
43630.8
43577
43528.5
43484.3
43448.1
43414.7
43386.8
43361.9
43340.7
43322.3
43306.6
43293.3
43282.4
43273.5
43266.9
43261.6
43259.7
44011.6
43854
43800.7
43711.9
43653.2
43596.8
43547.9
43506.6
43469.3
43437.8
43409.8
43386
43365.3
43347.7
43332.9
43320.7
43310.8
43303.5
43297.8
43295.9
44106.2
43947.3
43888.2
43788.5
43725.4
43661.6
43608.6
43562.5
43521.5
43486.6
43455.7
43429.3
43406.4
43387
43370.6
43357.2
43346.4
43338.5
43332.4
43330.3
44176.2
44029.3
43965.6
43859.5
43792.7
43722.6
43665.9
43615.4
43571.1
43532.9
43499.3
43470.5
43445.6
43424.4
43406.6
43392
43380.2
43371.7
43365.2
43363.1
44230
44098.5
44031.9
43923.7
43854.1
43779.2
43719.4
43665.1
43617.8
43576.7
43540.6
43509.6
43482.7
43459.9
43440.7
43424.9
43412.3
43403.1
43396.2
43394
44272.2
44155.8
44088
43980.6
43909.2
43830.9
43768.8
43711.2
43661.4
43617.7
43579.4
43546.3
43517.7
43493.3
43472.8
43456
43442.6
43432.8
43425.5
43423.1
44305.8
44202.6
44134.8
44029.9
43957.6
43877.4
43813.7
43753.5
43701.7
43655.8
43615.6
43580.7
43550.4
43524.7
43503
43485.2
43470.9
43460.5
43452.9
43450.3
44332.4
44240.5
44173.4
44072
43999.5
43918.5
43853.8
43791.7
43738.5
43690.7
43648.9
43612.5
43580.8
43553.8
43531
43512.3
43497.2
43486.3
43478.3
43475.6
44352.2
44270.4
44204.5
44107.1
44035
43954.2
43889.1
43825.9
43771.5
43722.4
43679.3
43641.6
43608.8
43580.7
43556.8
43537.2
43521.5
43510.1
43501.8
43498.9
44368.1
44293.8
44229.1
44135.9
44064.6
43984.7
43919.6
43855.8
43800.9
43750.7
43706.7
43667.9
43634.2
43605
43580.3
43560
43543.7
43531.9
43523.3
43520.3
44380.3
44311.7
44248.2
44158.7
44088.9
44010.3
43945.5
43881.7
43826.5
43775.7
43731.1
43691.5
43656.9
43626.9
43601.4
43580.5
43563.7
43551.5
43542.8
43539.6
44389.2
44324.8
44262.2
44176.4
44107.9
44031
43967.1
43903.6
43848.4
43797.3
43752.4
43712.2
43676.9
43646.3
43620.2
43598.8
43581.6
43569.1
43560.2
43556.8
44395.1
44333.8
44271.7
44189.7
44122.1
44047.3
43984.4
43921.5
43866.7
43815.7
43770.6
43730
43694.2
43663.1
43636.7
43614.8
43597.4
43584.5
43575.6
43572
44398.5
44338.9
44277.5
44198.5
44132.2
44059.5
43997.7
43935.8
43881.5
43830.7
43785.7
43744.9
43708.8
43677.4
43650.7
43628.6
43610.9
43597.9
43588.8
43585.1
44399.6
44340.7
44280.1
44203.5
44138.7
44067.9
44007.3
43946.5
43893
43842.6
43797.8
43756.9
43720.8
43689.2
43662.3
43640.1
43622.2
43609
43600
43596.1
44398.9
44340.4
44280.5
44205.4
44141.9
44072.9
44013.6
43954
43901.3
43851.5
43806.9
43766.1
43730.1
43698.6
43671.6
43649.3
43631.3
43618.1
43609.1
43605.1
44394.2
44336.5
44278.8
44205.3
44142.6
44075.1
44016.9
43958.5
43906.7
43857.5
43813.3
43772.8