/*--------------------------------*- C++ -*----------------------------------*\
  =========                 |
  \\      /  F ield         | OpenFOAM: The Open Source CFD Toolbox
   \\    /   O peration     | Website:  https://openfoam.org
    \\  /    A nd           | Version:  7
     \\/     M anipulation  |
\*---------------------------------------------------------------------------*/
FoamFile
{
    version     2.0;
    format      ascii;
    class       volScalarField;
    location    "0.125";
    object      rho;
}
// * * * * * * * * * * * * * * * * * * * * * * * * * * * * * * * * * * * * * //

dimensions      [1 -3 0 0 0 0 0];

internalField   nonuniform List<scalar> 
48560
(
0.395759
0.395858
0.395926
0.395969
0.395992
0.396
0.395995
0.39598
0.395958
0.395929
0.395895
0.395856
0.395813
0.395766
0.395715
0.395659
0.3956
0.395536
0.395467
0.395392
0.395311
0.395224
0.395128
0.395024
0.394912
0.39479
0.394653
0.394468
0.394198
0.393902
0.393565
0.393169
0.392694
0.392081
0.391249
0.390303
0.389197
0.38802
0.386813
0.385798
0.384655
0.38338
0.381871
0.379872
0.377308
0.374004
0.370667
0.369447
0.371649
0.377134
0.393968
0.456578
0.478819
0.504481
0.525055
0.544197
0.559968
0.576124
0.589021
0.602435
0.611734
0.621262
0.623464
0.624892
0.62469
0.622236
0.620683
0.619321
0.617187
0.615379
0.613316
0.610978
0.608007
0.604282
0.599226
0.59235
0.582753
0.567765
0.539769
0.501115
0.501342
0.512874
0.508141
0.506709
0.499977
0.496599
0.494405
0.496176
0.498695
0.505879
0.51455
0.523123
0.53122
0.538779
0.545492
0.551377
0.556286
0.560239
0.563025
0.564144
0.39571
0.395809
0.395866
0.395896
0.395898
0.395882
0.395848
0.395803
0.395747
0.395681
0.395609
0.395529
0.395442
0.395347
0.395242
0.395127
0.395001
0.394864
0.394716
0.394555
0.394381
0.394193
0.393989
0.393767
0.393523
0.393254
0.39295
0.392548
0.391887
0.391124
0.390266
0.389283
0.388209
0.387035
0.385873
0.384642
0.383418
0.382057
0.380621
0.378948
0.377033
0.37495
0.372656
0.370589
0.370044
0.372284
0.375488
0.379606
0.382738
0.391635
0.413435
0.458051
0.478984
0.506137
0.524845
0.545497
0.560703
0.577696
0.590566
0.604394
0.614127
0.623413
0.626019
0.628241
0.628054
0.625264
0.625263
0.624311
0.622797
0.621659
0.619786
0.617892
0.614942
0.611379
0.605987
0.598769
0.587535
0.569656
0.544783
0.526712
0.523833
0.520818
0.517751
0.514188
0.510577
0.510225
0.510312
0.511972
0.514684
0.519682
0.524893
0.531623
0.537882
0.544414
0.549895
0.554995
0.558783
0.561755
0.563568
0.564166
0.395059
0.395155
0.395185
0.39519
0.395147
0.395091
0.395002
0.394906
0.394789
0.394667
0.394522
0.394365
0.394184
0.393986
0.393763
0.393519
0.393246
0.392943
0.392597
0.392233
0.391831
0.391401
0.390931
0.390429
0.389887
0.389312
0.388698
0.387978
0.38696
0.385997
0.384901
0.383818
0.38259
0.38131
0.379867
0.378288
0.376647
0.374874
0.373116
0.371302
0.370064
0.369866
0.371386
0.374117
0.378177
0.381163
0.384415
0.38719
0.392465
0.403492
0.42608
0.45898
0.482015
0.507834
0.526543
0.546614
0.562261
0.57877
0.592198
0.60573
0.616044
0.624706
0.627985
0.630094
0.629996
0.628037
0.629029
0.627671
0.62702
0.6257
0.624341
0.622245
0.619437
0.615446
0.609799
0.601645
0.589222
0.57001
0.546082
0.531062
0.527346
0.524079
0.519413
0.515323
0.511869
0.511863
0.511948
0.513724
0.516587
0.52147
0.52688
0.53315
0.539124
0.545188
0.550534
0.555491
0.559303
0.562118
0.563706
0.564183
0.39316
0.39324
0.393197
0.39314
0.39299
0.39284
0.392624
0.392415
0.392147
0.391873
0.391543
0.3912
0.390809
0.390404
0.389961
0.389509
0.389031
0.388551
0.388062
0.387555
0.387031
0.386488
0.38591
0.385308
0.384671
0.384007
0.383302
0.382532
0.381389
0.380175
0.37884
0.377459
0.375976
0.374512
0.372953
0.371491
0.37033
0.369673
0.370327
0.371273
0.373603
0.375972
0.378819
0.381518
0.383857
0.385467
0.38754
0.390684
0.397103
0.410347
0.432583
0.460845
0.483086
0.507356
0.526045
0.545843
0.561844
0.578386
0.592262
0.605877
0.616638
0.625232
0.629186
0.631232
0.63119
0.630009
0.631095
0.629378
0.629218
0.627296
0.626018
0.623167
0.62012
0.615231
0.608996
0.599607
0.586206
0.567546
0.548933
0.537347
0.531685
0.527092
0.522567
0.520002
0.518796
0.519139
0.519468
0.521178
0.523757
0.527767
0.532346
0.537769
0.543056
0.548406
0.553046
0.557173
0.560256
0.562494
0.563797
0.564189
0.389459
0.38947
0.389369
0.389229
0.38901
0.388776
0.388489
0.388198
0.387858
0.387506
0.387106
0.386692
0.386232
0.385758
0.385242
0.384709
0.384137
0.383544
0.38291
0.38225
0.381547
0.380808
0.380045
0.379269
0.378473
0.377661
0.37683
0.376003
0.374765
0.373568
0.372388
0.37141
0.370668
0.370532
0.370773
0.371572
0.372883
0.374565
0.376143
0.378305
0.380343
0.382204
0.383781
0.385046
0.386183
0.3876
0.389872
0.394083
0.402227
0.416391
0.437315
0.46266
0.484429
0.507163
0.526122
0.54523
0.561626
0.577874
0.592133
0.605605
0.616538
0.624882
0.629196
0.631205
0.631328
0.630765
0.631537
0.630087
0.629971
0.628002
0.626729
0.62367
0.620523
0.615263
0.60869
0.598573
0.584711
0.566803
0.551135
0.541201
0.534874
0.529329
0.525096
0.522858
0.522225
0.522501
0.52297
0.524588
0.527153
0.530917
0.535233
0.540102
0.544961
0.549827
0.554206
0.558012
0.5608
0.562705
0.563818
0.564156
0.385142
0.385106
0.384981
0.384769
0.384497
0.384171
0.383807
0.383412
0.382978
0.38251
0.381995
0.381448
0.380855
0.380234
0.379572
0.378888
0.37817
0.377435
0.376676
0.375922
0.375174
0.374463
0.373788
0.373165
0.372618
0.372206
0.371987
0.372296
0.37205
0.372491
0.372839
0.373712
0.374559
0.37557
0.376729
0.378099
0.379472
0.380785
0.381995
0.383187
0.384112
0.384941
0.385644
0.386447
0.387539
0.389172
0.392105
0.397399
0.406612
0.420935
0.440532
0.463837
0.484982
0.506464
0.525242
0.543955
0.560398
0.57661
0.590964
0.604456
0.615368
0.623675
0.628185
0.630327
0.630659
0.630384
0.63081
0.629736
0.629368
0.62748
0.625962
0.622783
0.619328
0.613726
0.606631
0.595982
0.582325
0.566493
0.553455
0.544179
0.537503
0.531954
0.528452
0.526858
0.526604
0.526734
0.527296
0.528785
0.53117
0.534509
0.538451
0.542844
0.547301
0.551636
0.555491
0.558774
0.561199
0.562839
0.563813
0.564116
0.380831
0.380679
0.380519
0.380189
0.379861
0.379432
0.379019
0.378538
0.378051
0.377509
0.376961
0.376384
0.375818
0.375261
0.374752
0.37431
0.373976
0.373767
0.373611
0.373594
0.373669
0.373891
0.374216
0.374679
0.375233
0.375875
0.376533
0.377428
0.377669
0.378759
0.379191
0.380291
0.380792
0.381785
0.382337
0.383203
0.38367
0.384354
0.384729
0.385276
0.385602
0.386138
0.386707
0.387578
0.388818
0.390966
0.394608
0.400758
0.410459
0.424521
0.442856
0.464694
0.485104
0.505616
0.524152
0.542434
0.5589
0.574975
0.589404
0.602788
0.613635
0.621841
0.626526
0.628858
0.629462
0.629343
0.629631
0.628885
0.628384
0.626697
0.625023
0.621887
0.618181
0.612395
0.604874
0.594012
0.580761
0.566631
0.555227
0.54637
0.539619
0.534313
0.531298
0.530061
0.529936
0.530024
0.53065
0.532039
0.534303
0.537354
0.540987
0.544987
0.549051
0.55299
0.556496
0.559394
0.561521
0.562943
0.563805
0.564079
0.378006
0.377908
0.377865
0.377647
0.377502
0.377256
0.377106
0.376918
0.376843
0.376769
0.376801
0.376851
0.376998
0.377173
0.37743
0.377704
0.378021
0.378336
0.37876
0.379194
0.379702
0.380211
0.380757
0.381288
0.381821
0.382323
0.382809
0.383463
0.383293
0.38405
0.384077
0.384639
0.38466
0.3851
0.385145
0.385493
0.385564
0.385872
0.386013
0.386343
0.386625
0.387137
0.38774
0.388794
0.390363
0.393025
0.397245
0.403919
0.413739
0.427311
0.444505
0.465214
0.484795
0.504449
0.522662
0.540567
0.556989
0.572951
0.587395
0.600679
0.611451
0.619612
0.624464
0.627017
0.627858
0.627865
0.628098
0.627559
0.626985
0.625428
0.623605
0.620445
0.616456
0.610449
0.602588
0.591833
0.579454
0.567005
0.556685
0.548216
0.541691
0.536869
0.53432
0.533378
0.533276
0.53337
0.533969
0.535258
0.537335
0.540111
0.543413
0.547035
0.550716
0.554238
0.557355
0.559913
0.561782
0.563027
0.563795
0.564045
0.378854
0.379302
0.379717
0.38005
0.380387
0.380673
0.380999
0.381306
0.381678
0.38205
0.382485
0.382904
0.383359
0.383779
0.384209
0.384589
0.384961
0.385279
0.385586
0.385832
0.386061
0.386228
0.386378
0.386473
0.386554
0.386591
0.38663
0.386745
0.386335
0.386584
0.386447
0.3866
0.386518
0.386668
0.386622
0.386768
0.386756
0.386943
0.387036
0.387342
0.387635
0.388222
0.388974
0.390273
0.392182
0.395276
0.399903
0.406839
0.416545
0.429519
0.445693
0.465403
0.484169
0.503073
0.520911
0.538468
0.554808
0.570644
0.585074
0.598231
0.608941
0.617084
0.622136
0.624941
0.626028
0.626158
0.626388
0.625994
0.625422
0.623972
0.622069
0.618892
0.614702
0.608552
0.600535
0.590094
0.578619
0.567433
0.557931
0.549898
0.54373
0.539357
0.53712
0.536335
0.536242
0.536355
0.536912
0.538122
0.54002
0.542565
0.545566
0.548859
0.552177
0.55534
0.558104
0.560359
0.562001
0.563097
0.563783
0.564012
0.383259
0.38427
0.385077
0.385875
0.386503
0.387109
0.387596
0.388069
0.388474
0.388879
0.389253
0.389613
0.389926
0.390192
0.3904
0.39054
0.39062
0.390627
0.390579
0.390464
0.390308
0.3901
0.389871
0.389609
0.389347
0.389073
0.38883
0.388665
0.388219
0.388202
0.387967
0.387978
0.387848
0.387918
0.387862
0.387968
0.387952
0.3881
0.388191
0.388492
0.388842
0.389514
0.390443
0.391971
0.394197
0.397608
0.402503
0.409512
0.418969
0.431311
0.446558
0.465304
0.483258
0.501461
0.518896
0.536124
0.552354
0.568067
0.582456
0.59549
0.606151
0.614316
0.619587
0.622663
0.624011
0.624276
0.624512
0.624223
0.623683
0.622308
0.620353
0.617138
0.612787
0.606545
0.598552
0.588631
0.578121
0.567954
0.559125
0.551584
0.545838
0.541885
0.539879
0.539183
0.539084
0.539196
0.539695
0.540809
0.542523
0.54484
0.547545
0.55052
0.553492
0.556314
0.558758
0.560745
0.56219
0.563157
0.563771
0.563982
0.388415
0.389713
0.390697
0.391703
0.392408
0.3931
0.393545
0.393982
0.394244
0.394523
0.394698
0.394905
0.395018
0.395114
0.395104
0.395049
0.39489
0.394676
0.394377
0.394029
0.393622
0.393181
0.39271
0.39223
0.391751
0.391287
0.390862
0.390547
0.390014
0.389804
0.389487
0.389376
0.389206
0.389198
0.389139
0.389202
0.3892
0.389311
0.389427
0.38973
0.390164
0.390932
0.392054
0.393798
0.396301
0.399944
0.405006
0.411964
0.421107
0.432811
0.447202
0.46498
0.482123
0.499637
0.516644
0.533549
0.549648
0.565236
0.579567
0.592481
0.603111
0.611327
0.616841
0.620217
0.621859
0.62229
0.622531
0.622329
0.621848
0.620542
0.618575
0.615341
0.610902
0.604664
0.596849
0.58753
0.577906
0.568588
0.560358
0.553316
0.547973
0.544342
0.542482
0.541827
0.541719
0.541822
0.542264
0.543275
0.544817
0.546912
0.549344
0.552018
0.55467
0.557175
0.559331
0.561081
0.562353
0.563209
0.563761
0.563954
0.392225
0.393683
0.394846
0.396009
0.396848
0.397636
0.398129
0.398575
0.398797
0.399014
0.399093
0.399216
0.399249
0.399288
0.399205
0.399085
0.398839
0.398537
0.398115
0.397636
0.397065
0.396448
0.395787
0.395104
0.394414
0.393737
0.393102
0.392602
0.391884
0.391459
0.391011
0.39075
0.390512
0.390418
0.390344
0.390366
0.390373
0.390461
0.390609
0.390943
0.39148
0.392373
0.393697
0.395655
0.398402
0.402229
0.407387
0.414233
0.423032
0.434114
0.447701
0.464485
0.480794
0.497604
0.514153
0.53073
0.546682
0.562145
0.576405
0.589209
0.599824
0.608116
0.61389
0.617593
0.619569
0.6202
0.620472
0.62034
0.619933
0.618695
0.616745
0.613515
0.609056
0.602918
0.595413
0.58675
0.577944
0.569349
0.561684
0.555127
0.550146
0.546758
0.544981
0.544326
0.544201
0.544283
0.544665
0.545561
0.546935
0.54881
0.550983
0.553368
0.555722
0.557938
0.559837
0.561376
0.562496
0.563255
0.563751
0.563929
0.394681
0.396301
0.397706
0.399092
0.400197
0.401208
0.401928
0.402535
0.402894
0.403179
0.403302
0.403421
0.403471
0.403538
0.403503
0.403408
0.403165
0.402826
0.402324
0.401716
0.400986
0.400202
0.399313
0.39839
0.397424
0.396472
0.395555
0.394812
0.393846
0.393194
0.392571
0.392155
0.391821
0.391632
0.391523
0.39151
0.391521
0.39159
0.391757
0.392121
0.392751
0.393767
0.395275
0.39743
0.400404
0.404409
0.409642
0.416357
0.424812
0.4353
0.448116
0.463872
0.479308
0.495375
0.511423
0.527653
0.543442
0.558786
0.572974
0.58568
0.59629
0.604673
0.610718
0.614775
0.617136
0.618018
0.618353
0.618286
0.617966
0.61681
0.614915
0.611731
0.607334
0.601388
0.594284
0.586276
0.578177
0.570243
0.563123
0.557016
0.552338
0.549113
0.547361
0.546674
0.54652
0.546576
0.546894
0.547671
0.548881
0.550541
0.55247
0.554582
0.556664
0.558615
0.560285
0.561637
0.562624
0.563297
0.563743
0.563907
0.396472
0.398259
0.399917
0.401567
0.403006
0.404345
0.405422
0.40634
0.406991
0.407488
0.407777
0.407979
0.408076
0.408176
0.408195
0.408138
0.407932
0.407585
0.407055
0.406372
0.405524
0.404527
0.403387
0.402155
0.400858
0.399554
0.398297
0.397263
0.395962
0.394997
0.394109
0.393455
0.39297
0.39265
0.392502
0.392445
0.392465
0.392512
0.392696
0.393083
0.393803
0.394956
0.396687
0.399106
0.402332
0.406482
0.411743
0.418358
0.426504
0.43643
0.448475
0.463182
0.477695
0.492954
0.508438
0.524286
0.539894
0.555123
0.569239
0.581864
0.592486
0.600972
0.607293
0.611724
0.614526
0.615738
0.616193
0.616184
0.615965
0.614912
0.613115
0.610026
0.60577
0.600097
0.593453
0.58608
0.578602
0.571286
0.564683
0.558983
0.55455
0.551422
0.549643
0.54889
0.548688
0.548716
0.548964
0.549619
0.550668
0.55212
0.553818
0.555676
0.557506
0.559217
0.560682
0.561868
0.562739
0.563336
0.563737
0.563887
0.397951
0.399874
0.401736
0.403623
0.405373
0.407056
0.408532
0.409851
0.410906
0.411751
0.412333
0.412728
0.41294
0.41307
0.413149
0.413179
0.413075
0.412812
0.412332
0.411627
0.410672
0.409482
0.408075
0.406499
0.404804
0.40306
0.401345
0.399869
0.398168
0.396824
0.395653
0.39473
0.39409
0.393599
0.39338
0.393267
0.393286
0.393312
0.393492
0.393882
0.394643
0.395872
0.397729
0.400327
0.403804
0.408246
0.413732
0.420287
0.428147
0.437565
0.448824
0.462474
0.476014
0.490383
0.505215
0.520622
0.536027
0.551156
0.565227
0.577789
0.58843
0.59701
0.603594
0.608399
0.611695
0.613341
0.614018
0.614046
0.61395
0.613033
0.611381
0.608449
0.604408
0.599074
0.592918
0.586148
0.579239
0.572487
0.566361
0.561023
0.556784
0.553701
0.551853
0.550988
0.550711
0.550711
0.550884
0.551416
0.552304
0.553556
0.555035
0.556657
0.558257
0.559751
0.561034
0.562074
0.562842
0.563372
0.563733
0.563871
0.399255
0.401267
0.403266
0.405321
0.4073
0.409263
0.411092
0.412812
0.414318
0.415619
0.41664
0.417409
0.417906
0.418204
0.418345
0.418438
0.418446
0.418308
0.417941
0.417303
0.416341
0.415047
0.413419
0.411503
0.409358
0.407077
0.404772
0.402707
0.400512
0.398671
0.397142
0.395882
0.395064
0.394371
0.394041
0.393853
0.393846
0.393895
0.394066
0.394484
0.395278
0.396587
0.398549
0.401293
0.404933
0.409556
0.41522
0.421945
0.42973
0.438692
0.449202
0.461786
0.474282
0.487641
0.501695
0.516571
0.531731
0.546767
0.560798
0.57332
0.584019
0.592715
0.599572
0.604759
0.608594
0.610783
0.611818
0.611916
0.611951
0.61121
0.609749
0.607041
0.603282
0.598336
0.592669
0.58643
0.580073
0.573847
0.568158
0.563139
0.559054
0.555971
0.554008
0.552994
0.552608
0.552564
0.552663
0.553071
0.553801
0.554863
0.556136
0.55754
0.558929
0.560226
0.561346
0.562256
0.562934
0.563405
0.56373
0.563857
0.400414
0.402475
0.404551
0.4067
0.408815
0.410958
0.41305
0.415097
0.416995
0.418756
0.42029
0.421582
0.422565
0.423252
0.423644
0.423823
0.423879
0.423883
0.423694
0.423238
0.422407
0.421149
0.419412
0.41721
0.414595
0.411685
0.408637
0.405796
0.403026
0.400529
0.398582
0.396858
0.395807
0.394915
0.394483
0.394226
0.394162
0.394241
0.394431
0.394841
0.39565
0.397011
0.399064
0.401942
0.405746
0.410546
0.416367
0.423206
0.43103
0.439827
0.449652
0.461206
0.472656
0.484922
0.498047
0.512245
0.527089
0.542064
0.556153
0.568681
0.579432
0.588205
0.595278
0.60079
0.605154
0.607966
0.609542
0.609833
0.610002
0.609475
0.608252
0.605836
0.60241
0.597886
0.592702
0.586947
0.581093
0.575345
0.570054
0.565321
0.561365
0.558254
0.556134
0.554938
0.554406
0.554288
0.554314
0.5546
0.555175
0.556051
0.55713
0.558329
0.559526
0.560646
0.561619
0.562414
0.563014
0.563434
0.563728
0.563845
0.401415
0.403491
0.405605
0.40779
0.409966
0.412196
0.414438
0.416678
0.418823
0.420897
0.422845
0.424633
0.42618
0.42744
0.428352
0.428917
0.429174
0.429231
0.42922
0.429029
0.428488
0.427472
0.425841
0.423528
0.420509
0.416897
0.412905
0.409028
0.40566
0.402218
0.399923
0.397584
0.396316
0.395201
0.394666
0.394365
0.394299
0.394357
0.394531
0.394929
0.395747
0.397137
0.399252
0.402232
0.406173
0.411144
0.417137
0.424119
0.431988
0.440653
0.450055
0.460666
0.470983
0.481973
0.493959
0.507301
0.521716
0.536609
0.550723
0.56328
0.574191
0.583117
0.590495
0.596383
0.601334
0.604844
0.607168
0.607879
0.608127
0.607843
0.606928
0.60485
0.601813
0.597725
0.592989
0.587708
0.582323
0.577012
0.57208
0.567599
0.563749
0.560585
0.558271
0.556848
0.556123
0.55589
0.555857
0.556022
0.556443
0.557138
0.558032
0.559039
0.560057
0.561016
0.561857
0.562549
0.563079
0.563456
0.563725
0.563834
0.402215
0.40429
0.406425
0.408623
0.410833
0.413097
0.415371
0.417658
0.419906
0.42214
0.424314
0.426436
0.428433
0.430274
0.431863
0.433139
0.434016
0.43449
0.434618
0.434566
0.434365
0.433744
0.432456
0.430256
0.426961
0.422586
0.417401
0.412132
0.408366
0.403553
0.400905
0.398029
0.396497
0.395151
0.394501
0.394149
0.394097
0.394178
0.394315
0.394739
0.395547
0.396973
0.399117
0.402179
0.406227
0.411352
0.417514
0.424671
0.432661
0.441305
0.450397
0.460253
0.469702
0.479565
0.490257
0.502451
0.516193
0.531028
0.545478
0.558156
0.569203
0.578169
0.585716
0.591749
0.597126
0.601217
0.604464
0.605912
0.606422
0.606341
0.605798
0.604093
0.601495
0.597836
0.593505
0.588641
0.583657
0.578725
0.574107
0.56985
0.566099
0.56289
0.560406
0.558723
0.55777
0.557384
0.557282
0.557344
0.557627
0.558151
0.558867
0.559693
0.560546
0.561358
0.562079
0.562675
0.563138
0.563474
0.563719
0.563823
0.402777
0.404845
0.406997
0.409195
0.411422
0.41368
0.415949
0.418233
0.42051
0.422792
0.425057
0.427312
0.429525
0.431686
0.433736
0.435619
0.437224
0.438447
0.439175
0.439406
0.439293
0.43903
0.438235
0.436502
0.433378
0.428481
0.421848
0.414465
0.410439
0.404308
0.401201
0.397868
0.396105
0.394585
0.393873
0.393511
0.393483
0.393616
0.393768
0.394233
0.395053
0.396506
0.398694
0.401814
0.405939
0.411165
0.417466
0.424769
0.432889
0.441551
0.450409
0.459454
0.467596
0.475883
0.4851
0.496014
0.508965
0.523655
0.538293
0.550999
0.562566
0.571703
0.579736
0.586178
0.592277
0.59714
0.601528
0.603951
0.605106
0.605065
0.604931
0.603645
0.601482
0.598214
0.594302
0.589846
0.585269
0.580683
0.576347
0.572292
0.568644
0.565402
0.56262
0.560591
0.559333
0.558748
0.558556
0.558536
0.558697
0.559072
0.559625
0.560294
0.561009
0.561696
0.562309
0.562815
0.563208
0.563497
0.563716
0.563815
0.402928
0.404972
0.407134
0.409312
0.411545
0.413784
0.416053
0.41832
0.420596
0.422864
0.425128
0.427377
0.429611
0.431821
0.433998
0.436128
0.438173
0.440074
0.441713
0.442931
0.443544
0.443504
0.443082
0.442041
0.439466
0.434285
0.425594
0.414676
0.410992
0.403889
0.400462
0.396837
0.394901
0.39329
0.392566
0.392224
0.392263
0.392474
0.3927
0.393205
0.394141
0.395582
0.397849
0.401003
0.40522
0.410517
0.416939
0.424377
0.432664
0.441483
0.450437
0.459463
0.467341
0.474723
0.482356
0.491346
0.5025
0.516474
0.532227
0.545439
0.557211
0.566429
0.574729
0.581054
0.587375
0.592403
0.597584
0.60127
0.603635
0.60392
0.604112
0.603285
0.601497
0.598611
0.595005
0.590882
0.586577
0.58226
0.578156
0.574255
0.57065
0.567319
0.564583
0.562296
0.560707
0.559853
0.559563
0.55949
0.559549
0.559797
0.560236
0.560798
0.561419
0.562019
0.562553
0.562984
0.563314
0.563556
0.563741
0.563828
0.402104
0.40412
0.4063
0.408449
0.410692
0.412902
0.415175
0.417413
0.419689
0.421931
0.424192
0.426419
0.428652
0.430856
0.433056
0.435229
0.43738
0.439471
0.441465
0.443294
0.444735
0.445478
0.445244
0.444368
0.442414
0.437816
0.428266
0.412137
0.40973
0.401769
0.397642
0.393924
0.391824
0.390342
0.389646
0.389449
0.389583
0.389973
0.390335
0.39089
0.391856
0.393402
0.395685
0.398977
0.40328
0.40873
0.4153
0.422912
0.431368
0.440331
0.449313
0.457914
0.464769
0.470423
0.47497
0.480423
0.489473
0.503662
0.52031
0.533536
0.54598
0.555892
0.564897
0.571938
0.579324
0.585718
0.592731
0.598516
0.602679
0.603932
0.604058
0.603739
0.602416
0.599933
0.596703
0.59283
0.588758
0.584607
0.580605
0.5768
0.573337
0.570173
0.567047
0.564104
0.561838
0.560497
0.560036
0.55993
0.559965
0.560161
0.560561
0.561076
0.561672
0.562244
0.56276
0.563164
0.563465
0.563676
0.563833
0.563905
0.398283
0.400259
0.402429
0.404525
0.406749
0.408903
0.411152
0.413335
0.415585
0.417772
0.420001
0.422168
0.424351
0.426461
0.428544
0.430528
0.432455
0.434303
0.436139
0.437937
0.439734
0.441447
0.442828
0.443259
0.442205
0.439689
0.430446
0.405887
0.404491
0.396759
0.392135
0.388526
0.386482
0.385114
0.384653
0.384637
0.385112
0.385701
0.386401
0.387177
0.38829
0.389954
0.392624
0.395977
0.400475
0.406025
0.412808
0.420549
0.429208
0.438358
0.447666
0.456888
0.464509
0.470604
0.475426
0.480765
0.488416
0.499973
0.515112
0.529356
0.542661
0.552165
0.561141
0.567922
0.574886
0.580786
0.58736
0.593533
0.599969
0.602544
0.602625
0.602405
0.601049
0.598717
0.595579
0.591908
0.58801
0.584109
0.580377
0.576761
0.573329
0.569886
0.566973
0.564193
0.561856
0.560176
0.559572
0.559473
0.559572
0.5598
0.560254
0.560808
0.561466
0.562098
0.56269
0.563166
0.563534
0.563779
0.56396
0.564048
0.384678
0.386498
0.388445
0.390322
0.392278
0.394148
0.396081
0.397915
0.399794
0.401569
0.403377
0.405075
0.406779
0.408349
0.409894
0.411319
0.412748
0.414098
0.41545
0.416738
0.418118
0.419573
0.421037
0.422052
0.421552
0.420025
0.415222
0.397433
0.39479
0.386315
0.381477
0.377099
0.375358
0.373347
0.373311
0.372805
0.373772
0.374079
0.375349
0.375965
0.377632
0.379094
0.381887
0.385146
0.389958
0.395895
0.403004
0.41112
0.419843
0.429077
0.438178
0.447143
0.455118
0.461579
0.465506
0.465907
0.466529
0.468268
0.487654
0.512881
0.526955
0.538106
0.547105
0.555325
0.562674
0.569997
0.578641
0.588081
0.598286
0.602076
0.601074
0.601563
0.600113
0.597092
0.593556
0.58985
0.585837
0.581976
0.578287
0.574628
0.571408
0.56836
0.565354
0.562356
0.559082
0.55641
0.555449
0.555548
0.555906
0.556472
0.557378
0.558185
0.559054
0.559958
0.560822
0.561633
0.562355
0.562993
0.563527
0.563985
0.245935
0.245959
0.245955
0.245958
0.245957
0.245958
0.245958
0.245958
0.245959
0.245959
0.245959
0.245959
0.24596
0.24596
0.24596
0.24596
0.24596
0.24596
0.24596
0.24596
0.245921
0.245956
0.245953
0.245956
0.245956
0.245957
0.245957
0.245958
0.245959
0.24596
0.24596
0.245961
0.245961
0.245961
0.245962
0.245962
0.245962
0.245962
0.245963
0.245962
0.245902
0.24595
0.245949
0.245953
0.245953
0.245954
0.245956
0.245958
0.24596
0.245961
0.245963
0.245964
0.245965
0.245966
0.245966
0.245967
0.245968
0.245968
0.245968
0.245968
0.245883
0.245944
0.245945
0.245949
0.24595
0.245952
0.245955
0.245958
0.24596
0.245963
0.245965
0.245967
0.245968
0.24597
0.245971
0.245972
0.245973
0.245973
0.245974
0.245974
0.245863
0.245937
0.24594
0.245945
0.245947
0.24595
0.245953
0.245957
0.245961
0.245965
0.245968
0.24597
0.245973
0.245975
0.245976
0.245978
0.245979
0.24598
0.245981
0.245982
0.245839
0.245927
0.245933
0.245939
0.245942
0.245947
0.245952
0.245957
0.245962
0.245967
0.245971
0.245975
0.245978
0.245981
0.245984
0.245986
0.245988
0.245989
0.24599
0.245991
0.245815
0.245915
0.245924
0.245932
0.245937
0.245943
0.24595
0.245957
0.245964
0.24597
0.245975
0.24598
0.245985
0.245989
0.245993
0.245996
0.245998
0.246
0.246002
0.246003
0.245786
0.245901
0.245914
0.245924
0.24593
0.245939
0.245947
0.245957
0.245965
0.245973
0.245981
0.245987
0.245993
0.245999
0.246004
0.246008
0.246011
0.246014
0.246015
0.246017
0.245756
0.245884
0.245901
0.245913
0.245923
0.245934
0.245945
0.245957
0.245967
0.245977
0.245987
0.245995
0.246003
0.24601
0.246016
0.246022
0.246026
0.246029
0.246031
0.246032
0.245722
0.245865
0.245887
0.245902
0.245914
0.245928
0.245942
0.245957
0.24597
0.245982
0.245994
0.246005
0.246014
0.246023
0.246031
0.246037
0.246042
0.246046
0.246049
0.24605
0.245687
0.245843
0.245869
0.245888
0.245904
0.245921
0.245939
0.245957
0.245973
0.245988
0.246002
0.246015
0.246027
0.246038
0.246047
0.246055
0.246061
0.246066
0.246069
0.246071
0.245648
0.245818
0.24585
0.245873
0.245893
0.245914
0.245936
0.245957
0.245977
0.245995
0.246012
0.246027
0.246042
0.246054
0.246065
0.246075
0.246082
0.246088
0.246091
0.246093
0.245607
0.245791
0.245828
0.245856
0.24588
0.245906
0.245933
0.245958
0.245981
0.246002
0.246023
0.246041
0.246058
0.246073
0.246086
0.246097
0.246105
0.246112
0.246116
0.246118
0.245561
0.245759
0.245803
0.245836
0.245867
0.245898
0.24593
0.24596
0.245986
0.246011
0.246035
0.246057
0.246076
0.246094
0.246109
0.246121
0.246131
0.246138
0.246143
0.246146
0.245512
0.245725
0.245775
0.245815
0.245852
0.24589
0.245927
0.245961
0.245992
0.246022
0.246049
0.246074
0.246097
0.246117
0.246134
0.246148
0.246159
0.246168
0.246173
0.246176
0.245457
0.245685
0.245743
0.245792
0.245836
0.245882
0.245925
0.245964
0.246
0.246034
0.246065
0.246094
0.24612
0.246142
0.246162
0.246178
0.246191
0.2462
0.246206
0.246209
0.245396
0.245641
0.245707
0.245767
0.245819
0.245873
0.245924
0.245968
0.246009
0.246048
0.246084
0.246117
0.246146
0.246171
0.246193
0.246211
0.246226
0.246236
0.246242
0.246246
0.245324
0.245591
0.245667
0.245739
0.245802
0.245866
0.245923
0.245974
0.246021
0.246065
0.246106
0.246142
0.246175
0.246203
0.246228
0.246248
0.246264
0.246276
0.246283
0.246287
0.245243
0.245535
0.245622
0.24571
0.245783
0.245859
0.245924
0.245981
0.246035
0.246085
0.24613
0.246171
0.246208
0.24624
0.246267
0.246289
0.246307
0.246319
0.246327
0.246332
0.245146
0.245472
0.24557
0.245679
0.245765
0.245853
0.245926
0.245991
0.246052
0.246108
0.246159
0.246205
0.246245
0.24628
0.24631
0.246335
0.246354
0.246368
0.246376
0.246381
0.245037
0.2454
0.245512
0.245648
0.245746
0.245849
0.245929
0.246003
0.246072
0.246135
0.246192
0.246243
0.246287
0.246326
0.246358
0.246385
0.246406
0.246421
0.24643
0.246436
0.244891
0.245322
0.245446
0.245617
0.245729
0.245848
0.245936
0.24602
0.246098
0.246168
0.246231
0.246286
0.246335
0.246377
0.246413
0.246441
0.246464
0.24648
0.24649
0.246496
0.244709
0.245235
0.24537
0.245588
0.245712
0.245848
0.245946
0.246042
0.246128
0.246206
0.246275
0.246336
0.246389
0.246435
0.246473
0.246504
0.246528
0.246546
0.246556
0.246562
0.244479
0.245147
0.245285
0.245564
0.245698
0.245852
0.245962
0.24607
0.246166
0.246251
0.246327
0.246393
0.24645
0.246499
0.24654
0.246573
0.246599
0.246618
0.246628
0.246635
0.244165
0.245065
0.245193
0.245548
0.245687
0.245861
0.245984
0.246106
0.24621
0.246304
0.246386
0.246457
0.246519
0.246571
0.246615
0.24665
0.246678
0.246697
0.246708
0.246715
0.243872
0.244994
0.245101
0.24554
0.24568
0.245878
0.246014
0.24615
0.246264
0.246366
0.246454
0.24653
0.246596
0.246652
0.246698
0.246735
0.246763
0.246784
0.246795
0.246802
0.243687
0.244934
0.245025
0.245539
0.245677
0.245905
0.246054
0.246205
0.246327
0.246437
0.246531
0.246613
0.246682
0.246741
0.246789
0.246828
0.246857
0.246879
0.246889
0.246897
0.243578
0.244888
0.244979
0.245542
0.245682
0.245945
0.246107
0.246271
0.246402
0.246519
0.246619
0.246705
0.246777
0.246838
0.246889
0.246929
0.246959
0.246981
0.246992
0.247
0.243522
0.244865
0.244956
0.245552
0.245702
0.245999
0.246173
0.24635
0.246489
0.246613
0.246717
0.246807
0.246882
0.246945
0.246997
0.247038
0.24707
0.247092
0.247103
0.247111
0.243494
0.244858
0.244947
0.245581
0.245745
0.24607
0.246255
0.246444
0.246589
0.246719
0.246827
0.24692
0.246998
0.247062
0.247115
0.247157
0.247189
0.247211
0.247222
0.24723
0.243483
0.244864
0.244961
0.245638
0.245816
0.246162
0.246354
0.246554
0.246705
0.24684
0.24695
0.247045
0.247124
0.247189
0.247243
0.247285
0.247317
0.247339
0.24735
0.247358
0.243526
0.244912
0.24502
0.245733
0.245919
0.246278
0.246473
0.246681
0.246835
0.246974
0.247086
0.247182
0.247261
0.247327
0.24738
0.247422
0.247453
0.247475
0.247486
0.247493
0.243665
0.24503
0.245143
0.245871
0.246056
0.246421
0.246615
0.246828
0.246982
0.247122
0.247235
0.247331
0.24741
0.247475
0.247527
0.247568
0.247599
0.24762
0.24763
0.247637
0.243899
0.245224
0.245332
0.246053
0.246231
0.246592
0.246781
0.246994
0.247146
0.247285
0.247397
0.247491
0.247569
0.247633
0.247684
0.247724
0.247753
0.247773
0.247782
0.247789
0.244213
0.245487
0.245584
0.246277
0.246444
0.246793
0.246971
0.247181
0.247327
0.247463
0.247571
0.247663
0.247739
0.2478
0.247849
0.247888
0.247915
0.247935
0.247942
0.247949
0.244582
0.245801
0.245886
0.24654
0.246692
0.247022
0.247187
0.247388
0.247526
0.247656
0.247759
0.247846
0.247918
0.247976
0.248023
0.248059
0.248085
0.248103
0.24811
0.248115
0.244994
0.246153
0.246228
0.246835
0.246971
0.247276
0.247425
0.247613
0.247741
0.247863
0.247958
0.24804
0.248106
0.248161
0.248204
0.248237
0.248261
0.248277
0.248282
0.248287
0.245431
0.246532
0.2466
0.247157
0.247277
0.247551
0.247684
0.247856
0.247971
0.248082
0.248169
0.248243
0.248304
0.248353
0.248392
0.248421
0.248443
0.248457
0.248461
0.248465
0.245892
0.246931
0.246995
0.2475
0.247604
0.247845
0.247961
0.248114
0.248214
0.248313
0.248389
0.248455
0.248508
0.248552
0.248586
0.248611
0.24863
0.248641
0.248644
0.248647
0.246366
0.247346
0.247406
0.247857
0.247946
0.248154
0.248252
0.248383
0.248468
0.248553
0.248618
0.248675
0.24872
0.248756
0.248785
0.248806
0.248821
0.24883
0.24883
0.248833
0.246858
0.247773
0.247829
0.248227
0.248301
0.248474
0.248554
0.248662
0.248731
0.248801
0.248854
0.2489
0.248936
0.248965
0.248987
0.249004
0.249015
0.249021
0.24902
0.249021
0.247358
0.248209
0.248262
0.248605
0.248664
0.248803
0.248864
0.248949
0.249001
0.249055
0.249094
0.249129
0.249156
0.249177
0.249193
0.249204
0.249211
0.249214
0.249211
0.249211
0.247871
0.248652
0.2487
0.248992
0.249033
0.249138
0.24918
0.24924
0.249275
0.249312
0.249338
0.249361
0.249378
0.249391
0.2494
0.249406
0.249408
0.249409
0.249403
0.249403
0.248388
0.2491
0.249141
0.249383
0.249404
0.249477
0.249499
0.249535
0.249552
0.249571
0.249584
0.249594
0.249601
0.249605
0.249607
0.249607
0.249606
0.249603
0.249595
0.249593
0.248913
0.249551
0.249585
0.249778
0.249775
0.249817
0.249818
0.249829
0.249829
0.249831
0.249829
0.249827
0.249823
0.249819
0.249814