/*--------------------------------*- C++ -*----------------------------------*\
  =========                 |
  \\      /  F ield         | OpenFOAM: The Open Source CFD Toolbox
   \\    /   O peration     | Website:  https://openfoam.org
    \\  /    A nd           | Version:  7
     \\/     M anipulation  |
\*---------------------------------------------------------------------------*/
FoamFile
{
    version     2.0;
    format      ascii;
    class       volVectorField;
    location    "0.125";
    object      U;
}
// * * * * * * * * * * * * * * * * * * * * * * * * * * * * * * * * * * * * * //

dimensions      [0 1 -1 0 0 0 0];

internalField   nonuniform List<vector> 
48560
(
(221.945 -5.36771 -4.90312e-11)
(221.753 -6.19689 -5.88993e-11)
(221.584 -7.02829 -7.81767e-11)
(221.436 -7.8403 -1.00121e-10)
(221.304 -8.63321 -1.31236e-10)
(221.184 -9.40116 -1.65891e-10)
(221.073 -10.147 -2.09094e-10)
(220.967 -10.8664 -2.55683e-10)
(220.865 -11.5638 -3.093e-10)
(220.765 -12.2365 -3.65456e-10)
(220.665 -12.8902 -4.25961e-10)
(220.564 -13.5231 -4.87217e-10)
(220.461 -14.1406 -5.49462e-10)
(220.354 -14.7411 -6.09778e-10)
(220.242 -15.3283 -6.66241e-10)
(220.123 -15.9004 -7.17003e-10)
(219.995 -16.4602 -7.5882e-10)
(219.856 -17.006 -7.89826e-10)
(219.703 -17.5398 -8.06741e-10)
(219.534 -18.0608 -8.07742e-10)
(219.345 -18.5704 -7.89894e-10)
(219.133 -19.0683 -7.51091e-10)
(218.893 -19.5549 -6.89659e-10)
(218.62 -20.0295 -6.02813e-10)
(218.311 -20.4914 -4.92911e-10)
(217.958 -20.9395 -3.56818e-10)
(217.558 -21.3723 -1.98118e-10)
(217.039 -21.8647 1.69165e-11)
(216.286 -22.4137 3.11408e-10)
(215.393 -22.9119 5.95899e-10)
(214.306 -23.3846 8.8206e-10)
(212.963 -23.8068 1.15979e-09)
(211.281 -24.1917 1.3781e-09)
(209.081 -24.5152 1.53861e-09)
(206.058 -24.7616 1.44279e-09)
(202.492 -24.8964 1.19443e-09)
(198.253 -24.8758 5.65327e-10)
(193.603 -24.7461 -1.40016e-10)
(188.788 -24.4533 -1.37776e-09)
(184.855 -24.0506 -2.54043e-09)
(180.811 -23.2557 -4.16523e-09)
(176.734 -22.62 -4.55009e-09)
(172.877 -21.4534 -5.91315e-09)
(169.147 -20.0222 -6.40459e-09)
(165.804 -18.7133 -7.02709e-09)
(165.081 -16.0973 -9.50444e-09)
(171.768 -12.248 -1.25225e-08)
(191.387 -6.88487 -1.71172e-08)
(221.308 -4.08073 -2.21811e-08)
(250.054 -7.78895 -2.616e-08)
(271.685 -31.4681 -2.92596e-08)
(263.863 -74.1584 -3.08614e-08)
(229.269 -57.6501 -2.97258e-08)
(214.68 -60.7852 -2.98121e-08)
(195.662 -51.6234 -2.92065e-08)
(183.877 -51.0944 -2.92459e-08)
(165.481 -43.5363 -2.86433e-08)
(153.75 -41.3576 -2.86578e-08)
(133.696 -34.3429 -2.80003e-08)
(121.443 -31.2415 -2.80385e-08)
(99.323 -24.1237 -2.73095e-08)
(85.683 -20.4169 -2.73052e-08)
(66.0757 -11.0082 -2.64225e-08)
(66.3463 -8.54307 -2.67568e-08)
(55.7815 -5.5797 -2.62852e-08)
(52.6454 1.1277 -2.60714e-08)
(56.5748 2.2247 -2.63154e-08)
(58.823 4.44237 -2.65331e-08)
(60.5568 6.50871 -2.67387e-08)
(63.5757 8.64364 -2.70229e-08)
(67.9238 11.4707 -2.74326e-08)
(73.4448 14.9745 -2.78814e-08)
(80.3088 19.2409 -2.83849e-08)
(88.7299 24.4694 -2.89257e-08)
(98.929 30.8337 -2.95086e-08)
(111.36 38.4928 -3.01187e-08)
(127.427 48.2365 -3.07944e-08)
(149.438 61.6847 -3.15058e-08)
(182.284 78.9862 -3.2219e-08)
(220.441 84.7196 -3.28676e-08)
(259.689 66.4918 -3.37712e-08)
(254.786 60.4472 -3.40189e-08)
(246.368 53.3835 -3.43844e-08)
(251.803 56.0633 -3.43935e-08)
(256.211 56.6905 -3.4638e-08)
(267.566 53.7093 -3.53837e-08)
(271.759 43.0844 -3.55537e-08)
(275.782 36.6796 -3.59217e-08)
(275.79 26.9355 -3.60894e-08)
(275.43 19.8337 -3.63745e-08)
(273.263 14.3847 -3.64751e-08)
(270.017 8.44321 -3.66525e-08)
(266.521 3.74695 -3.68014e-08)
(263.136 -0.0011624 -3.69416e-08)
(260.008 -3.04811 -3.70482e-08)
(257.305 -5.5127 -3.71534e-08)
(255.074 -7.47894 -3.72334e-08)
(253.411 -8.90355 -3.72968e-08)
(252.353 -9.71776 -3.73425e-08)
(252.112 -9.95823 -3.73662e-08)
(221.19 -5.08788 -5.89689e-10)
(221.007 -5.9457 -6.17889e-10)
(220.84 -6.80026 -6.4682e-10)
(220.704 -7.64506 -6.73422e-10)
(220.576 -8.46253 -6.99018e-10)
(220.465 -9.26014 -7.1859e-10)
(220.354 -10.0282 -7.35729e-10)
(220.249 -10.7748 -7.43012e-10)
(220.139 -11.4972 -7.4559e-10)
(220.026 -12.2042 -7.34525e-10)
(219.907 -12.8957 -7.18439e-10)
(219.781 -13.573 -6.87735e-10)
(219.645 -14.2349 -6.47519e-10)
(219.497 -14.8797 -5.90206e-10)
(219.334 -15.5069 -5.19823e-10)
(219.153 -16.114 -4.31305e-10)
(218.952 -16.702 -3.28228e-10)
(218.727 -17.2692 -2.08783e-10)
(218.476 -17.8191 -7.69052e-11)
(218.196 -18.3515 6.60171e-11)
(217.881 -18.8697 2.22166e-10)
(217.527 -19.3711 3.85846e-10)
(217.126 -19.8552 5.59831e-10)
(216.67 -20.3192 7.35349e-10)
(216.145 -20.7628 9.17299e-10)
(215.537 -21.184 1.0904e-09)
(214.825 -21.5814 1.25732e-09)
(213.848 -22.0214 1.41466e-09)
(212.233 -22.4904 1.51281e-09)
(210.278 -22.9014 1.40469e-09)
(208.018 -23.2593 1.20314e-09)
(205.368 -23.5389 6.84989e-10)
(202.47 -23.7666 1.1155e-10)
(199.345 -23.9087 -9.01212e-10)
(196.471 -23.9689 -1.93613e-09)
(193.655 -23.8486 -3.34124e-09)
(191.145 -23.7679 -3.79498e-09)
(188.656 -23.5227 -5.07316e-09)
(186.652 -23.2637 -5.89774e-09)
(184.845 -22.7269 -6.76974e-09)
(183.405 -22.2538 -7.20648e-09)
(183.04 -21.7387 -8.15424e-09)
(184.915 -20.8174 -1.09405e-08)
(190.625 -20.8877 -1.25634e-08)
(204.545 -21.4823 -1.69153e-08)
(229.833 -22.8105 -2.20592e-08)
(255.635 -23.8671 -2.63465e-08)
(277.806 -24.7597 -2.96231e-08)
(288.943 -26.5145 -3.09974e-08)
(295.84 -34.6628 -3.239e-08)
(287.449 -53.5422 -3.27511e-08)
(275.13 -72.0737 -3.32427e-08)
(246.996 -67.1274 -3.26816e-08)
(235.293 -67.332 -3.25983e-08)
(216.33 -61.472 -3.22331e-08)
(206.916 -58.3938 -3.20964e-08)
(189.502 -52.6491 -3.17844e-08)
(179.974 -48.5889 -3.15794e-08)
(162.665 -42.4782 -3.12938e-08)
(152.775 -37.7518 -3.10333e-08)
(136.166 -31.2762 -3.07755e-08)
(125.728 -26.056 -3.03909e-08)
(113.384 -16.8047 -3.00677e-08)
(111.847 -12.2643 -2.9848e-08)
(107.957 -6.68259 -2.98532e-08)
(105.468 1.30449 -2.9369e-08)
(111.121 3.49159 -2.98179e-08)
(113.938 8.65579 -2.98989e-08)
(116.835 11.7532 -3.01465e-08)
(121.023 15.5199 -3.0322e-08)
(124.798 18.9556 -3.06258e-08)
(130.436 23.1842 -3.08726e-08)
(135.909 27.5026 -3.12265e-08)
(143.594 32.9526 -3.15381e-08)
(151.846 39.109 -3.1944e-08)
(163.024 46.951 -3.2324e-08)
(176.868 56.9037 -3.28032e-08)
(197.309 71.4788 -3.32734e-08)
(221.3 90.2731 -3.38504e-08)
(241.907 94.6581 -3.44549e-08)
(258.387 73.9817 -3.50258e-08)
(263.721 63.9365 -3.55034e-08)
(266.057 61.5185 -3.57018e-08)
(270.263 62.6655 -3.6158e-08)
(272.857 63.4659 -3.59397e-08)
(275.839 59.6064 -3.69375e-08)
(277.533 51.0351 -3.65095e-08)
(279.534 43.4011 -3.72357e-08)
(278.851 33.3396 -3.68495e-08)
(278.004 24.7954 -3.75689e-08)
(274.971 16.7012 -3.71489e-08)
(272.278 10.845 -3.7692e-08)
(268.296 5.71674 -3.73638e-08)
(265.214 1.9854 -3.77569e-08)
(261.551 -1.19582 -3.74871e-08)
(258.96 -3.59793 -3.77603e-08)
(256.277 -5.6709 -3.75466e-08)
(254.712 -7.14224 -3.77068e-08)
(253.724 -7.74747 -3.7598e-08)
(253.359 -7.93815 -3.76203e-08)
(219.987 -4.79953 -1.82325e-10)
(219.792 -5.71121 -1.57201e-10)
(219.576 -6.62094 -1.04042e-10)
(219.423 -7.52527 -6.28846e-11)
(219.245 -8.39291 3.74581e-12)
(219.106 -9.24201 6.16069e-11)
(218.937 -10.0543 1.41677e-10)
(218.787 -10.854 2.16392e-10)
(218.603 -11.6303 3.09203e-10)
(218.423 -12.3959 3.98863e-10)
(218.206 -13.1355 5.04525e-10)
(217.981 -13.8553 6.10477e-10)
(217.716 -14.5413 7.26409e-10)
(217.429 -15.1989 8.40928e-10)
(217.093 -15.819 9.56599e-10)
(216.712 -16.4094 1.0646e-09)
(216.262 -16.9671 1.15991e-09)
(215.732 -17.502 1.23285e-09)
(215.086 -18.0149 1.26602e-09)
(214.396 -18.5117 1.28271e-09)
(213.611 -18.9919 1.25233e-09)
(212.769 -19.4574 1.18902e-09)
(211.833 -19.9046 1.06264e-09)
(210.829 -20.3305 9.20375e-10)
(209.729 -20.7366 6.76528e-10)
(208.559 -21.1166 4.14045e-10)
(207.316 -21.4732 2.7542e-11)
(205.832 -21.8559 -4.54857e-10)
(203.893 -22.2597 -1.32109e-09)
(202.308 -22.6013 -2.15618e-09)
(200.52 -22.8638 -3.27186e-09)
(199.024 -23.0901 -3.59806e-09)
(197.413 -23.2614 -4.62309e-09)
(196.136 -23.3988 -5.19749e-09)
(194.944 -23.4175 -5.95119e-09)
(193.888 -23.3379 -6.42658e-09)
(193.272 -23.171 -7.12801e-09)
(193.115 -22.9856 -8.07557e-09)
(194.529 -22.8287 -1.00607e-08)
(197.553 -23.0409 -1.12214e-08)
(204.154 -23.6031 -1.37599e-08)
(215.881 -24.703 -1.69577e-08)
(233.742 -26.1255 -2.1256e-08)
(253.354 -27.6657 -2.46765e-08)
(273.41 -28.0497 -2.86278e-08)
(287.784 -27.1184 -3.03339e-08)
(299.471 -26.4193 -3.21777e-08)
(305.307 -27.0862 -3.26727e-08)
(307.593 -31.1721 -3.32132e-08)
(303.598 -41.4129 -3.3279e-08)
(292.417 -57.7443 -3.32435e-08)
(276.517 -68.0655 -3.30827e-08)
(256.592 -61.9598 -3.29056e-08)
(244.507 -65.3499 -3.26514e-08)
(227.863 -57.5581 -3.24934e-08)
(217.675 -57.0995 -3.2205e-08)
(202.677 -49.8136 -3.2084e-08)
(192.626 -47.5255 -3.17728e-08)
(178.162 -40.712 -3.16898e-08)
(168.183 -37.2399 -3.13569e-08)
(155.111 -30.7832 -3.13075e-08)
(145.973 -26.3742 -3.09559e-08)
(137.71 -18.2056 -3.09153e-08)
(136.059 -13.8374 -3.0644e-08)
(135.386 -5.90472 -3.07385e-08)
(132.908 0.995018 -3.04435e-08)
(138.64 4.57929 -3.07943e-08)
(139.529 10.9696 -3.07363e-08)
(143.233 14.6249 -3.10234e-08)
(145.455 19.6312 -3.10671e-08)
(149.132 23.9291 -3.13779e-08)
(152.45 28.994 -3.15064e-08)
(156.904 34.149 -3.18488e-08)
(162.028 40.1001 -3.20607e-08)
(168.646 46.7089 -3.24515e-08)
(177.393 54.5428 -3.27577e-08)
(189.892 64.2625 -3.32279e-08)
(208.61 76.267 -3.36583e-08)
(232.075 84.8542 -3.42123e-08)
(250.996 79.6589 -3.46656e-08)
(260.317 67.7103 -3.50156e-08)
(265.186 63.5584 -3.52846e-08)
(267.593 61.0895 -3.55809e-08)
(272.03 59.6338 -3.61009e-08)
(274.946 55.1726 -3.59242e-08)
(277.792 48.5679 -3.67493e-08)
(278.733 41.1951 -3.62535e-08)
(280.056 33.9935 -3.69645e-08)
(278.899 26.4906 -3.65744e-08)
(277.592 20.1403 -3.70979e-08)
(274.456 14.266 -3.68276e-08)
(271.703 9.30766 -3.71929e-08)
(267.975 5.10045 -3.69781e-08)
(264.962 1.73823 -3.7235e-08)
(261.556 -1.00203 -3.70558e-08)
(258.988 -3.07319 -3.72294e-08)
(256.461 -4.57347 -3.70797e-08)
(254.881 -5.47511 -3.71827e-08)
(253.926 -5.7758 -3.71077e-08)
(253.57 -5.88515 -3.71199e-08)
(216.942 -4.51603 6.05639e-10)
(216.666 -5.45252 6.62279e-10)
(216.27 -6.37372 6.7252e-10)
(216.011 -7.29291 7.05629e-10)
(215.631 -8.16732 7.03687e-10)
(215.342 -9.02752 7.07323e-10)
(214.928 -9.84954 6.8515e-10)
(214.567 -10.6652 6.52461e-10)
(214.092 -11.4557 5.99506e-10)
(213.656 -12.2357 5.21231e-10)
(213.123 -12.9853 4.23645e-10)
(212.617 -13.7172 2.87795e-10)
(212.027 -14.4178 1.30097e-10)
(211.453 -15.0984 -7.59642e-11)
(210.81 -15.7499 -3.07788e-10)
(210.179 -16.3814 -5.93504e-10)
(209.504 -16.9858 -9.05285e-10)
(208.858 -17.5685 -1.26638e-09)
(208.222 -18.1218 -1.6397e-09)
(207.583 -18.6475 -2.07148e-09)
(206.95 -19.1412 -2.52567e-09)
(206.337 -19.6068 -3.03122e-09)
(205.712 -20.0195 -3.16352e-09)
(205.102 -20.4334 -3.64098e-09)
(204.492 -20.8072 -3.87643e-09)
(203.908 -21.1732 -4.33722e-09)
(203.342 -21.5008 -4.63866e-09)
(202.736 -21.8597 -5.14607e-09)
(202.043 -22.2178 -5.6532e-09)
(201.513 -22.5039 -6.11707e-09)
(200.991 -22.6712 -6.40224e-09)
(200.717 -22.7676 -6.94213e-09)
(200.62 -22.8607 -7.69969e-09)
(201.333 -23.0651 -9.16442e-09)
(202.717 -23.2559 -9.89007e-09)
(205.359 -23.7414 -1.14578e-08)
(209.954 -24.5069 -1.31899e-08)
(217.058 -25.7164 -1.55825e-08)
(229.127 -27.4874 -1.87398e-08)
(242.032 -29.3751 -2.15365e-08)
(258.043 -31.3144 -2.50918e-08)
(272.299 -32.6022 -2.75536e-08)
(285.718 -33.2321 -2.9993e-08)
(296.951 -33.472 -3.14349e-08)
(305.754 -33.1013 -3.28255e-08)
(311.079 -32.9133 -3.30298e-08)
(314.259 -33.5226 -3.36177e-08)
(315.308 -35.9814 -3.3415e-08)
(312.888 -41.2707 -3.35947e-08)
(306.175 -50.7482 -3.32288e-08)
(294.205 -61.8915 -3.31113e-08)
(279.335 -67.2207 -3.25945e-08)
(262.274 -65.1722 -3.28078e-08)
(249.867 -65.1664 -3.2261e-08)
(235.469 -59.8277 -3.2407e-08)
(224.749 -57.4533 -3.19101e-08)
(211.732 -51.4211 -3.20294e-08)
(201.411 -47.8926 -3.159e-08)
(189.023 -41.7755 -3.17046e-08)
(179.179 -37.4836 -3.12963e-08)
(168.459 -31.2252 -3.14e-08)
(160.276 -25.9414 -3.10474e-08)
(154.009 -18.3002 -3.11569e-08)
(152.301 -12.9599 -3.08663e-08)
(152.213 -5.03762 -3.10175e-08)
(150.306 0.596223 -3.0822e-08)
(154.922 5.91014 -3.10581e-08)
(154.343 11.8018 -3.0978e-08)
(158.262 16.0943 -3.12353e-08)
(158.94 21.0267 -3.12438e-08)
(162.825 25.4655 -3.15268e-08)
(164.794 30.3337 -3.16191e-08)
(169.395 35.4427 -3.19341e-08)
(173.53 41.0822 -3.21135e-08)
(180.515 47.6158 -3.24771e-08)
(189.029 55.3923 -3.27551e-08)
(202.267 65.3122 -3.31915e-08)
(219.259 76.2531 -3.35754e-08)
(237.754 81.7574 -3.40747e-08)
(252.198 74.5074 -3.44168e-08)
(260.429 66.6995 -3.46191e-08)
(265.766 64.3271 -3.482e-08)
(269.16 61.9005 -3.53303e-08)
(272.983 59.8102 -3.54079e-08)
(274.784 54.6561 -3.56392e-08)
(276.836 47.8172 -3.59771e-08)
(277.628 41.2825 -3.58938e-08)
(278.355 34.4167 -3.62089e-08)
(277.297 27.5109 -3.61234e-08)
(275.953 21.1935 -3.63725e-08)
(273.187 15.3352 -3.62436e-08)
(270.511 10.5055 -3.64956e-08)
(267.077 6.3556 -3.6355e-08)
(264.133 3.06835 -3.65293e-08)
(260.949 0.376966 -3.64043e-08)
(258.489 -1.65743 -3.65221e-08)
(256.192 -3.03842 -3.64132e-08)
(254.762 -3.7422 -3.64783e-08)
(253.938 -3.90569 -3.64185e-08)
(253.624 -3.94778 -3.64333e-08)
(212.157 -3.91962 -2.46583e-09)
(211.786 -4.85678 -2.47443e-09)
(211.384 -5.76181 -2.7613e-09)
(211.091 -6.73352 -2.68529e-09)
(210.751 -7.63225 -2.94894e-09)
(210.487 -8.56923 -2.94896e-09)
(210.158 -9.4451 -3.20364e-09)
(209.886 -10.3467 -3.26839e-09)
(209.559 -11.1985 -3.52368e-09)
(209.292 -12.0653 -3.64363e-09)
(208.982 -12.8886 -3.90537e-09)
(208.731 -13.7158 -4.07097e-09)
(208.448 -14.5008 -4.33964e-09)
(208.219 -15.2776 -4.53931e-09)
(207.967 -16.0084 -4.81013e-09)
(207.764 -16.7153 -5.02843e-09)
(207.545 -17.366 -5.29e-09)
(207.368 -17.9734 -5.50687e-09)
(207.175 -18.5128 -5.74238e-09)
(207.008 -18.9998 -5.93448e-09)
(206.82 -19.423 -6.11816e-09)
(206.638 -19.8027 -6.24876e-09)
(206.513 -20.1634 -6.73617e-09)
(206.485 -20.488 -7.04691e-09)
(206.551 -20.7975 -7.51175e-09)
(206.754 -21.0909 -7.94306e-09)
(207.099 -21.3865 -8.43387e-09)
(207.715 -21.7475 -9.04469e-09)
(208.712 -22.1502 -9.81111e-09)
(210.382 -22.6403 -1.07307e-08)
(212.69 -23.2255 -1.18368e-08)
(216.162 -24.0193 -1.32849e-08)
(220.884 -25.041 -1.49526e-08)
(227.912 -26.4074 -1.70879e-08)
(236.379 -28.0217 -1.92033e-08)
(246.398 -29.9169 -2.18104e-08)
(257.467 -31.851 -2.41549e-08)
(268.778 -33.6123 -2.66011e-08)
(278.802 -34.7607 -2.83515e-08)
(289.194 -35.819 -3.02289e-08)
(298.054 -36.4027 -3.15755e-08)
(305.61 -36.7809 -3.25803e-08)
(311.614 -36.7859 -3.33113e-08)
(315.957 -36.6581 -3.35969e-08)
(318.798 -36.5519 -3.38504e-08)
(320.297 -37.0863 -3.36859e-08)
(320.671 -38.5037 -3.3769e-08)
(319.101 -41.5327 -3.33944e-08)
(314.899 -47.3942 -3.33868e-08)
(307.006 -55.6094 -3.28788e-08)
(295.352 -63.4394 -3.26893e-08)
(281.701 -66.2217 -3.20187e-08)
(266.446 -64.8273 -3.23845e-08)
(254.173 -64.14 -3.17427e-08)
(241.132 -59.1636 -3.20084e-08)
(230.155 -56.7096 -3.14568e-08)
(218.416 -50.6663 -3.16668e-08)
(207.93 -47.1978 -3.12177e-08)
(196.804 -40.9442 -3.14038e-08)
(187.068 -36.6866 -3.10075e-08)
(177.685 -30.2191 -3.11554e-08)
(170.217 -24.9366 -3.08564e-08)
(165.122 -17.4567 -3.10151e-08)
(163.387 -11.6318 -3.07573e-08)
(163.211 -4.12556 -3.09098e-08)
(162.016 1.01011 -3.07967e-08)
(165.117 7.60495 -3.0904e-08)
(164.316 12.9173 -3.08726e-08)
(167.5 18.063 -3.10355e-08)
(167.695 23.0784 -3.10666e-08)
(171.112 27.9678 -3.12759e-08)
(172.538 33.0225 -3.13807e-08)
(176.9 38.3655 -3.16462e-08)
(180.617 44.1487 -3.18348e-08)
(187.629 50.8064 -3.21642e-08)
(196.041 58.4527 -3.2446e-08)
(209.381 67.3724 -3.28561e-08)
(225.223 75.011 -3.32304e-08)
(241.657 76.2749 -3.36465e-08)
(252.951 70.3995 -3.38934e-08)
(260.631 65.5229 -3.40146e-08)
(266.073 62.6767 -3.40876e-08)
(269.843 59.9257 -3.49604e-08)
(273.194 55.7458 -3.473e-08)
(274.783 49.937 -3.51936e-08)
(276.233 43.6947 -3.53632e-08)
(276.769 37.6641 -3.53579e-08)
(276.969 31.1405 -3.54329e-08)
(275.795 25.2207 -3.54807e-08)
(274.215 19.5076 -3.55959e-08)
(271.655 14.5163 -3.55185e-08)
(269.066 10.0867 -3.56962e-08)
(265.979 6.44387 -3.56121e-08)
(263.178 3.43753 -3.57315e-08)
(260.286 1.14875 -3.56429e-08)
(257.947 -0.526148 -3.57126e-08)
(255.908 -1.57927 -3.56331e-08)
(254.633 -2.11048 -3.5673e-08)
(253.925 -2.22351 -3.56293e-08)
(253.652 -2.25172 -3.56457e-08)
(212.221 -3.32314 -5.77402e-09)
(211.793 -4.30986 -5.80941e-09)
(211.472 -5.33802 -5.79981e-09)
(211.195 -6.35648 -5.97017e-09)
(210.985 -7.37017 -6.05234e-09)
(210.801 -8.36664 -6.21287e-09)
(210.646 -9.33741 -6.36244e-09)
(210.518 -10.2986 -6.53358e-09)
(210.412 -11.2226 -6.73637e-09)
(210.359 -12.129 -6.93162e-09)
(210.338 -12.9859 -7.17955e-09)
(210.393 -13.8154 -7.40845e-09)
(210.492 -14.5884 -7.69858e-09)
(210.686 -15.3297 -7.96947e-09)
(210.941 -16.0177 -8.30387e-09)
(211.31 -16.6797 -8.62587e-09)
(211.763 -17.3018 -9.01235e-09)
(212.349 -17.9084 -9.39913e-09)
(213.045 -18.4855 -9.85547e-09)
(213.919 -19.0596 -1.03394e-08)
(214.969 -19.6271 -1.09137e-08)
(216.292 -20.2147 -1.15609e-08)
(217.893 -20.8257 -1.2317e-08)
(219.857 -21.4755 -1.30806e-08)
(222.268 -22.1796 -1.40075e-08)
(225.253 -22.96 -1.49894e-08)
(228.956 -23.8492 -1.61767e-08)
(234.326 -25.0547 -1.77105e-08)
(239.474 -26.2801 -1.91863e-08)
(246.604 -27.8679 -2.10421e-08)
(253.44 -29.4136 -2.27522e-08)
(261.423 -31.1291 -2.46159e-08)
(269.004 -32.7206 -2.6259e-08)
(276.48 -34.1687 -2.77794e-08)
(283.811 -35.4975 -2.91592e-08)
(291.07 -36.6868 -3.0483e-08)
(297.835 -37.6766 -3.15322e-08)
(303.978 -38.4626 -3.24826e-08)
(309.351 -39.0639 -3.30994e-08)
(314.006 -39.496 -3.36843e-08)
(317.652 -39.7207 -3.3902e-08)
(320.569 -39.7986 -3.41133e-08)
(322.602 -39.8209 -3.40639e-08)
(323.958 -39.9843 -3.40076e-08)
(324.645 -40.4555 -3.38386e-08)
(324.612 -41.5096 -3.36291e-08)
(323.563 -43.4858 -3.34389e-08)
(320.758 -47.188 -3.31093e-08)
(315.552 -52.7773 -3.2898e-08)
(307.171 -59.4736 -3.2406e-08)
(296.055 -64.9363 -3.20988e-08)
(283.196 -66.6852 -3.1413e-08)
(269.205 -65.3299 -3.17963e-08)
(257.357 -63.9534 -3.11659e-08)
(245.12 -59.4788 -3.14443e-08)
(234.335 -56.3246 -3.09178e-08)
(223.217 -50.6289 -3.11407e-08)
(212.947 -46.5936 -3.07373e-08)
(202.441 -40.4926 -3.09354e-08)
(193.063 -35.7298 -3.0579e-08)
(184.39 -29.1379 -3.07291e-08)
(177.554 -23.4467 -3.04872e-08)
(173.002 -16.144 -3.06615e-08)
(171.225 -10.0297 -3.04462e-08)
(170.781 -3.05354 -3.05901e-08)
(170.086 1.94695 -3.05311e-08)
(171.929 8.8614 -3.05481e-08)
(171.411 13.8274 -3.05665e-08)
(173.663 19.3879 -3.06458e-08)
(174.019 24.2364 -3.071e-08)
(176.894 29.286 -3.08533e-08)
(178.493 34.2403 -3.09852e-08)
(182.679 39.573 -3.12056e-08)
(186.689 45.274 -3.14122e-08)
(193.906 51.8486 -3.17094e-08)
(202.677 59.286 -3.20019e-08)
(215.656 67.332 -3.23769e-08)
(229.617 72.9248 -3.27372e-08)
(243.463 72.4297 -3.30928e-08)
(253.075 67.8683 -3.32876e-08)
(260.509 64.432 -3.33807e-08)
(265.841 61.2143 -3.33771e-08)
(269.456 58.3606 -3.41477e-08)
(271.889 53.3212 -3.41717e-08)
(273.242 47.8194 -3.44041e-08)
(274.316 41.8416 -3.46527e-08)
(274.81 36.1822 -3.44943e-08)
(274.786 30.1199 -3.46325e-08)
(273.787 24.6458 -3.46553e-08)
(272.263 19.2628 -3.47727e-08)
(270.006 14.7102 -3.47282e-08)
(267.549 10.5605 -3.48374e-08)
(264.763 7.1985 -3.47975e-08)
(262.126 4.35519 -3.48737e-08)
(259.548 2.23241 -3.48143e-08)
(257.42 0.69957 -3.48522e-08)
(255.656 -0.170953 -3.47947e-08)
(254.53 -0.600813 -3.48165e-08)
(253.913 -0.688078 -3.47863e-08)
(253.672 -0.711087 -3.47939e-08)
(218.38 -2.39076 -1.01356e-08)
(217.829 -3.40164 -1.01174e-08)
(217.744 -4.42393 -1.03049e-08)
(217.562 -5.50716 -1.04023e-08)
(217.727 -6.56645 -1.0631e-08)
(217.839 -7.6477 -1.08236e-08)
(218.198 -8.69259 -1.11094e-08)
(218.561 -9.7371 -1.13857e-08)
(219.151 -10.7426 -1.17389e-08)
(219.823 -11.7527 -1.20992e-08)
(220.729 -12.7415 -1.25344e-08)
(221.791 -13.7443 -1.29919e-08)
(223.116 -14.7411 -1.35326e-08)
(224.684 -15.7623 -1.41152e-08)
(226.586 -16.794 -1.47985e-08)
(228.855 -17.8655 -1.55533e-08)
(231.6 -18.9731 -1.6439e-08)
(234.842 -20.1429 -1.74176e-08)
(238.334 -21.3342 -1.8453e-08)
(242.279 -22.5856 -1.95615e-08)
(246.499 -23.8592 -2.07211e-08)
(251.104 -25.1713 -2.19238e-08)
(255.926 -26.483 -2.31467e-08)
(261.015 -27.7995 -2.43723e-08)
(266.201 -29.0902 -2.55903e-08)
(271.434 -30.3493 -2.67507e-08)
(276.499 -31.536 -2.78455e-08)
(281.876 -32.7975 -2.8928e-08)
(286.002 -33.853 -2.97313e-08)
(291.786 -35.1753 -3.0804e-08)
(295.877 -36.175 -3.14875e-08)
(301.105 -37.3516 -3.23489e-08)
(304.795 -38.2308 -3.28493e-08)
(309.21 -39.2078 -3.34645e-08)
(312.468 -39.9356 -3.38014e-08)
(316.087 -40.6617 -3.41929e-08)
(318.649 -41.1461 -3.43335e-08)
(321.346 -41.6145 -3.45119e-08)
(323.155 -41.9228 -3.44757e-08)
(324.987 -42.2216 -3.44864e-08)
(326.06 -42.3779 -3.43049e-08)
(327.087 -42.5994 -3.42066e-08)
(327.596 -42.8712 -3.39326e-08)
(327.885 -43.3561 -3.37673e-08)
(327.664 -44.1659 -3.34609e-08)
(326.853 -45.5838 -3.32416e-08)
(324.906 -48.0605 -3.29225e-08)
(321.356 -51.8979 -3.2624e-08)
(315.524 -56.9775 -3.22726e-08)
(307.161 -62.2505 -3.1832e-08)
(296.621 -66.1266 -3.14036e-08)
(284.467 -67.1612 -3.07783e-08)
(271.436 -65.654 -3.11072e-08)
(260.081 -63.7117 -3.05412e-08)
(248.427 -59.3752 -3.07812e-08)
(237.904 -55.8015 -3.03169e-08)
(227.219 -50.1569 -3.05171e-08)
(217.162 -45.7939 -3.01774e-08)
(207.084 -39.6351 -3.03677e-08)
(197.995 -34.5527 -3.00585e-08)
(189.819 -27.767 -3.0197e-08)
(183.4 -21.8492 -3.00074e-08)
(179.157 -14.5953 -3.01816e-08)
(177.254 -8.41463 -3.00069e-08)
(176.595 -1.71458 -3.01376e-08)
(176.13 3.37493 -3.01134e-08)
(177.208 10.2514 -3.00764e-08)
(176.89 15.1669 -3.01206e-08)
(178.457 20.9976 -3.01439e-08)
(179.007 25.8185 -3.02246e-08)
(181.385 31.0636 -3.03182e-08)
(183.2 36.0228 -3.04663e-08)
(187.104 41.428 -3.065e-08)
(191.374 47.1252 -3.08706e-08)
(198.513 53.5573 -3.11406e-08)
(207.437 60.4398 -3.14436e-08)
(219.773 66.9486 -3.17891e-08)
(232.429 70.337 -3.21291e-08)
(244.363 69.0949 -3.24155e-08)
(252.934 65.7133 -3.25686e-08)
(260.126 62.6199 -3.26313e-08)
(265.226 58.8997 -3.2782e-08)
(268.566 55.6923 -3.32967e-08)
(270.583 50.1871 -3.35542e-08)
(271.735 45.2235 -3.361e-08)
(272.61 39.4472 -3.38267e-08)
(273.04 34.272 -3.36906e-08)
(272.883 28.5952 -3.38518e-08)
(271.969 23.6549 -3.37922e-08)
(270.49 18.6672 -3.39415e-08)
(268.447 14.5368 -3.38802e-08)
(266.143 10.6729 -3.39792e-08)
(263.632 7.64464 -3.39491e-08)
(261.204 5.06235 -3.40044e-08)
(258.896 3.23522 -3.39606e-08)
(256.976 1.89501 -3.39811e-08)
(255.442 1.17732 -3.39394e-08)
(254.444 0.809596 -3.39466e-08)
(253.9 0.740273 -3.39266e-08)
(253.686 0.72037 -3.39288e-08)
(237.35 -1.01992 -1.73484e-08)
(237.222 -2.14015 -1.74701e-08)
(237.795 -3.32666 -1.77962e-08)
(238.32 -4.63351 -1.80571e-08)
(239.455 -5.97144 -1.84977e-08)
(240.62 -7.38471 -1.89051e-08)
(242.317 -8.80154 -1.94683e-08)
(244.101 -10.2526 -2.0022e-08)
(246.351 -11.701 -2.07072e-08)
(248.731 -13.1876 -2.13948e-08)
(251.531 -14.6959 -2.21885e-08)
(254.491 -16.2532 -2.2987e-08)
(257.81 -17.837 -2.38645e-08)
(261.275 -19.4562 -2.47375e-08)
(264.999 -21.0811 -2.56548e-08)
(268.784 -22.7057 -2.65425e-08)
(272.651 -24.2948 -2.74263e-08)
(276.45 -25.8436 -2.82511e-08)
(280.437 -27.3629 -2.91043e-08)
(284.345 -28.8284 -2.98961e-08)
(288.319 -30.2405 -3.0684e-08)
(292.177 -31.5863 -3.14036e-08)
(295.997 -32.864 -3.20944e-08)
(299.656 -34.07 -3.2711e-08)
(303.193 -35.2031 -3.32825e-08)
(306.531 -36.2652 -3.37759e-08)
(309.692 -37.2548 -3.42178e-08)
(313.013 -38.3084 -3.46311e-08)
(314.432 -38.9682 -3.47108e-08)
(317.503 -39.9327 -3.50375e-08)
(319 -40.6043 -3.50501e-08)
(321.397 -41.3658 -3.52355e-08)
(322.618 -41.9438 -3.51503e-08)
(324.492 -42.5525 -3.52243e-08)
(325.484 -43.042 -3.50622e-08)
(326.906 -43.512 -3.50452e-08)
(327.643 -43.9001 -3.48145e-08)
(328.642 -44.2415 -3.47258e-08)
(329.14 -44.5508 -3.44395e-08)
(329.776 -44.8105 -3.43027e-08)
(330.043 -45.1155 -3.39725e-08)
(330.354 -45.4446 -3.38016e-08)
(330.278 -45.9163 -3.3456e-08)
(330.101 -46.6004 -3.32565e-08)
(329.316 -47.7134 -3.2902e-08)
(327.963 -49.5089 -3.267e-08)
(325.394 -52.2423 -3.22951e-08)
(321.345 -56.0128 -3.1999e-08)
(315.232 -60.4104 -3.15749e-08)
(307.108 -64.5992 -3.11651e-08)
(297.089 -67.4305 -3.06623e-08)
(285.514 -68.0527 -3.01109e-08)
(273.314 -66.1855 -3.03669e-08)
(262.447 -63.8997 -2.9873e-08)
(251.303 -59.4768 -3.00614e-08)
(241.082 -55.5222 -2.96653e-08)
(230.744 -49.8382 -2.98339e-08)
(220.924 -45.0868 -2.956e-08)
(211.178 -38.8391 -2.97375e-08)
(202.373 -33.333 -2.94718e-08)
(194.561 -26.3599 -2.95965e-08)
(188.421 -20.1497 -2.94499e-08)
(184.308 -12.9555 -2.96221e-08)
(182.245 -6.74022 -2.94787e-08)
(181.403 -0.235384 -2.95991e-08)
(181.002 4.92906 -2.95977e-08)
(181.619 11.6001 -2.953e-08)
(181.381 16.5628 -2.95846e-08)
(182.5 22.4551 -2.95739e-08)
(183.138 27.2373 -2.96575e-08)
(185.175 32.5479 -2.97185e-08)
(187.154 37.4159 -2.98736e-08)
(190.904 42.7938 -3.00333e-08)
(195.461 48.3362 -3.02638e-08)
(202.598 54.5004 -3.05156e-08)
(211.553 60.7102 -3.08225e-08)
(222.992 65.9067 -3.11399e-08)
(234.305 67.8767 -3.14534e-08)
(244.774 66.5144 -3.16917e-08)
(252.777 63.8006 -3.18346e-08)
(259.642 60.7031 -3.18934e-08)
(264.421 56.7395 -3.20619e-08)
(267.37 53.3143 -3.26176e-08)
(269.122 47.8473 -3.25873e-08)
(270.098 43.252 -3.30083e-08)
(270.898 37.7109 -3.27473e-08)
(271.244 32.9231 -3.30351e-08)
(271.061 27.5763 -3.29447e-08)
(270.208 23.0284 -3.30119e-08)
(268.832 18.3666 -3.30846e-08)
(266.97 14.5701 -3.30524e-08)
(264.86 10.9693 -3.31249e-08)
(262.582 8.21681 -3.31056e-08)
(260.377 5.83523 -3.31451e-08)
(258.314 4.22167 -3.31126e-08)
(256.6 3.04657 -3.31134e-08)
(255.255 2.44727 -3.30902e-08)
(254.369 2.12521 -3.30834e-08)
(253.886 2.06955 -3.30734e-08)
(253.693 2.05184 -3.30698e-08)
(268.094 -0.223191 -2.62534e-08)
(268.886 -1.5934 -2.65901e-08)
(270.056 -3.10183 -2.69975e-08)
(271.412 -4.76348 -2.74122e-08)
(273.12 -6.49618 -2.78937e-08)
(274.975 -8.31338 -2.83754e-08)
(277.133 -10.1493 -2.89165e-08)
(279.38 -12.0133 -2.94476e-08)
(281.861 -13.8601 -3.00237e-08)
(284.37 -15.7025 -3.05778e-08)
(287.045 -17.5209 -3.11597e-08)
(289.711 -19.338 -3.17077e-08)
(292.492 -21.1363 -3.22674e-08)
(295.231 -22.927 -3.27826e-08)
(298.032 -24.6919 -3.32951e-08)
(300.757 -26.4351 -3.37551e-08)
(303.498 -28.1382 -3.42009e-08)
(306.139 -29.7992 -3.45919e-08)
(308.76 -31.3964 -3.49626e-08)
(311.243 -32.9249 -3.52721e-08)
(313.669 -34.3716 -3.55559e-08)
(315.93 -35.7327 -3.57766e-08)
(318.102 -37.0019 -3.59694e-08)
(320.095 -38.1782 -3.60998e-08)
(321.979 -39.2605 -3.62017e-08)
(323.68 -40.2504 -3.62469e-08)
(325.258 -41.15 -3.62646e-08)
(326.797 -42.0695 -3.62249e-08)
(327.011 -42.5527 -3.6055e-08)
(328.315 -43.2839 -3.59871e-08)
(328.767 -43.8569 -3.57422e-08)
(329.646 -44.3267 -3.56475e-08)
(329.969 -44.8191 -3.53573e-08)
(330.646 -45.1951 -3.52348e-08)
(330.881 -45.6448 -3.49165e-08)
(331.432 -45.9862 -3.47693e-08)
(331.589 -46.3981 -3.44316e-08)
(332.008 -46.6975 -3.42658e-08)
(332.078 -47.0672 -3.39118e-08)
(332.342 -47.3546 -3.37275e-08)
(332.26 -47.7476 -3.33704e-08)
(332.277 -48.1707 -3.31684e-08)
(331.874 -48.8188 -3.28096e-08)
(331.355 -49.7336 -3.25889e-08)
(330.16 -51.1372 -3.22245e-08)
(328.385 -53.1813 -3.19719e-08)
(325.363 -56.031 -3.15813e-08)
(321.018 -59.5409 -3.12736e-08)
(314.863 -63.3277 -3.08295e-08)
(307.046 -66.7144 -3.04297e-08)
(297.526 -68.854 -2.99049e-08)
(286.489 -69.1641 -2.94091e-08)
(275.047 -66.8608 -2.96035e-08)
(264.64 -64.2934 -2.91668e-08)
(253.98 -59.6652 -2.93101e-08)
(244.061 -55.3763 -2.89702e-08)
(234.041 -49.5432 -2.91115e-08)
(224.451 -44.4373 -2.88946e-08)
(214.999 -38.0171 -2.90626e-08)
(206.454 -32.1189 -2.88335e-08)
(198.935 -24.9273 -2.89465e-08)
(192.979 -18.444 -2.88333e-08)
(188.897 -11.2325 -2.9002e-08)
(186.642 -4.95885 -2.88862e-08)
(185.606 1.45407 -2.89978e-08)
(185.163 6.63189 -2.90136e-08)
(185.494 13.1276 -2.89271e-08)
(185.25 18.1802 -2.89857e-08)
(186.057 24.0661 -2.89536e-08)
(186.696 28.8656 -2.90345e-08)
(188.504 34.2122 -2.90748e-08)
(190.567 39.0195 -2.92334e-08)
(194.232 44.3622 -2.93785e-08)
(198.96 49.7069 -2.96156e-08)
(206.019 55.4744 -2.98562e-08)
(214.783 60.7952 -3.01644e-08)
(225.356 64.6673 -3.04564e-08)
(235.624 65.6198 -3.07504e-08)
(245.023 64.3445 -3.09637e-08)
(252.602 61.838 -3.11028e-08)
(259.063 58.5645 -3.11607e-08)
(263.509 54.3918 -3.13225e-08)
(266.148 50.8362 -3.18385e-08)
(267.724 45.5751 -3.16802e-08)
(268.565 41.2758 -3.23875e-08)
(269.303 36.0339 -3.1781e-08)
(269.563 31.5861 -3.23305e-08)
(269.388 26.5825 -3.19644e-08)
(268.574 22.392 -3.23297e-08)
(267.319 18.0625 -3.21447e-08)
(265.606 14.5821 -3.2315e-08)
(263.692 11.263 -3.22453e-08)
(261.622 8.76869 -3.2313e-08)
(259.639 6.61221 -3.22765e-08)
(257.794 5.19043 -3.22989e-08)
(256.274 4.15091 -3.22584e-08)
(255.088 3.64014 -3.22617e-08)
(254.301 3.35388 -3.22463e-08)
(253.869 3.30822 -3.22395e-08)
(253.696 3.29226 -3.22365e-08)
(296.216 0.0228989 -3.31222e-08)
(297.109 -1.45632 -3.34405e-08)
(297.951 -3.11019 -3.37207e-08)
(299.162 -4.93854 -3.40449e-08)
(300.369 -6.86508 -3.43391e-08)
(301.848 -8.89003 -3.46586e-08)
(303.333 -10.9468 -3.49539e-08)
(304.984 -13.0325 -3.52567e-08)
(306.622 -15.0989 -3.55368e-08)
(308.328 -17.1503 -3.58093e-08)
(309.992 -19.1591 -3.6058e-08)
(311.661 -21.1452 -3.62872e-08)
(313.296 -23.0984 -3.64916e-08)
(314.91 -25.0272 -3.66686e-08)
(316.494 -26.9163 -3.68197e-08)
(318.034 -28.7661 -3.69375e-08)
(319.544 -30.5597 -3.7031e-08)
(320.992 -32.2949 -3.70872e-08)
(322.402 -33.9557 -3.71192e-08)
(323.733 -35.5407 -3.71141e-08)
(325.02 -37.0367 -3.70862e-08)
(326.215 -38.4438 -3.70225e-08)
(327.359 -39.7524 -3.69376e-08)
(328.404 -40.9661 -3.68195e-08)
(329.395 -42.0784 -3.66842e-08)
(330.285 -43.0964 -3.65165e-08)
(331.113 -44.0164 -3.63362e-08)
(331.87 -44.9472 -3.61016e-08)
(331.881 -45.3687 -3.58997e-08)
(332.532 -46.0988 -3.56653e-08)
(332.641 -46.5741 -3.53731e-08)
(333.071 -47.0424 -3.51626e-08)
(333.112 -47.4282 -3.48463e-08)
(333.434 -47.7893 -3.46309e-08)
(333.435 -48.1324 -3.43078e-08)