/*--------------------------------*- C++ -*----------------------------------*\
  =========                 |
  \\      /  F ield         | OpenFOAM: The Open Source CFD Toolbox
   \\    /   O peration     | Website:  https://openfoam.org
    \\  /    A nd           | Version:  7
     \\/     M anipulation  |
\*---------------------------------------------------------------------------*/
FoamFile
{
    version     2.0;
    format      ascii;
    class       scalarField;
    location    "0.7/lagrangian/reactingCloud1";
    object      age;
}
// * * * * * * * * * * * * * * * * * * * * * * * * * * * * * * * * * * * * * //


2429
(
0.00421625
0.004115
0.00401
0.003905
0.0038
0.003695
0.00359
0.003485
0.00338
0.003275
0.00317
0.003065
0.00296
0.002855
0.00285125
0.00275
0.002645
0.00254
0.002435
0.00233
0.002225
0.00212
0.002015
0.00191
0.001805
0.0017
0.00169625
0.001595
0.00149
0.001385
0.00128
0.001175
0.00107
0.000965
0.00086
0.000755
0.00065
0.000545
0.00044
0.000335
0.00023
0.000125
2e-05
0.047925
0.01525
0.011365
0.01126
0.01084
0.01021
0.010315
0.010105
0.01
0.0099
0.0098
0.0097
0.0096
0.0095
0.0094
0.0093
0.0091
0.0092
0.009
0.0089
0.0088
0.0087
0.0086
0.0085
0.0084
0.0083
0.0082
0.0081
0.008
0.0079
0.0078
0.0077
0.0075
0.0076
0.0074
0.0073
0.0072
0.0071
0.007
0.0068
0.0069
0.0067
0.0066
0.0065
0.0063
0.0064
0.0062
0.0061
0.006
0.0059
0.005795
0.00569
0.005585
0.00548
0.005375
0.00527
0.005165
0.00506
0.004955
0.004745
0.00485
0.00464
0.004535
0.00443
0.004325
0.00422
0.012625
0.01273
0.011995
0.01315
0.0121
0.012205
0.01189
0.011785
0.01231
0.0119912
0.01147
0.011575
0.01294
0.01168
0.010945
0.011155
0.010735
0.01105
0.01042
0.010525
0.01063
0.01378
0.01336
0.01728
0.01441
0.0132512
0.01357
0.013255
0.013465
0.013885
0.012835
0.013045
0.01252
0.012415
0.01483
0.014935
0.015145
0.014725
0.01504
0.0151412
0.015775
0.0142
0.0144062
0.014515
0.01462
0.014305
0.01828
0.013675
0.014095
0.01399
0.01698
0.01678
0.01668
0.01708
0.01688
0.01628
0.01648
0.01588
0.01658
0.01618
0.01778
0.01598
0.01546
0.015565
0.01567
0.01608
0.01638
0.015355
0.0226944
0.01988
0.01978
0.01968
0.01938
0.023865
0.01928
0.01958
0.01898
0.01918
0.01948
0.01908
0.02636
0.01888
0.01878
0.01848
0.02208
0.01858
0.01868
0.01818
0.01838
0.01788
0.01768
0.01808
0.02716
0.01738
0.01758
0.01718
0.01798
0.01748
0.024915
0.02616
0.025755
0.024075
0.02397
0.02334
0.023445
0.02313
0.023025
0.023235
0.0225
0.02355
0.02271
0.022395
0.022815
0.02376
0.022605
0.02292
0.021975
0.024285
0.021765
0.022185
0.02145
0.023655
0.02229
0.02187
0.02166
0.021345
0.02124
0.021555
0.021135
0.020925
0.024705
0.02103
0.025125
0.02082
0.020715
0.020505
0.02061
0.0204
0.020295
0.020085
0.01998
0.02019
0.030024
0.0298203
0.0301104
0.0289216
0.0283114
0.036945
0.03122
0.031115
0.03038
0.030485
0.02976
0.02996
0.0308
0.03017
0.02916
0.02946
0.02986
0.02956
0.037845
0.02906
0.02886
0.02846
0.02936
0.02836
0.02856
0.02896
0.02926
0.02876
0.02776
0.02816
0.02826
0.038845
0.02796
0.02786
0.031955
0.02686
0.02696
0.02736
0.02656
0.02766
0.02666
0.02646
0.02596
0.02626
0.02586
0.02606
0.02544
0.02565
0.02676
0.025545
0.02756
0.02806
0.02523
0.02866
0.02746
0.02726
0.02502
0.024495
0.0246
0.02706
0.02439
0.02481
0.025335
0.02418
0.0387004
0.0409588
0.035449
0.0379046
0.0343215
0.0367919
0.0339725
0.0381894
0.0350926
0.0354238
0.0346899
0.0329524
0.04435
0.038945
0.04246
0.038145
0.037645
0.037045
0.036645
0.036745
0.037445
0.038045
0.036345
0.037145
0.036545
0.037345
0.037245
0.037745
0.04036
0.035735
0.036045
0.035525
0.036445
0.036245
0.036145
0.03521
0.035315
0.035
0.03563
0.03584
0.034895
0.035105
0.035945
0.034685
0.03542
0.034475
0.039045
0.034055
0.034265
0.03416
0.033845
0.03479
0.03458
0.03332
0.03374
0.033635
0.0329
0.033425
0.03311
0.032795
0.032375
0.03227
0.03248
0.03269
0.033215
0.130694
0.0319512
0.03185
0.032585
0.03353
0.031535
0.032165
0.031325
0.031745
0.030905
0.03395
0.03206
0.033005
0.03437
0.03143
0.03059
0.030065
0.030695
0.03101
0.030275
0.02966
0.0439659
0.0443774
0.0461678
0.0451591
0.0449273
0.0428328
0.04445
0.0434994
0.0436601
0.0410136
0.0412418
0.0661678
0.0423789
0.0431739
0.0460145
0.0425169
0.045764
0.0420703
0.039941
0.0397504
0.0436671
0.0446288
0.04424
0.0410592
0.0400556
0.0440066
0.048287
0.0457681
0.0391369
0.0422345
0.0412434
0.0430813
0.0378107
0.0380699
0.0446591
0.05013
0.046625
0.047025
0.0537
0.04519
0.04477
0.204366
0.048125
0.044455
0.043825
0.048625
0.051705
0.045925
0.0454
0.043615
0.160635
0.050655
0.046825
0.046725
0.04372
0.04498
0.042985
0.05181
0.043195
0.045085
0.0424432
0.04267
0.042355
0.04309
0.04225
0.042775
0.052335
0.046225
0.0439371
0.04582
0.043405
0.044245
0.0433
0.04162
0.041305
0.0412
0.04183
0.04141
0.0408812
0.041095
0.040465
0.041725
0.04288
0.040885
0.040045
0.04015
0.047725
0.040675
0.042145
0.039345
0.04057
0.039245
0.039545
0.039845
0.040255
0.039145
0.038745
0.0421412
0.04204
0.039745
0.039445
0.04078
0.042565
0.04099
0.038645
0.038545
0.038445
0.0382444
0.041515
0.037545
0.037945
0.039945
0.039645
0.036845
0.0495902
0.0479983
0.0512243
0.0519837
0.0559725
0.0551443
0.0535011
0.047217
0.0502847
0.0554893
0.0470192
0.0538281
0.0553392
0.0511946
0.0506608
0.0553959
0.0506235
0.05669
0.0499009
0.0479147
0.0478955
0.0460588
0.0521501
0.0557782
0.0569292
0.0489823
0.0550257
0.0573752
0.0475576
0.04597
0.0555748
0.0575753
0.0542625
0.0507707
0.047874
0.0451861
0.0567621
0.0497037
0.0505571
0.0551176
0.0473906
0.0489224
0.046231
0.0552322
0.0551304
0.0497158
0.049748
0.0540678
0.0521309
0.0560847
0.047025
0.0531537
0.0543128
0.0557257
0.055416
0.0493677
0.0477757
0.0542493
0.0520887
0.0504161
0.0537599
0.0497327
0.0459888
0.0484326
0.05143
0.0479809
0.0473033
0.0533616
0.0482833
0.0539083
0.0451452
0.0522207
0.0442185
0.0505576
0.0458132
0.0542911
0.0520473
0.0527929
0.0439891
0.0542875
0.065985
0.06305
0.0641
0.064415
0.06494
0.062525
0.057905
0.06452
0.057105
0.0447021
0.06137
0.059905
0.057505
0.104645
0.055905
0.055695
0.056305
0.056405
0.059005
0.0472983
0.05538
0.057605
0.0562937
0.056605
0.059405
0.057305
0.056505
0.05517
0.055065
0.056905
0.05433
0.054225
0.057705
0.059605
0.056705
0.05496
0.054645
0.055275
0.058805
0.054435
0.056205
0.062735
0.05349
0.05559
0.054855
0.052545
0.0533812
0.05223
0.053175
0.05475
0.054015
0.0528562
0.053805
0.05391
0.070195
0.053385
0.05454
0.06347
0.06095
0.052965
0.05034
0.052755
0.050865
0.049825
0.05055
0.049625
0.05412
0.057205
0.049425
0.0448223
0.051915
0.05286
0.05118
0.049325
0.050235
0.053595
0.051495
0.0516
0.0531712
0.05244
0.056005
0.049225
0.0558
0.05076
0.0535912
0.048925
0.050445
0.048325
0.05097
0.05202
0.050025
0.049125
0.049525
0.047625
0.05265
0.05139
0.047325
0.0491887
0.048025
0.052125
0.046925
0.051075
0.051285
0.05328
0.049725
0.048725
0.048525
0.046525
0.048425
0.048225
0.047425
0.049025
0.045295
0.047525
0.049925
0.047825
0.045715
0.046125
0.05307
0.046025
0.04561
0.046325
0.048825
0.047125
0.04456
0.044875
0.045505
0.046425
0.047225
0.04414
0.044665
0.0645424
0.0620282
0.0637905
0.0683643
0.06271
0.06521
0.0646371
0.067523
0.0658095
0.0696766
0.062988
0.0625087
0.0600737
0.0640393
0.0678237
0.0610879
0.0640055
0.0635411
0.0603703
0.0628649
0.0588815
0.0668505
0.0619547
0.0640598
0.0694158
0.063478
0.065622
0.0637142
0.0628716
0.0619234
0.0646606
0.0676236
0.0700357
0.0662931
0.0628311
0.0661047
0.0683468
0.0609518
0.0722877
0.0606261
0.0651041
0.0762991
0.0760244
0.0588166
0.0583411
0.0637235
0.0645968
0.0650095
0.0721551
0.0690645
0.0673282
0.0669906
0.067726
0.058638
0.0711957
0.0589783
0.0637451
0.0620334
0.0673984
0.068664
0.0649971
0.0746465
0.0595224
0.0657041
0.0634137
0.063222
0.0654524
0.0577181
0.064897
0.0802828
0.0607595
0.0618171
0.0599978
0.063475
0.0603441
0.0662035
0.0622044
0.0633544
0.0675245
0.0655469
0.0636903
0.0731601
0.0692918
0.0620213
0.0662973
0.0680426
0.0611907
0.0692296
0.0625148
0.0604383
0.0646681
0.058076
0.0736232
0.0712544
0.0575952
0.068135
0.0624143
0.0690357
0.0635185
0.0677965
0.0625424
0.0625171
0.0713731
0.0693409
0.0601719
0.0627637
0.068735
0.0682585
0.0691815
0.059222
0.0594064
0.0642814
0.0643809
0.0644027
0.0721947
0.0628758
0.0715867
0.0605307
0.0577487
0.0727974
0.0691052
0.0698584
0.0676703
0.0701504
0.0656723
0.0663223
0.0596845
0.0644948
0.056443
0.0593356
0.0702862
0.0695547
0.0625803
0.0700181
0.0649743
0.0586725
0.0677317
0.058486
0.0580921
0.069072
0.0700479
0.0737819
0.0673177
0.0562864
0.0636418
0.0669593
0.0653067
0.0656423
0.0635155
0.0580306
0.0592615
0.0639258
0.0592479
0.0586323
0.0633453
0.0571232
0.0677291
0.0634397
0.063423
0.0586843
0.0606129
0.0698088
0.0661241
0.068933
0.0649811
0.0633627
0.0637483
0.0563028
0.0623835
0.0560479
0.068461
0.064385
0.0622935
0.0619496
0.0632235
0.0654787
0.0643318
0.0675197
0.0674332
0.0723646
0.0657211
0.0612251
0.0679598
0.0635262
0.0634621
0.0735006
0.0583636
0.0567155
0.057982
0.0680495
0.0667779
0.0615806
0.0615342
0.0606551
0.0688641
0.085
0.0591368
0.0686675
0.081115
0.079165
0.08437
0.074395
0.084685
0.078165
0.07513
0.077365
0.07282
0.079965
0.066904
0.07156
0.07009
0.080485
0.07345
0.069885
0.07051
0.070825
0.07072
0.076365
0.069785
0.08206
0.075965
0.072085
0.070615
0.0713462
0.074605
0.069985
0.069385
0.067685
0.07219
0.069485
0.068585
0.068985
0.0638946
0.0560446
0.073345
0.071665
0.066985
0.0734462
0.075445
0.072295
0.068885
0.0602262
0.067985
0.066585
0.0553839
0.07198
0.067585
0.068185
0.069285
0.069685
0.066485
0.073975
0.072715
0.076765
0.067385
0.073765
0.065465
0.067085
0.069185
0.066085
0.0628418
0.068285
0.06578
0.067285
0.069585
0.068385
0.067485
0.067885
0.069085
0.06536
0.065045
0.06368
0.067185
0.059444
0.06473
0.063365
0.064835
0.066285
0.068485
0.06326
0.066385
0.061685
0.065885
0.061895
0.06242
0.0616909
0.063995
0.064625
0.062
0.0620817
0.063575
0.063155
0.062105
0.06389
0.06158
0.06557
0.065255
0.06221
0.068085
0.06263
0.06053
0.06431
0.061475
0.0614712
0.064205
0.060635
0.062945
0.06032
0.059505
0.060845
0.060005
0.066185
0.061265
0.066685
0.060215
0.06011
0.059705
0.059805
0.06116
0.0586661
0.058605
0.065675
0.059105
0.0576992
0.058305
0.058505
0.07114
0.06284
0.07135
0.057405
0.060425
0.058005
0.059205
0.059305
0.141199
0.0571582
0.058205
0.055485
0.066785
0.057005
0.06074
0.056805
0.058105
0.058705
0.0852329
0.0770437
0.0807499
0.0758203
0.0839813
0.0803673
0.088719
0.0822362
0.0861895
0.081509
0.0856399
0.084615
0.0789215
0.0810517
0.0791707
0.0836367
0.085181
0.0777421
0.0924396
0.0849193
0.0808604
0.0759416
0.081475
0.0823482
0.0847338
0.0744793
0.0745671
0.0795512
0.0805526
0.0743734
0.0745727
0.074369
0.0775218
0.0741483
0.0797304
0.0881333
0.0833891
0.0771332
0.0756867
0.0733229
0.0842335
0.0841407
0.0819045
0.0746371
0.0831752
0.0779392
0.0773413
0.0867527
0.0763278
0.0854473
0.0754745
0.0725682
0.0868444
0.0814945
0.071873
0.0864435
0.0737036
0.0733495
0.0745899
0.0837294
0.0739302
0.0807014
0.0731092
0.0887622
0.0803757
0.0833928
0.0908014
0.0818153
0.0800281
0.083378
0.0798721
0.0813433
0.0746745
0.0728755
0.0792663
0.0820231
0.086204
0.0737352
0.07349
0.0779764
0.0735225
0.0777531
0.0846377
0.0824849
0.0762544
0.0821128
0.0874538
0.0866016
0.0810167
0.0887335
0.0777541
0.0808808
0.0792001
0.0735325
0.0815452
0.0835426
0.0833741
0.0814298
0.0801041
0.0864077
0.0760305
0.0822958
0.101409
0.0844186
0.0717863
0.0812842
0.0816802
0.0869579
0.0846666
0.0851669
0.07782
0.081595
0.0784418
0.0774667
0.0850561
0.0780648
0.081495
0.0750152
0.074412
0.0917105
0.0851448
0.0772993
0.0853868
0.0858112
0.0809535
0.0719549
0.0760441
0.0812056
0.0760816
0.0712692
0.0832937
0.0745394
0.0863619
0.0750863
0.0856762
0.0756832
0.0695077
0.0765874
0.0776362
0.0790112
0.0746524
0.0751771
0.0775791
0.0873377
0.0761736
0.0791475
0.0712545
0.0793358
0.073926
0.0771687
0.0803818
0.0751771
0.0739358
0.0735335
0.0897107
0.0765742
0.0723326
0.0859142
0.08499
0.0702446
0.0819746
0.0833015
0.0813735
0.0720348
0.0713211
0.0754439
0.0802842
0.0774232
0.0699461
0.0839606
0.0779464
0.070764
0.0732818
0.083153
0.0823623
0.0760354
0.0825419
0.089845
0.09456
0.09582
0.094875
0.10034
0.085735
0.094035
0.0880997
0.0854032
0.090675
0.0784506
0.090045
0.088045
0.086445
0.088445
0.10202
0.087545
0.086945
0.09288
0.085315
0.0772593
0.086345
0.0832081
0.08374
0.0829
0.086645
0.087145
0.082375
0.0905662
0.0820727
0.087245
0.219575
0.0817685
0.1037
0.082377
0.087045
0.086145
0.08122
0.0849002
0.097725
0.088145
0.0817012
0.0838966
0.0824754
0.08479
0.089645
0.0778177
0.0803069
0.08332
0.08227
0.0812765
0.084895
0.08059
0.0698432
0.0766028
0.081955
0.085525
0.0924562
0.08416
0.08563
0.079865
0.080275
0.0801358
0.08143
0.081535
0.082165
0.083635
0.08521
0.08395
0.0781285
0.08164
0.0777632
0.078161
0.084265
0.079665
0.08101
0.076965
0.086045
0.078465
0.076565
0.09498
0.0840512
0.0808
0.078665
0.080905
0.0812316
0.077565
0.076465
0.076165
0.085105
0.081745
0.079765
0.077465
0.079565
0.07492
0.076065
0.0715205
0.08584
0.076665
0.074185
0.0744155
0.084475
0.09099
0.08542
0.075025
0.075655
0.075624
0.077265
0.076865
0.07429
0.0709618
0.0726947
0.078565
0.08269
0.080695
0.07387
0.077965
0.0755344
0.072505
0.07303
0.07471
0.078965
0.08017
0.079265
0.0710226
0.073135
0.07534
0.0714219
0.07366
0.08311
0.071875
0.0714485
0.07177
0.075235
0.07324
0.0724
0.0745712
0.07555
0.0702152
0.071035
0.08458
0.0707114
0.0959222
0.0999871
0.0961107
0.0986193
0.0967325
0.105866
0.107202
0.0949168
0.0915477
0.108177
0.0916831
0.0956073
0.09781
0.11559
0.0928954
0.0949669
0.107623
0.0998459
0.105757
0.0944034
0.0977232
0.0966536
0.0884288
0.0949162
0.107603
0.0999504
0.0919405
0.095237
0.0909266
0.104133
0.0913584
0.10383
0.10674
0.0955276
0.109383
0.0984706
0.107382
0.0905084
0.0954855
0.0976505
0.0877944
0.104965
0.0954865
0.0986983
0.102154
0.101405
0.128239
0.0939093
0.103916
0.10004
0.0942996
0.0920379
0.0942106
0.10703
0.108194
0.100453
0.109096
0.106398
0.105538
0.104337
0.107274
0.100071
0.133562
0.110237
0.108831
0.112376
0.101467
0.106894
0.093209
0.0944504
0.11137
0.106044
0.112193
0.0988278
0.1029
0.107874
0.0908208
0.0896157
0.104232
0.0906481
0.0892361
0.09955
0.0953388
0.105479
0.0919521
0.0888144
0.102197
0.0984491
0.0910693
0.0926024
0.103987
0.105814
0.0950983
0.0927659
0.0914188
0.106319
0.088842
0.0905874
0.0950124
0.119334
0.095034
0.10216
0.104734
0.0988902
0.0978241
0.0893239
0.0958858
0.110919
0.109212
0.0954719
0.094405
0.0925381
0.0887004
0.105098
0.105472
0.0950319
0.11035
0.094613
0.0992142
0.098568
0.107265
0.0982866
0.113105
0.1056
0.0986769
0.0904967
0.102408
0.0932515
0.0973189
0.092901
0.104194
0.0919887
0.103814
0.0996833
0.107105
0.117058
0.108308
0.11371
0.105171
0.119996
0.0994685
0.106794
0.0944624
0.0954586
0.0971437
0.0922842
0.10201
0.0862877
0.101329
0.0887268
0.0893876
0.105996
0.0932908
0.0996257
0.0985997
0.085763
0.0978823
0.0966128
0.0930655
0.0859568
0.103806
0.091341
0.103196
0.0954717
0.0965524
0.0931114
0.10789
0.0899912
0.0918049
0.0928509
0.104995
0.103526
0.0905141
0.0858781
0.0887371
0.0893982
0.105892
0.0936596
0.102691
0.0995352
0.100758
0.0977843
0.100981
0.0851696
0.0925426
0.102255
0.0859418
0.102871
0.0855262
0.137045
0.12135
0.12282
0.128365
0.13143
0.140465
0.12198
0.12534
0.126765
0.11368
0.107605
0.108405
0.105758
0.114835
0.108612
0.111475
0.119985
0.11032
0.110295
0.111685
0.11074
0.109781
0.107611
0.107505
0.113785
0.12072
0.113365
0.108905
0.107461
0.109205
0.111055
0.108499
0.118585
0.108305
0.11494
0.106505
0.106405
0.111716
0.0854952
0.124919
0.0884829
0.113995
0.107305
0.11137
0.112735
0.11558
0.106705
0.11158
0.0978369
0.109305
0.121875
0.107012
0.110425
0.10538
0.0856909
0.110635
0.105047
0.112101
0.0948425
0.110005
0.0853201
0.104336
0.112525
0.103385
0.121455
0.10391
0.103805
0.12366
0.11179
0.109705
0.10307
0.12303
0.11263
0.117385
0.101414
0.10433
0.103267
0.104015
0.10496
0.10181
0.105485
0.10454
0.12156
0.100687
0.106305
0.101854
0.100445
0.109105
0.102125
0.11116
0.101194
0.105695
0.10181
0.101495
0.10223
0.10265
0.116585
0.116085
0.120825
0.116785
0.109805
0.106005
0.098525
0.102755
0.099825
0.105905
0.102016
0.098925
0.0902056
0.097425
0.098425
0.108805
0.107405
0.099125
0.106905
0.11515
0.10055
0.104855
0.098125
0.10265
0.103175
0.099625
0.109905
0.103595
0.096525
0.095925
0.0935658
0.100235
0.096025
0.098325
0.0956207
0.096625
0.104225
0.102335
0.100865
0.0954079
0.0942554
0.11452
0.099225
0.0971122
0.096725
0.101705
0.202825
0.097325
0.0954
0.10139
0.097225
0.0940159
0.098725
0.098225
0.099025
0.108505
0.097825
0.107205
0.101075
0.099425
0.094455
0.0934109
0.116385
0.111895
0.0931905
0.0907937
0.093405
0.10559
0.09204
0.09393
0.09477
0.099925
0.10118
0.09519
0.0892004
0.096325
0.090255
0.096925
0.0935995
0.091305
0.102965
0.0933
0.0919343
0.094665
0.092775
0.097625
0.0923381
0.097925
0.10286
0.088545
0.0921449
0.095295
0.095085
0.096125
0.089945
0.091515
0.098625
0.09036
0.09057
0.0865689
0.100025
0.09162
0.09141
0.0886524
0.090465
0.089545
0.118085
0.0922681
0.09309
0.096425
0.0912
0.09561
0.088845
0.0906543
0.089345
0.09015
0.10076
0.087645
0.088245
0.088645
0.087845
0.106605
0.089045
0.089745
0.087445
0.086845
0.150535
0.114809
0.141412
0.151221
0.153417
0.136821
0.151864
0.118564
0.114029
0.125505
0.150049
0.13315
0.113545
0.119679
0.120888
0.122465
0.128539
0.168277
0.130482
0.116356
0.142474
0.162227
0.145369
0.150633
0.123603
0.132559
0.160872
0.13504
0.129847
0.123363
0.132462
0.152872
0.122439
0.145545
0.117644
0.153997
0.130017
0.117786
0.117801
0.118021
0.113248
0.14705
0.152026
0.131639
0.117568
0.158518
0.132373
0.134941
0.135018
0.116279
0.153555
0.113825
0.17195
0.15609
0.134894
0.120441
0.120418
0.140386
0.151358
0.127368
0.147911
0.149775
0.155335
0.113027
0.168202
0.121329
0.129497
0.133627
0.168393
0.138493
0.160759
0.140764
0.110543
0.173658
0.129617
0.163837
0.122054
0.129483
0.118821
0.119187
0.132769
0.135709
0.156086
0.133179
0.115065
0.139869
0.130847
0.138472
0.156937
0.116059
0.127257
0.111583
0.154395
0.121266
0.128915
0.141894
0.116942
0.112502
0.125365
0.148797
0.153969
0.158198
0.120439
0.136904
0.138862
0.117951
0.142439
0.151059
0.157849
0.11599
0.144511
0.139541
0.161841
0.143177
0.118163
0.122888
0.159013
0.116343
0.109989
0.110038
0.123081
0.111473
0.13969
0.151959
0.145924
0.135592
0.119291
0.114622
0.13514
0.116875
0.13278
0.132573
0.13295
0.114403
0.15402
0.141185
0.131285
0.138472
0.153363
0.150126
0.147698
0.144465
0.142697
0.140583
0.148779
0.114909
0.135769
0.113249
0.121437
0.123336
0.140621
0.152565
0.126738
0.130047
0.136492
0.121221
0.122095
0.126678
0.135557
0.120425
0.119785
0.133986
0.133674
0.115119
0.11204
0.11308
0.137113
0.122511
0.123823
0.124919
0.134122
0.144493
0.139758
0.127669
0.123736
0.111199
0.117007
0.125149
0.152017
0.110582
0.143296
0.12204
0.140943
0.135068
0.131349
0.158918
0.134536
0.132093
0.163917
0.121229
0.121505
0.126318
0.131963
0.14324
0.120972
0.154086
0.112418
0.140354
0.11609
0.159511
0.118983
0.157997
0.160941
0.124038
0.174456
0.141987
0.196925
0.172085
0.118674
0.135424
0.172295
0.171245
0.205325
0.117064
0.18122
0.166485
0.171665
0.179165
0.165675
0.170825
0.149862
0.162003
0.17156
0.164959
0.178565
0.162315
0.16326
0.168485
0.160005
0.166286
0.175865
0.167285
0.168985
0.169285
0.16578
0.168785
0.170926
0.168085
0.158677
0.17009
0.17093
0.164621
0.12919
0.198625
0.17072
0.178765
0.17198
0.161895
0.159605
0.157705
0.158205
0.164205
0.156712
0.1618
0.158967
0.158008
0.157005
0.169585
0.16242
0.159505
0.175025
0.16368
0.170195
0.16158
0.169685
0.170405
0.154432
0.157298
0.134721
0.156305
0.119741
0.156505
0.142669
0.1533
0.179065
0.1641
0.158405
0.153971
0.15517
0.153805
0.159705
0.159105
0.11232
0.152226
0.16137
0.155065
0.165885
0.153385
0.160215
0.16431
0.159405
0.160642
0.157305
0.16452
0.15223
0.16116
0.160425
0.15265
0.156805
0.15559
0.157807
0.17135
0.188645
0.153824
0.151044
0.145835
0.16011
0.179265
0.159305
0.156905
0.15538
0.16221
0.15328
0.150025
0.158705
0.149425
0.136801
0.15412
0.152883
0.119567
0.147043
0.147225
0.149033
0.148825
0.156105
0.15139
0.149925
0.146125
0.1537
0.115222
0.111116
0.15034
0.158605
0.150235
0.150833
0.1241
0.146325
0.15433
0.155695
0.145242
0.148225
0.119193
0.17261
0.15118
0.1558
0.151495
0.143552
0.166185
0.165255
0.154855
0.109778
0.145085
0.15055
0.146525
0.147825
0.166485
0.111497
0.15286
0.14225
0.15496
0.147925
0.147336
0.15307
0.143628
0.144748
0.123183
0.112835
0.11549
0.141511
0.140161
0.144035
0.139989
0.142579
0.169085
0.150445
0.128279
0.146625
0.148925
0.146623
0.145186
0.142775
0.150655
0.151202
0.126585
0.139745
0.144245
0.14498
0.15013
0.139401
0.15454
0.139997
0.148725
0.1516
0.1433
0.139142
0.14309
0.15349
0.149725
0.14435
0.140045
0.146925
0.138845
0.149525
0.122499
0.13986
0.137062
0.153595
0.148083
0.138345
0.152517
0.14477
0.135919
0.138541
0.14183
0.132987
0.140889
0.147325
0.149325
0.141095
0.135945
0.156205
0.14162
0.153175
0.137745
0.112961
0.139923
0.116994
0.137753
0.137155
0.154645
0.135735
0.142985
0.13487
0.114769
0.136045
0.14519
0.135328
0.137945
0.132763
0.13416
0.158305
0.142355
0.150651
0.133635
0.135546
0.137445
0.13521
0.132056
0.14561
0.139545
0.147725
0.1308
0.133425
0.113124
0.136457
0.144455
0.147625
0.140675
0.13584
0.132169
0.15076
0.136345
0.134685
0.132128
0.145925
0.134895
0.136845
0.158905
0.148525
0.138245
0.128465
0.157605
0.15097
0.130275
0.125121
0.124097
0.131447
0.129665
0.135206
0.136391
0.15181
0.129965
0.138745
0.127165
0.145295
0.126723
0.138545
0.129365
0.13038
0.129661
0.134265
0.12636
0.131115
0.140885
0.134055
0.129865
0.126965
0.126365
0.130485
0.118316
0.143825
0.145186
0.138354
0.134475
0.123345
0.126665
0.12513
0.123555
0.13206
0.129956
0.136945
0.114223
0.12723
0.129565
0.136745
0.12555
0.13332
0.151915
0.110273
0.13185
0.131325
0.12083
0.135
0.13311
0.128865
0.141935
0.127265
0.137794
0.124815
0.126065
0.125965
0.129265
0.136245
0.122748
0.13164
0.139345
0.13353
0.118573
0.114699
0.120405
0.1329
0.126265
0.129065
0.1203
0.124094
0.121665
0.12009
0.122995
0.125445
0.128965
0.124605
0.126465
0.126565
0.13269
0.119485
0.123135
0.12429
0.114095
0.117253
0.132585
0.133845
0.1245
0.13101
0.127765
0.117831
0.117785
0.117285
0.122715
0.123765
0.116485
0.128665
0.127965
0.115985
0.118185
0.116985
0.120413
0.115683
0.120615
0.11536
0.116685
0.12219
0.116037
0.115474
0.13248
0.11749
0.11473
0.125655
0.127065
0.118685
0.115378
0.119785
0.113486
0.117185
0.12471
0.12387
0.12345
0.113155
0.114384
0.114205
0.120195
0.119885
0.13458
0.117985
0.114415
0.121035
0.111261
0.113
0.109685
0.117885
0.11389
0.11284
0.112315
0.11326
0.116185
0.11578
0.119085
0.114007
0.109405
0.112953
0.110162
0.121245
0.13017
0.11242
0.109284
0.127565
0.11011
0.11221
0.109605
0.108105
)


// ************************************************************************* //
