/*--------------------------------*- C++ -*----------------------------------*\
  =========                 |
  \\      /  F ield         | OpenFOAM: The Open Source CFD Toolbox
   \\    /   O peration     | Website:  https://openfoam.org
    \\  /    A nd           | Version:  7
     \\/     M anipulation  |
\*---------------------------------------------------------------------------*/
FoamFile
{
    version     2.0;
    format      ascii;
    class       scalarField;
    location    "0.7/lagrangian/reactingCloud1";
    object      cellDensity;
}
// * * * * * * * * * * * * * * * * * * * * * * * * * * * * * * * * * * * * * //


2429
(
0.250783
0.250588
0.250452
0.25013
0.248839
0.249487
0.248239
0.249256
0.248877
0.249317
0.248695
0.24711
0.248487
0.248567
0.24839
0.247494
0.248472
0.246889
0.247953
0.247093
0.248205
0.247672
0.247617
0.247916
0.247473
0.247471
0.247336
0.247666
0.247555
0.247732
0.247738
0.247911
0.247783
0.247885
0.247823
0.247808
0.247874
0.247846
0.247812
0.247822
0.247826
0.247731
0.247779
0.251889
0.250709
0.250069
0.252186
0.252536
0.251699
0.252614
0.250597
0.250991
0.249367
0.250243
0.253151
0.25265
0.252919
0.253278
0.251526
0.253154
0.250444
0.251554
0.252731
0.253007
0.253499
0.254018
0.25322
0.254075
0.253739
0.25243
0.252768
0.252958
0.252393
0.252858
0.252857
0.253913
0.25272
0.253097
0.25397
0.253474
0.253814
0.2531
0.253696
0.252907
0.253696
0.253441
0.253243
0.253479
0.2528
0.253293
0.252746
0.253403
0.252895
0.252953
0.253287
0.25323
0.252499
0.252708
0.25218
0.252895
0.253032
0.252153
0.252159
0.251528
0.251906
0.252037
0.251043
0.251239
0.251025
0.206984
0.210436
0.218923
0.221945
0.223351
0.225415
0.224653
0.228059
0.236166
0.234945
0.237609
0.237882
0.241903
0.243472
0.242439
0.244768
0.244638
0.247448
0.245238
0.246504
0.24843
0.177452
0.178332
0.231357
0.183209
0.185016
0.184148
0.190688
0.190969
0.190969
0.193424
0.193503
0.200155
0.205708
0.165229
0.165229
0.165437
0.16534
0.167072
0.16974
0.168107
0.167416
0.167078
0.167838
0.169913
0.170002
0.173521
0.172415
0.172246
0.173431
0.163694
0.163781
0.163843
0.180674
0.180307
0.164014
0.164427
0.164158
0.177843
0.164111
0.190292
0.164314
0.164404
0.164384
0.164456
0.215735
0.169934
0.164729
0.162823
0.162561
0.162583
0.162606
0.162697
0.205159
0.16272
0.175281
0.162843
0.162748
0.182724
0.162824
0.192503
0.162907
0.162879
0.163011
0.196913
0.162979
0.166326
0.163154
0.174002
0.163265
0.16335
0.176233
0.192247
0.163515
0.163654
0.16361
0.19752
0.164082
0.213499
0.228121
0.239215
0.168343
0.172276
0.162183
0.162128
0.179296
0.162192
0.188542
0.162212
0.25983
0.16234
0.162226
0.162638
0.365693
0.170925
0.179657
0.16226
0.230561
0.162303
0.177199
0.162326
0.212085
0.196881
0.162651
0.16233
0.162328
0.162342
0.165448
0.163803
0.16236
0.174822
0.162732
0.178316
0.162368
0.162391
0.162422
0.183461
0.162834
0.163079
0.162516
0.162514
0.162676
0.161999
0.162039
0.161996
0.162015
0.162022
0.353097
0.259117
0.206989
0.236146
0.161978
0.165028
0.166264
0.212518
0.19166
0.161992
0.162155
0.248912
0.162329
0.358073
0.17125
0.170805
0.162005
0.178985
0.162007
0.170366
0.161994
0.229998
0.188875
0.162011
0.187028
0.184264
0.201692
0.170129
0.165251
0.357409
0.162036
0.162013
0.174347
0.162055
0.18012
0.162284
0.191197
0.182008
0.187558
0.162043
0.183597
0.162065
0.168389
0.192835
0.162123
0.22091
0.211677
0.163592
0.246614
0.215097
0.252632
0.175229
0.162104
0.162083
0.162137
0.162094
0.162245
0.214139
0.162114
0.161943
0.161937
0.161946
0.161936
0.161948
0.161937
0.161951
0.161936
0.161941
0.161943
0.161973
0.161988
0.336953
0.2229
0.266809
0.222519
0.183124
0.189002
0.162285
0.167187
0.191896
0.22735
0.161935
0.198147
0.161948
0.215398
0.218186
0.200074
0.332434
0.16194
0.188924
0.161946
0.273963
0.235339
0.161952
0.161943
0.210799
0.16572
0.193768
0.173852
0.169541
0.167776
0.205101
0.180243
0.161944
0.179354
0.256227
0.161965
0.173408
0.178908
0.168643
0.203117
0.26446
0.162011
0.183649
0.162032
0.162205
0.194214
0.161955
0.173869
0.162024
0.161957
0.171645
0.255138
0.19453
0.161965
0.170771
0.16259
0.196697
0.210568
0.161961
0.234479
0.161966
0.18342
0.162743
0.209008
0.218515
0.202492
0.202492
0.229115
0.162779
0.161979
0.187781
0.18527
0.182357
0.16198
0.161981
0.162008
0.162064
0.162064
0.161963
0.162019
0.161938
0.162008
0.161981
0.161936
0.161936
0.162008
0.161954
0.161998
0.162008
0.161933
0.162032
0.161944
0.161932
0.161932
0.161954
0.162032
0.161998
0.161935
0.161934
0.161981
0.162064
0.161998
0.161932
0.161981
0.161941
0.161989
0.161932
0.161933
0.161933
0.326561
0.268756
0.236747
0.325106
0.224095
0.194311
0.338599
0.25425
0.218663
0.224095
0.303603
0.344986
0.206674
0.18478
0.190004
0.237285
0.262005
0.308717
0.229341
0.186609
0.235704
0.171312
0.369189
0.207094
0.249371
0.161958
0.19363
0.18807
0.216954
0.162219
0.165994
0.371491
0.300871
0.162128
0.23589
0.20543
0.286945
0.23826
0.182189
0.210737
0.168973
0.195954
0.195954
0.164593
0.162631
0.162551
0.244917
0.254483
0.18642
0.167187
0.189683
0.240891
0.183733
0.273685
0.161964
0.26314
0.173115
0.176168
0.192212
0.242689
0.175747
0.162075
0.242254
0.26579
0.216232
0.187452
0.235533
0.329985
0.333831
0.188053
0.19001
0.184279
0.161932
0.268428
0.161954
0.187188
0.206157
0.221664
0.163189
0.169425
0.16595
0.179802
0.168112
0.199043
0.20122
0.192483
0.163445
0.169425
0.20122
0.163445
0.192483
0.203385
0.174163
0.177845
0.203385
0.169425
0.179802
0.175961
0.16286
0.166951
0.162663
0.186
0.190304
0.194669
0.168112
0.203385
0.192483
0.165109
0.162507
0.203385
0.190304
0.196858
0.170881
0.162507
0.162507
0.199043
0.166951
0.165109
0.203385
0.163445
0.164422
0.16286
0.20122
0.203385
0.172465
0.162286
0.196858
0.163114
0.203385
0.163114
0.166951
0.194669
0.181821
0.199043
0.166951
0.165109
0.20122
0.177845
0.174163
0.190304
0.162213
0.162158
0.16595
0.177845
0.16286
0.163873
0.194669
0.163873
0.183891
0.162158
0.188141
0.162117
0.175961
0.162507
0.194669
0.183891
0.177845
0.162117
0.199043
0.330705
0.340928
0.331306
0.279891
0.337557
0.296583
0.307051
0.377044
0.231525
0.162087
0.224927
0.236198
0.285054
0.210208
0.248936
0.243591
0.243591
0.266333
0.226241
0.163114
0.209193
0.247979
0.199043
0.209524
0.261592
0.250518
0.199919
0.202051
0.236062
0.243101
0.212662
0.195254
0.325406
0.276177
0.263266
0.298206
0.210783
0.240468
0.253573
0.235348
0.275379
0.327289
0.243074
0.234375
0.243074
0.207934
0.204896
0.195083
0.234206
0.260778
0.251616
0.209989
0.234136
0.227816
0.386015
0.267252
0.237855
0.317442
0.281353
0.229352
0.187325
0.236253
0.236253
0.179212
0.197129
0.187325
0.273313
0.273313
0.181648
0.162087
0.250961
0.334003
0.208861
0.212634
0.269006
0.34356
0.246826
0.284834
0.282913
0.256053
0.236869
0.192926
0.355557
0.272797
0.311612
0.206514
0.236869
0.20278
0.246818
0.20278
0.203466
0.243902
0.243902
0.196172
0.302214
0.219133
0.16523
0.173655
0.17924
0.260112
0.17499
0.275922
0.338982
0.325232
0.261967
0.254929
0.211738
0.187159
0.226014
0.230611
0.199491
0.241591
0.173141
0.21171
0.233487
0.210641
0.22636
0.20643
0.312778
0.184154
0.177084
0.200465
0.236771
0.236771
0.177811
0.162313
0.238583
0.193855
0.23035
0.183348
0.196913
0.248437
0.23615
0.242536
0.253887
0.239405
0.244055
0.248437
0.257701
0.251216
0.260123
0.237794
0.234475
0.229254
0.247005
0.257701
0.231027
0.244055
0.242536
0.229254
0.234475
0.223737
0.247005
0.234475
0.244055
0.2613
0.23615
0.24984
0.240986
0.239405
0.234475
0.247005
0.253887
0.2613
0.25391
0.240986
0.252564
0.256455
0.227448
0.257701
0.232767
0.234475
0.257701
0.256455
0.221833
0.221833
0.237794
0.240986
0.240986
0.262454
0.253887
0.248437
0.253887
0.219897
0.219897
0.258924
0.225609
0.242536
0.219897
0.255183
0.256455
0.247005
0.255183
0.219897
0.225609
0.242536
0.232767
0.245545
0.21793
0.242536
0.2613
0.232767
0.227448
0.227448
0.239405
0.231027
0.247005
0.239405
0.232767
0.245545
0.242536
0.239405
0.2613
0.257701
0.221833
0.252564
0.253887
0.234475
0.258924
0.237794
0.229254
0.244055
0.215932
0.255183
0.262454
0.215932
0.242536
0.227448
0.245545
0.242536
0.255183
0.23615
0.239405
0.256455
0.258924
0.227448
0.240986
0.2613
0.255183
0.2613
0.223737
0.225609
0.247005
0.248437
0.232767
0.260123
0.239405
0.256455
0.229254
0.213905
0.257701
0.258924
0.247005
0.255183
0.2613
0.239405
0.251216
0.221833
0.242536
0.21185
0.225609
0.231027
0.262454
0.231027
0.2613
0.242536
0.21185
0.252564
0.221833
0.21185
0.262454
0.260123
0.262454
0.253887
0.209768
0.237828
0.253887
0.24984
0.251216
0.231027
0.219897
0.225609
0.245545
0.223737
0.221833
0.234475
0.209768
0.240986
0.23615
0.239405
0.21793
0.231027
0.253887
0.23615
0.256455
0.245545
0.244055
0.239405
0.207661
0.237794
0.207661
0.245545
0.247005
0.225609
0.237794
0.242536
0.248437
0.23615
0.253887
0.255183
0.252564
0.244055
0.234475
0.256455
0.239405
0.239405
0.255183
0.221833
0.213905
0.215932
0.253887
0.247005
0.231027
0.232767
0.232767
0.258924
0.372509
0.219897
0.258924
0.344982
0.329899
0.344009
0.319178
0.32308
0.327114
0.289967
0.271608
0.271608
0.35265
0.248437
0.275185
0.26642
0.318237
0.32639
0.263667
0.272758
0.280554
0.26618
0.323895
0.286626
0.361775
0.267963
0.276344
0.265145
0.26538
0.291736
0.272911
0.258987
0.260838
0.266562
0.263958
0.270766
0.264955
0.237794
0.207661
0.295902
0.273177
0.257933
0.271677
0.386152
0.267179
0.271617
0.207661
0.260163
0.257132
0.205533
0.282834
0.25593
0.27841
0.28373
0.274113
0.266257
0.271772
0.373669
0.281751
0.255195
0.287386
0.248279
0.261421
0.306213
0.28985
0.229254
0.278739
0.292129
0.250916
0.265799
0.280134
0.266712
0.25885
0.266823
0.324157
0.257652
0.249428
0.246178
0.219897
0.241263
0.253409
0.253108
0.2823
0.273743
0.249052
0.27205
0.236369
0.269898
0.260337
0.247799
0.234512
0.278576
0.261491
0.23897
0.234475
0.263555
0.264874
0.270317
0.250613
0.246971
0.322165
0.258674
0.253454
0.323321
0.249478
0.234703
0.271312
0.234194
0.240061
0.262552
0.234682
0.231682
0.23313
0.23552
0.228156
0.227289
0.284198
0.258608
0.303089
0.261468
0.228416
0.266433
0.235332
0.254472
0.232923
0.230109
0.256136
0.231462
0.216099
0.250135
0.224236
0.318116
0.245067
0.309029
0.22256
0.223822
0.253675
0.319397
0.274267
0.24559
0.207871
0.224412
0.205604
0.338112
0.215546
0.252042
0.252042
0.244991
0.249207
0.288919
0.276523
0.286092
0.274727
0.289606
0.27993
0.289606
0.278256
0.29163
0.286092
0.286092
0.29163
0.27993
0.274727
0.27993
0.284623
0.288919
0.276523
0.285362
0.287522
0.273805
0.274727
0.275633
0.283872
0.289606
0.274727
0.272866
0.277397
0.272866
0.273805
0.270935
0.273805
0.272866
0.271909
0.284623
0.290961
0.287522
0.275633
0.276523
0.272866
0.290961
0.290287
0.283109
0.270935
0.288225
0.280745
0.269943
0.284623
0.271909
0.288225
0.276523
0.268933
0.283109
0.288225
0.268933
0.290287
0.268933
0.272866
0.275633
0.284623
0.271909
0.286811
0.268933
0.283109
0.2791
0.283109
0.289606
0.27993
0.2791
0.280745
0.281546
0.286811
0.275633
0.270935
0.277397
0.286092
0.29163
0.267903
0.267903
0.2791
0.273805
0.271909
0.288919
0.283872
0.277397
0.281546
0.289606
0.288919
0.281546
0.282334
0.273805
0.286092
0.284623
0.271909
0.281546
0.284623
0.288919
0.285362
0.276523
0.27993
0.272866
0.277397
0.278256
0.280745
0.266854
0.266854
0.287522
0.289606
0.286092
0.29163
0.269943
0.278256
0.280745
0.265785
0.293523
0.275633
0.286811
0.265785
0.271909
0.292293
0.289606
0.277397
0.29163
0.29163
0.281546
0.266854
0.277397
0.277397
0.266854
0.265785
0.290961
0.272866
0.288919
0.274727
0.277397
0.275633
0.264696
0.2791
0.2791
0.282334
0.264696
0.276523
0.273805
0.290287
0.276523
0.283109
0.264696
0.275633
0.272866
0.276523
0.277397
0.264696
0.264696
0.271909
0.288225
0.271909
0.264696
0.290287
0.290287
0.264696
0.281546
0.288225
0.286811
0.263585
0.263585
0.263585
0.285362
0.272866
0.263585
0.290961
0.278256
0.265785
0.269943
0.283872
0.286811
0.274727
0.285362
0.368413
0.318965
0.379369
0.351085
0.317258
0.294817
0.360881
0.294619
0.308743
0.292343
0.2791
0.315267
0.293443
0.295571
0.311355
0.333582
0.321723
0.298334
0.304994
0.332915
0.2791
0.306409
0.286092
0.292656
0.305884
0.360762
0.298246
0.289542
0.306499
0.286811
0.294034
0.302416
0.29402
0.369425
0.302844
0.321447
0.311034
0.288552
0.286092
0.358112
0.297885
0.286871
0.281546
0.302457
0.291317
0.286153
0.278256
0.270935
0.296176
0.287138
0.306166
0.329708
0.292688
0.263585
0.264696
0.310995
0.334407
0.317728
0.299737
0.354454
0.288103
0.286132
0.28565
0.290276
0.291286
0.283963
0.293863
0.314124
0.284524
0.281993
0.340526
0.291892
0.281967
0.293391
0.297513
0.284671
0.280072
0.332655
0.300511
0.287514
0.297284
0.308782
0.284355
0.294316
0.31372
0.276523
0.29104
0.278787
0.283326
0.300301
0.306929
0.283326
0.283748
0.321524
0.276251
0.277484
0.263585
0.32076
0.274811
0.274938
0.278345
0.291599
0.347513
0.282749
0.305082
0.284697
0.271371
0.271028
0.276983
0.274226
0.263585
0.269943
0.289381
0.310239
0.274072
0.305923
0.270644
0.268949
0.274856
0.272787
0.298459
0.347124
0.295652
0.299169
0.272049
0.270169
0.3224
0.30909
0.280217
0.350423
0.274921
0.266957
0.271764
0.314153
0.265785
0.285758
0.265785
0.296561
0.26687
0.268201
0.337638
0.264113
0.304357
0.307494
0.303732
0.303106
0.304984
0.311276
0.314475
0.301855
0.298088
0.314475
0.299348
0.303106
0.304357
0.313834
0.302481
0.302481
0.311909
0.306238
0.313189
0.301855
0.30561
0.304357
0.297455
0.302481
0.314475
0.304984
0.299976
0.303732
0.299348
0.311276
0.300603
0.308124
0.308124
0.303732
0.314475
0.306865
0.311909
0.296183
0.302481
0.303106
0.296183
0.312549
0.302481
0.306238
0.311909
0.30561
0.312549
0.301229
0.310644
0.303106
0.302481
0.298719
0.300603
0.311276
0.299976
0.309388
0.313189
0.313189
0.313834
0.311276
0.302481
0.307494
0.313189
0.309384
0.314475
0.313834
0.303106
0.309384
0.298719
0.304357
0.311909
0.298088
0.299976
0.308124
0.307494
0.313834
0.296183
0.297455
0.297455
0.298719
0.295544
0.306238
0.304984
0.308754
0.295544
0.295544
0.308754
0.308124
0.297455
0.299348
0.310644
0.309384
0.303106
0.294901
0.298088
0.313834
0.298088
0.299348
0.303106
0.309384
0.297455
0.309384
0.310014
0.301229
0.306238
0.295544
0.296183
0.304357
0.311276
0.303732
0.304357
0.298719
0.294901
0.313189
0.311909
0.303106
0.310644
0.294901
0.308124
0.308124
0.311914
0.307494
0.313834
0.310644
0.300603
0.297455
0.308124
0.301855
0.30561
0.302481
0.311276
0.300603
0.311276
0.307494
0.314475
0.313189
0.313834
0.312549
0.304984
0.312549
0.306865
0.314475
0.301855
0.299976
0.304984
0.301229
0.306865
0.294901
0.308754
0.29682
0.296183
0.310014
0.298088
0.306238
0.308124
0.293605
0.304984
0.306238
0.299976
0.293605
0.310644
0.301229
0.307494
0.303106
0.301855
0.297455
0.306865
0.293605
0.300603
0.297455
0.308124
0.310644
0.299348
0.293605
0.293605
0.294255
0.313214
0.293605
0.306238
0.30561
0.307494
0.306865
0.307494
0.292951
0.299348
0.309384
0.292951
0.308754
0.292951
0.34609
0.341398
0.354904
0.356396
0.349574
0.38641
0.334855
0.370544
0.360635
0.355486
0.314662
0.328801
0.312549
0.326461
0.318266
0.316768
0.314516
0.348094
0.314189
0.344188
0.329009
0.31428
0.322585
0.343322
0.337187
0.357128
0.341239
0.347402
0.315205
0.324417
0.316494
0.315446
0.337874
0.320195
0.344111
0.324168
0.314012
0.310014
0.292951
0.312549
0.294901
0.315293
0.325917
0.322401
0.320673
0.312575
0.322922
0.320423
0.30561
0.329666
0.384548
0.312386
0.340293
0.327734
0.292951
0.318033
0.311909
0.318498
0.303106
0.334182
0.292951
0.311322
0.359157
0.355334
0.332094
0.314071
0.3139
0.38632
0.354987
0.343864
0.312682
0.314445
0.312819
0.345386
0.31317
0.324525
0.335824
0.314737
0.315856
0.310087
0.317826
0.321966
0.374841
0.309487
0.310742
0.312973
0.310229
0.318886
0.311654
0.317179
0.338081
0.324512
0.315174
0.314664
0.311223
0.30886
0.324181
0.385872
0.347679
0.357358
0.311379
0.36889
0.308913
0.317009
0.312095
0.316455
0.308049
0.30961
0.293605
0.308343
0.309659
0.306243
0.345267
0.307389
0.322897
0.328207
0.308149
0.33823
0.317523
0.309255
0.30715
0.310604
0.368911
0.311144
0.306425
0.305299
0.300603
0.335246
0.306864
0.31873
0.30448
0.303791
0.331405
0.328165
0.332638
0.305961
0.304363
0.356901
0.308685
0.31092
0.310163
0.341796
0.345685
0.311987
0.384506
0.322536
0.334362
0.317656
0.316579
0.303658
0.310331
0.385629
0.30811
0.380764
0.330774
0.305413
0.305637
0.30811
0.382249
0.307372
0.302725
0.299976
0.313298
0.386087
0.302854
0.301073
0.301819
0.361919
0.332593
0.320355
0.308796
0.305277
0.29876
0.309336
0.298719
0.347707
0.340762
0.302453
0.320673
0.298482
0.301769
0.307102
0.297455
0.326705
0.338396
0.300561
0.298445
0.301666
0.298445
0.320419
0.30318
0.302148
0.335029
0.304089
0.305846
0.292951
0.380598
0.307959
0.323572
0.307238
0.301581
0.297766
0.337828
0.295566
0.303719
0.32244
0.301319
0.363366
0.297157
0.296248
0.299701
0.307846
0.31385
0.334748
0.302585
0.300935
0.293687
0.34857
0.29859
0.295155
0.299786
0.296277
0.33386
0.320809
0.331194
0.33386
0.332795
0.328943
0.33386
0.318905
0.317008
0.325615
0.333269
0.324202
0.318268
0.321466
0.318268
0.320809
0.325615
0.336683
0.327664
0.319533
0.331752
0.336683
0.330689
0.33386
0.323491
0.325615
0.33386
0.327007
0.327007
0.321466
0.327007
0.33223
0.321466
0.330689
0.318268
0.334998
0.320809
0.320809
0.318905
0.320173
0.318905
0.332795
0.33386
0.327664
0.321466
0.336221
0.326303
0.321466
0.329562
0.320173
0.334354
0.316382
0.336221
0.335523
0.328943
0.318268
0.322121
0.329562
0.334354
0.321466
0.333269
0.33386
0.333269
0.317008
0.336683
0.317641
0.327007
0.324895
0.334354
0.33011
0.335523
0.331194
0.317008
0.336683
0.325615
0.33223
0.317008
0.326303
0.320809
0.321466
0.328337
0.329562
0.334354
0.321466
0.320173
0.328943
0.322809
0.328337
0.336221
0.319533
0.320173
0.316382
0.335523
0.317008
0.322121
0.33223
0.320173
0.316382
0.320173
0.331752
0.334998
0.33386
0.320809
0.328943
0.330689
0.317008
0.331194
0.33386
0.335523
0.317008
0.327007
0.329562
0.336683
0.331194
0.320809
0.318268
0.334998
0.317641
0.316382
0.315748
0.324202
0.316382
0.330689
0.336683
0.333269
0.329562
0.322121
0.318905
0.328943
0.320809
0.322121
0.327007
0.327007
0.318268
0.334998
0.33011
0.328337
0.327007
0.332795
0.33386
0.33011
0.331752
0.331752
0.33011
0.33223
0.315748
0.325615
0.317641
0.322809
0.324895
0.328337
0.335523
0.320809
0.318268
0.329562
0.319533
0.322809
0.326303
0.318905
0.322121
0.315748
0.329562
0.326303
0.318905
0.318268
0.315748
0.328337
0.322809
0.324202
0.324895
0.327007
0.327664
0.329562
0.321466
0.322809
0.317008
0.315748
0.324895
0.334354
0.316382
0.331752
0.322121
0.33011
0.326303
0.327007
0.334354
0.326303
0.327664
0.33223
0.322809
0.323491
0.326303
0.327664
0.327664
0.321466
0.334998
0.316382
0.33223
0.317641
0.336683
0.320173
0.332795
0.336683
0.322121
0.333269
0.331194
0.386441
0.378772
0.319533
0.329562
0.354257
0.386185
0.386487
0.319533
0.378917
0.36376
0.37761
0.365098
0.353472
0.369084
0.33386
0.352296
0.386376
0.341599
0.345042
0.336684
0.336741
0.348805
0.347819
0.360176
0.366561
0.355316
0.375889
0.36086
0.350191
0.338494
0.33788
0.372582
0.335523
0.340654
0.348973
0.336992
0.326303
0.3565
0.336312
0.344324
0.377846
0.347637
0.350009
0.339001
0.338582
0.338643
0.334998
0.339888
0.335523
0.33554
0.337431
0.341482
0.343549
0.349828
0.345077
0.349743
0.386286
0.384601
0.337844
0.367868
0.343549
0.335015
0.327664
0.337287
0.321466
0.336426
0.329562
0.33571
0.351478
0.36045
0.337932
0.335077
0.335404
0.340163
0.354371
0.352477
0.315116
0.347516
0.351353
0.341445
0.365388
0.33597
0.337646
0.351154
0.338001
0.334356
0.345747
0.343742
0.345335
0.338222
0.336007
0.338329
0.34447
0.386216
0.335237
0.366532
0.386463
0.335022
0.351959
0.33223
0.342814
0.356224
0.340272
0.361402
0.356903
0.350187
0.340874
0.334029
0.342792
0.348411
0.327664
0.336139
0.334894
0.315748
0.337823
0.33575
0.340571
0.350146
0.33367
0.339408
0.348411
0.334463
0.354965
0.318905
0.317008
0.334706
0.341214
0.337966
0.334088
0.324202
0.344652
0.333382
0.332303
0.332303
0.333943
0.321466
0.349851
0.342578
0.379449
0.371056
0.33225
0.3463
0.344578
0.334649
0.315748
0.344766
0.332303
0.332973
0.336144
0.332771
0.315748
0.332647
0.333509
0.332371
0.340941
0.337984
0.336272
0.337774
0.331795
0.324202
0.317641
0.318268
0.333191
0.3352
0.332522
0.330689
0.333948
0.386495
0.334269
0.326303
0.350167
0.380122
0.333547
0.333948
0.331311
0.333679
0.333547
0.320173
0.33183
0.340976
0.331977
0.34517
0.331311
0.333845
0.330689
0.360903
0.380659
0.331023
0.336435
0.332208
0.38624
0.334674
0.332543
0.330494
0.380273
0.337339
0.366065
0.323491
0.332129
0.330157
0.346881
0.330415
0.341272
0.330132
0.346094
0.332201
0.337588
0.331288
0.327007
0.329645
0.340772
0.33417
0.329575
0.331591
0.3369
0.338811
0.335622
0.329805
0.316382
0.331003
0.318905
0.362601
0.329876
0.355603
0.330344
0.376017
0.329009
0.315748
0.332369
0.335649
0.34282
0.337172
0.329192
0.329192
0.358235
0.336651
0.378321
0.328352
0.334409
0.331145
0.351813
0.335611
0.36394
0.357062
0.360481
0.327802
0.330324
0.317008
0.328244
0.365563
0.356295
0.331268
0.33034
0.330467
0.384309
0.329407
0.329974
0.327317
0.34643
0.344514
0.354503
0.3528
0.386445
0.334095
0.328125
0.367573
0.337674
0.339548
0.324895
0.316382
0.32671
0.326303
0.358304
0.326876
0.333405
0.326343
0.335057
0.327303
0.344992
0.326622
0.343014
0.336634
0.333405
0.328449
0.371519
0.326432
0.330408
0.384823
0.333825
0.362051
0.325986
0.326082
0.326082
0.320173
0.359206
0.341006
0.325986
0.329213
0.325286
0.330591
0.32493
0.326306
0.34119
0.325365
0.378843
0.315116
0.339717
0.360223
0.352117
0.331351
0.386269
0.35701
0.315116
0.34088
0.349983
0.323943
0.326356
0.326743
0.332935
0.340627
0.328443
0.383271
0.345681
0.338152
0.338638
0.323509
0.362883
0.328627
0.334261
0.351973
0.333161
0.320173
0.317641
0.324876
0.331464
0.359838
0.32554
0.322839
0.323913
0.325134
0.324419
0.364812
0.338233
0.326577
0.346197
0.386226
0.331628
0.352992
0.321901
0.330573
0.334545
0.318905
0.321533
0.362098
0.337678
0.321495
0.344897
0.323193
0.322038
0.327822
0.323412
0.338719
0.365552
0.322741
0.342716
0.359062
0.320686
0.319553
0.320254
0.326676
0.319657
0.322566
0.319801
0.319506
0.320133
0.320227
0.334944
0.34583
0.319225
0.321598
0.347888
0.351471
0.319099
0.318908
0.320506
0.320038
0.325328
0.336858
0.35634
0.322053
0.318304
0.321897
0.31882
0.359848
0.330385
0.335749
0.325719
0.319686
0.328514
0.328514
0.318638
0.321136
0.319896
0.318427
0.349045
0.319618
0.317962
0.331864
0.330452
0.351082
0.318163
0.324371
0.316463
0.316556
0.329396
0.363605
0.319788
0.32238
0.333501
0.316747
0.330385
0.315339
0.315809
)


// ************************************************************************* //
