/*--------------------------------*- C++ -*----------------------------------*\
  =========                 |
  \\      /  F ield         | OpenFOAM: The Open Source CFD Toolbox
   \\    /   O peration     | Website:  https://openfoam.org
    \\  /    A nd           | Version:  7
     \\/     M anipulation  |
\*---------------------------------------------------------------------------*/
FoamFile
{
    version     2.0;
    format      ascii;
    class       labelField;
    location    "0.7/lagrangian/reactingCloud1";
    object      cellId;
}
// * * * * * * * * * * * * * * * * * * * * * * * * * * * * * * * * * * * * * //


2429
(
2859
2888
2794
2730
2586
2538
2451
2409
2334
2304
2202
2113
2003
1943
1935
1848
1812
1020
1657
1499
1477
1377
1306
1256
1159
1090
1089
1032
954
900
831
795
700
658
572
498
464
379
282
221
150
68
0
3103
3309
3451
3036
2971
3178
1679
3324
3256
3408
3270
2843
2979
2911
2840
2998
2778
3096
2874
2720
2650
2576
2430
2515
2367
2373
2470
2394
2323
2350
2260
2194
1964
2134
1985
1894
1838
1760
1781
1550
1720
1550
1345
1501
1278
1448
1291
1240
1074
1094
1022
942
874
824
747
692
455
529
476
332
430
265
190
151
60
15
8360
6675
5585
1757
1837
1696
1848
1644
1146
1218
1029
1022
740
603
629
475
423
196
313
219
67
9264
9295
7292
8413
6761
6745
4797
4787
4787
4259
3961
2312
629
8648
8639
8348
8372
6949
6947
6669
5313
5572
4722
3601
3054
2483
1971
1653
1098
9126
8859
7732
6874
6595
6061
5764
4956
4642
4653
4082
3534
2440
2431
1863
1010
737
468
7694
9334
9339
8775
8511
7079
7946
7364
7405
7382
6525
6539
6244
6560
6268
5725
5127
5144
4855
4611
3178
3202
2073
1503
1221
965
952
413
104
392
9798
9237
8398
9532
8972
8727
8707
7853
7587
7013
6763
5605
6468
6485
6187
5022
6181
5899
5649
4493
5384
4225
4256
3938
3941
4233
4236
3974
3978
3392
2835
2852
2551
2558
2550
2285
2011
1735
595
604
45
55
52
47
8945
5876
9224
7550
6992
9692
9718
9731
9444
9766
9749
9748
8892
9457
9216
9476
8046
8916
6884
8628
8349
8100
8066
8103
8070
8085
7213
7783
6978
6667
6668
6104
6674
6677
4934
5586
5575
5276
4452
4157
4169
3595
3598
3317
3616
2760
3068
2766
2478
2775
2471
2194
2211
1629
1356
1070
1088
1114
1103
849
830
819
519
555
6920
8594
6362
9152
5804
8873
5246
9152
7478
6920
1898
224
9622
9658
9087
9379
9675
9672
9693
9685
8833
8540
9707
8551
9143
8265
8264
8271
7116
8588
8276
8306
7132
7142
7746
8028
6871
7452
7157
7167
7449
7171
6594
6605
6636
6047
5462
6348
5771
5768
5774
5199
4902
5228
4928
4948
4666
4365
4675
3816
3831
3838
3538
2951
2969
3014
2980
2988
2689
2405
2722
2398
2448
2136
1591
1289
1007
1012
1012
725
753
774
459
460
182
212
7685
8522
9638
9638
6848
8801
4616
8522
7685
4337
4337
8522
6290
8243
8522
3500
9080
5453
2942
2942
6290
9080
8243
4058
3779
7685
9638
8243
1826
7685
5174
7964
989
431
431
9269
9296
9308
7876
9313
9606
7309
8464
9036
9313
8166
7582
8762
9332
9329
8191
7903
7327
8194
8493
7354
8503
5596
7924
7070
6569
7372
7375
7082
7678
7111
4476
5378
6841
5958
5970
5383
5678
5982
5130
5991
5416
5416
5716
5720
5441
4280
4277
4304
4596
4023
3723
3747
3434
3773
3158
3195
3193
3184
2885
2914
2931
2606
2320
2615
2628
2329
2019
1738
1790
1789
1792
1826
1203
1260
1232
944
938
132
4823
3986
6497
4544
9008
9287
8171
2870
4823
9287
2870
8171
9566
5660
6218
9566
4823
6497
5939
2312
4265
2033
7334
7892
8450
4544
9566
8171
3707
1754
9566
7892
8729
5102
1754
1754
9008
4265
3707
9566
2870
3428
2312
9287
9566
5381
1196
8729
2591
9566
2591
4265
8450
6776
9008
4265
3707
9287
6218
5660
7892
917
638
3986
6218
2312
3149
8450
3149
7055
638
7613
359
5939
1754
8450
7055
6218
359
9008
9740
9172
9182
9502
8897
8932
9482
7168
9815
80
8980
9252
8661
9272
9523
9247
9247
8394
9259
2591
9273
8685
9008
8992
7559
7845
9004
9283
8413
8129
8709
8447
6679
7271
7558
6978
7870
7292
7005
7295
6434
6120
7011
7016
7011
7032
7034
7041
6457
6163
6168
6471
5898
6181
4082
5601
5896
4734
4756
5062
5086
4779
4779
5372
4800
5086
4202
4202
4810
80
4213
3885
4234
4232
3925
3876
4215
3917
3918
3652
3661
4243
3305
3644
3344
3676
3661
3678
3377
3678
3398
3099
3099
3402
2513
2831
3145
2857
2853
2254
2856
2247
2209
2220
1974
1977
1996
2009
1710
1708
1443
1424
1459
1437
1148
1158
1151
1160
1113
1172
897
604
588
588
617
355
308
328
32
334
47
6704
4472
5588
7820
5030
5867
6704
8657
7262
9215
4751
4193
3356
6425
8657
3635
5867
5588
3356
4193
2519
6425
4193
5867
9494
4472
6983
5309
5030
4193
6425
7820
9494
7819
5309
7541
8378
3077
8657
3914
4193
8657
8378
2240
2240
4751
5309
5309
9773
7820
6704
7820
1961
1961
8936
2798
5588
1961
8099
8378
6425
8099
1961
2798
5588
3914
6146
1682
5588
9494
3914
3077
3077
5030
3635
6425
5030
3914
6146
5588
5030
9494
8657
2240
7541
7820
4193
8936
4751
3356
5867
1403
8099
9773
1403
5588
3077
6146
5588
8099
4472
5030
8378
8936
3077
5309
9494
8099
9494
2519
2798
6425
6704
3914
9215
5030
8378
3356
1124
8657
8936
6425
8099
9494
5030
7262
2240
5588
845
2798
3635
9773
3635
9494
5588
845
7541
2240
845
9773
9215
9773
7820
566
4750
7820
6983
7262
3635
1961
2798
6146
2519
2240
4193
566
5309
4472
5030
1682
3635
7820
4472
8378
6146
5867
5030
287
4751
287
6146
6425
2798
4751
5588
6704
4472
7820
8099
7541
5867
4193
8378
5030
5030
8099
2240
1124
1403
7820
6425
3635
3914
3914
8936
9319
1961
8936
9083
9383
8527
9397
8834
8271
9434
9461
9461
7678
6704
9455
9753
8282
7993
9479
9459
8887
9472
8554
8879
7106
9468
9173
9193
9474
8593
8898
8934
8923
8628
8633
8621
8631
4751
287
7191
7777
8084
7779
5390
7505
7499
287
7516
7522
8
6926
7243
6931
6925
6936
7226
6379
4859
6368
6963
6362
6416
6672
6063
6080
3356
5812
6357
6127
5546
5531
5545
5554
5265
4649
4995
5286
5010
1961
5020
5000
4720
4411
4419
4725
4141
4469
4143
4712
4446
4192
4135
4151
4460
4193
4149
3868
3863
3882
3886
2978
3594
3599
2698
3603
3622
3303
3623
3333
3031
3059
2782
2780
2777
2788
2790
2454
2475
2159
2193
2224
2189
2216
1919
1938
1941
1638
1659
1116
1363
1386
1030
1367
1038
1107
825
801
750
786
807
285
544
7
174
272
243
243
248
245
8306
3842
7190
3284
8585
4958
8585
4400
9422
7190
7190
9422
4958
3284
4958
6632
8306
3842
6911
7748
3005
3284
3563
6353
8585
3284
2726
4121
2726
3005
2168
3005
2726
2447
6632
9143
7748
3563
3842
2726
9143
8864
6074
2168
8027
5237
1889
6632
2447
8027
3842
1610
6074
8027
1610
8864
1610
2726
3563
6632
2447
7469
1610
6074
4679
6074
8585
4958
4679
5237
5516
7469
3563
2168
4121
7190
9422
1331
1331
4679
3005
2447
8306
6353
4121
5516
8585
8306
5516
5795
3005
7190
6632
2447
5516
6632
8306
6911
3842
4958
2726
4121
4400
5237
1052
1052
7748
8585
7190
9422
1889
4400
5237
773
8556
3563
7469
773
2447
9701
8585
4121
9422
9422
5516
1052
4121
4121
1052
773
9143
2726
8306
3284
4121
3563
494
4679
4679
5795
494
3842
3005
8864
3842
6074
494
3563
2726
3842
4121
494
494
2447
8027
2447
494
8864
8864
494
5516
8027
7469
215
215
215
6911
2726
215
9143
4400
773
1889
6353
7469
3284
6911
9800
9613
8670
8713
9337
9677
8696
9678
9635
9698
4679
8782
9402
9392
8790
9305
8490
8821
8524
8469
4679
8241
7190
8278
8522
6745
7980
8295
7961
7469
7992
7410
8273
6175
7689
7094
7113
7734
7190
5913
6860
7466
5516
7130
6877
7187
4400
2168
6864
6893
6563
5963
6873
215
494
6554
5955
5704
6016
5083
5763
6051
6053
5757
5474
5496
5188
4872
5212
5223
4550
4912
5508
5189
4341
4649
4667
4005
4056
4361
3502
3763
4088
3787
3476
3842
3513
3824
3529
3497
3207
3529
3528
3185
3554
3547
215
2907
3281
3279
2980
2952
2308
2408
2092
2124
2161
2165
1859
1866
215
1889
1836
1526
1585
1532
1596
1609
1302
1307
1263
915
1267
1262
1309
1315
951
969
1011
631
1021
1049
747
683
773
722
773
427
479
193
93
208
5165
6560
4886
4607
5444
8234
9629
4049
2375
9629
2933
4607
5165
9350
4328
4328
8513
6002
9071
4049
5723
5165
2096
4328
9629
5444
3212
4886
2933
8234
3491
6839
6839
4886
9629
6281
8513
1538
4328
4607
1538
8792
4328
6002
8513
5723
8792
3770
7955
4607
4328
2654
3491
8234
3212
7396
9071
9071
9350
8234
4328
6560
9071
7397
9629
9350
4607
7397
2654
5165
8513
2375
3212
6839
6560
9350
1538
2096
2096
2654
1259
6002
5444
7118
1259
1259
7118
6839
2096
2933
7955
7397
4607
980
2375
9350
2375
2933
4607
7397
2096
7397
7676
3770
6002
1259
1538
5165
8234
4886
5165
2654
980
9071
8513
4607
7955
980
6839
6839
8512
6560
9350
7955
3491
2096
6839
4049
5723
4328
8234
3491
8234
6560
9629
9071
9350
8792
5444
8792
6281
9629
4049
3212
5444
3770
6281
980
7118
1817
1538
7676
2375
6002
6839
422
5444
6002
3212
422
7955
3770
6560
4607
4049
2096
6281
422
3491
2096
6839
7955
2933
422
422
701
9068
422
6002
5723
6560
6281
6560
143
2933
7397
143
7118
143
9208
9501
9464
9182
8919
7980
9521
8601
9174
8905
9620
9541
8792
9269
9304
9596
9625
8365
9050
8655
8980
9336
9003
9216
8675
8344
8384
8646
9325
8996
9032
8756
8673
9013
8376
8436
9052
7676
143
8792
980
8757
8430
8723
8449
8789
8160
8450
5723
8138
7187
8499
7828
8144
143
8179
8513
8177
4607
7845
143
8230
7225
7511
7851
7917
7918
6871
6954
7260
7926
7633
7925
7256
7640
7314
7002
7350
7345
7671
7337
7042
6644
7391
7374
7077
7379
7333
7367
6778
6996
7034
7348
7069
7087
7112
6755
5509
6134
6113
7086
5816
6822
6498
6518
6500
6546
6532
422
6258
6249
6001
5861
5982
5639
5345
5976
5320
5655
5687
5700
5962
4701
5397
5422
5434
3491
5048
5136
5091
5159
4882
4778
4786
4775
4859
5164
4441
4845
4836
4558
4195
4186
4271
4121
4241
3933
4254
3977
4309
3996
3003
4004
3291
3662
3734
3733
4004
3010
3445
3466
3212
3146
2696
3183
2911
3189
2760
2820
2848
2879
2891
2651
2597
2654
2229
2244
2340
2288
2365
2343
2043
2096
1995
1970
2349
2080
2062
2080
2009
2056
2060
1698
1772
1486
143
1340
1480
1443
1482
1500
1518
1134
1257
1212
1166
1220
1364
1239
1246
945
640
346
303
374
379
418
554
387
403
102
115
8441
2582
7046
8441
7883
5930
8441
1745
908
4535
8162
3977
1466
2861
1466
2582
4535
9836
5372
2024
7325
9836
6767
8441
3698
4535
8441
5093
5093
2861
5093
7604
2861
6767
1466
8999
2582
2582
1745
2303
1745
7883
8441
5372
2861
9557
4814
2861
6209
2303
8720
629
9557
9278
5930
1466
3140
6209
8720
2861
8162
8441
8162
908
9836
1187
5093
4256
8720
6488
9278
7046
908
9836
4535
7604
908
4814
2582
2861
5651
6209
8720
2861
2303
5930
3419
5651
9557
2024
2303
629
9278
908
3140
7604
2303
629
2303
7325
8999
8441
2582
5930
6767
908
7046
8441
9278
908
5093
6209
9836
7046
2582
1466
8999
1187
629
350
3977
629
6767
9836
8162
6209
3140
1745
5930
2582
3140
5093
5093
1466
8999
6488
5651
5093
7883
8441
6488
7325
7325
6488
7604
350
4535
1187
3419
4256
5651
9278
2582
1466
6209
2024
3419
4814
1745
3140
350
6209
4814
1745
1466
350
5651
3419
3977
4256
5093
5372
6209
2861
3419
908
350
4256
8720
629
7325
3140
6488
4814
5093
8720
4814
5372
7604
3419
3698
4814
5372
5372
2861
8999
629
7604
1187
9836
2303
7883
9836
3140
8162
7046
9580
9620
2024
6209
9677
9316
8734
2024
9341
9647
9343
9644
9401
9636
8441
9407
8469
9757
9731
9835
9828
9707
9713
9377
9362
9393
9067
9096
9138
9789
9798
9351
9278
9483
9706
9817
4814
9109
9547
9736
9064
8872
9139
9499
9218
9503
8999
9490
9278
9274
9231
9476
9178
9140
9168
8580
7916
8217
9226
8523
9178
8995
5372
8948
2861
9246
6209
8971
8571
8539
8941
8990
8978
8921
8558
8007
71
8592
8292
8629
8249
8678
8944
8293
8656
8719
8602
8614
8324
8654
8393
8088
8329
7361
8983
7968
7062
8406
8289
7604
8339
7993
8074
7700
8270
8018
8070
8428
8058
8027
5372
8107
8121
350
8092
8111
8072
7459
8142
8080
8027
8127
7439
1745
908
7839
7787
7527
7847
3977
7767
7859
7596
7596
7563
2861
7181
7498
6554
7124
7600
7478
7487
7555
350
7486
7596
7291
7259
7294
350
7296
7284
7301
7227
6964
7258
7247
7319
3977
1187
1466
7288
6984
7011
6767
7279
5384
6992
4814
6900
6553
6999
7279
7036
7282
6999
2303
7022
6946
6733
6644
7036
6713
6767
6586
5995
6750
6693
6730
5965
6706
6726
6470
5717
6687
6018
3698
6731
6482
6356
6472
6103
6484
5800
6445
6404
6456
5093
6201
6386
6145
6206
6452
6127
6116
6135
6195
629
6174
1745
5746
6193
5484
5896
5166
5923
350
5876
5853
5815
5844
5625
5625
5477
5847
4884
5648
5579
5603
5217
5290
4907
5201
4914
5362
5326
908
5351
4904
4924
5035
5042
5041
4596
5050
5045
5078
4959
4967
4929
4655
3716
5017
5064
4343
4998
4989
4256
629
4797
4814
4361
4505
4739
4809
4730
4787
4125
4799
4413
4722
4739
4774
4058
4511
4475
3759
4455
4353
4519
4517
4517
2303
4080
4141
4519
4200
3950
3909
3955
3939
3860
3949
3490
71
3866
3520
3540
3623
3453
3527
71
3581
3547
3681
3654
3651
3334
3582
3075
2926
3283
3592
3590
3398
3236
3356
3328
2982
3052
2303
1187
3098
3341
2963
3093
3119
2822
3096
2818
2675
3031
3086
2722
2339
2778
2700
2845
3064
3046
1745
2855
2401
2753
2562
2447
2544
2555
2515
2259
2469
2395
2264
2175
2128
2286
2021
2004
1958
2016
1982
2012
1727
1719
1718
1923
1885
1732
1706
1599
1588
1445
1744
1431
1435
1402
1636
1576
1420
1462
1421
1449
1290
1380
1360
1119
1154
1107
1107
879
861
869
881
1037
871
886
1094
819
752
599
563
623
620
823
447
587
291
528
328
539
61
53
)


// ************************************************************************* //
