/*--------------------------------*- C++ -*----------------------------------*\
  =========                 |
  \\      /  F ield         | OpenFOAM: The Open Source CFD Toolbox
   \\    /   O peration     | Website:  https://openfoam.org
    \\  /    A nd           | Version:  7
     \\/     M anipulation  |
\*---------------------------------------------------------------------------*/
FoamFile
{
    version     2.0;
    format      ascii;
    class       vectorField;
    location    "0.7/lagrangian/reactingCloud1";
    object      coordinates;
}
// * * * * * * * * * * * * * * * * * * * * * * * * * * * * * * * * * * * * * //


2429
(
(-1.04449 0.40383 3.79471e-19)
(-1.05833 0.222353 -1.0842e-19)
(-1.06392 0.381144 -2.1684e-19)
(-1.08005 0.35276 1.0842e-19)
(-1.09674 0.394281 1.0842e-19)
(-1.11589 0.269791 0)
(-1.12219 0.383702 2.1684e-19)
(-1.14589 0.225412 -2.71051e-20)
(-1.16037 0.266945 0)
(-1.18089 0.0430215 -1.35525e-20)
(-1.19081 0.240245 0)
(-1.20102 0.364343 0)
(-1.22538 0.210645 2.71051e-20)
(-1.24209 0.160626 -1.0842e-19)
(-1.24096 0.210961 4.06576e-20)
(-1.25281 0.31664 0)
(-1.27481 0.131466 -5.42101e-20)
(-1.4262 0.386807 -2.1684e-19)
(-1.30406 0.243299 -1.0842e-19)
(-1.31696 0.369432 1.35525e-19)
(-1.33745 0.102532 -2.71051e-20)
(-1.34906 0.286734 5.42101e-20)
(-1.36757 0.302119 0)
(-1.38265 0.204548 0)
(-1.39862 0.367204 -5.42101e-20)
(-1.41611 0.37301 -1.11808e-19)
(-1.4166 0.376007 1.0842e-19)
(-1.43009 0.318443 -2.1684e-19)
(-1.44827 0.373397 -1.35525e-19)
(-1.46352 0.29057 1.0842e-19)
(-1.47896 0.301791 2.1684e-19)
(-1.4957 0.118681 0)
(-1.51223 0.271403 -1.0842e-19)
(-1.52853 0.121248 5.42101e-20)
(-1.54296 0.224872 0)
(-1.55885 0.260661 0)
(-1.57807 0.0676876 2.71051e-20)
(-1.59393 0.160893 -1.0842e-19)
(-1.60777 0.329658 2.1684e-19)
(-1.62408 0.287279 1.0842e-19)
(-1.63937 0.302502 0)
(-1.66003 0.384382 -2.03288e-20)
(-1.67498 0.385546 0)
(-0.398955 0.425364 -6.77626e-20)
(-0.368474 0.400749 0)
(-0.334874 0.357465 0)
(-0.421649 0.42172 -5.42101e-20)
(-0.434669 0.410026 -5.42101e-20)
(-0.396776 0.380789 -2.1684e-19)
(-0.723949 0.456538 1.0842e-19)
(-0.358885 0.307166 0)
(-0.373008 0.309875 0)
(-0.356533 0.210196 0)
(-0.375414 0.226824 0)
(-0.468226 0.361656 1.0842e-19)
(-0.438226 0.358563 -1.0842e-19)
(-0.447925 0.359574 2.1684e-19)
(-0.471329 0.384409 0)
(-0.441157 0.236341 5.42101e-20)
(-0.488718 0.346051 2.1684e-19)
(-0.430328 0.0441189 0)
(-0.465688 0.158885 1.0842e-19)
(-0.496894 0.28138 -5.42101e-20)
(-0.511089 0.296572 0)
(-0.53104 0.342721 0)
(-0.554423 0.411422 -1.0842e-19)
(-0.544144 0.29373 -2.71051e-20)
(-0.571433 0.382027 -2.1684e-19)
(-0.572198 0.335997 0)
(-0.563269 0.141068 1.35525e-20)
(-0.57908 0.192775 5.42101e-20)
(-0.593857 0.217097 1.35525e-20)
(-0.597115 0.0334265 1.35525e-20)
(-0.614468 0.184345 -8.13152e-20)
(-0.624086 0.173907 1.0842e-19)
(-0.660752 0.355738 1.0842e-19)
(-0.633952 0.118482 0)
(-0.661656 0.209657 0)
(-0.68586 0.378193 0)
(-0.688477 0.290138 0)
(-0.706373 0.363657 0)
(-0.708423 0.211997 0)
(-0.746008 0.409712 -5.42101e-20)
(-0.719282 0.163008 -1.0842e-19)
(-0.753757 0.410865 0)
(-0.787471 0.420282 -1.0842e-19)
(-0.76829 0.27067 -1.0842e-19)
(-0.80504 0.411892 0)
(-0.776106 0.165287 -1.35525e-20)
(-0.803697 0.317182 0)
(-0.813368 0.192375 -5.42101e-20)
(-0.834963 0.409253 0)
(-0.837552 0.260004 0)
(-0.850039 0.287625 -5.42101e-20)
(-0.864288 0.373859 0)
(-0.876167 0.371948 0)
(-0.886401 0.24287 -1.35525e-20)
(-0.899055 0.30263 0)
(-0.911258 0.213266 0)
(-0.95046 0.426557 1.0842e-19)
(-0.937052 0.393161 -2.1684e-19)
(-0.948644 0.288153 0)
(-0.973668 0.333416 2.71051e-20)
(-0.967572 0.135697 -1.69407e-20)
(-0.985572 0.325405 0)
(-0.996746 0.362756 -2.1684e-19)
(-1.01935 0.172825 5.42101e-20)
(-1.0261 0.320175 -2.37169e-20)
(-1.03795 0.328409 2.71051e-20)
(0.154934 0.209486 2.1684e-19)
(0.0904982 0.259368 5.42101e-20)
(0.0543217 0.139067 2.71051e-20)
(-0.0131349 0.28797 -1.35525e-20)
(-0.00580984 0.232863 -5.42101e-20)
(-0.0214325 0.256779 0)
(-0.00603191 0.181035 0)
(-0.0353019 0.189962 0)
(-0.0984666 0.305632 1.0842e-19)
(-0.0921038 0.284165 1.0842e-19)
(-0.117356 0.216086 1.0842e-19)
(-0.125909 0.254014 0)
(-0.162706 0.317365 0)
(-0.186109 0.327319 2.71051e-20)
(-0.192708 0.189905 2.71051e-20)
(-0.213522 0.289177 0)
(-0.233088 0.206069 -1.0842e-19)
(-0.260314 0.342257 0)
(-0.251485 0.0634094 -1.35525e-20)
(-0.268391 0.213697 0)
(-0.295021 0.310194 -8.13152e-20)
(0.577501 0.185515 5.42101e-20)
(0.575279 0.0473285 -6.77626e-21)
(0.47442 0.272072 1.0842e-19)
(0.535235 0.246825 0)
(0.449055 0.150498 5.42101e-20)
(0.443114 0.223367 2.1684e-19)
(0.355723 0.198185 0)
(0.350757 0.244069 -7.45389e-20)
(0.352137 0.243442 -1.0842e-19)
(0.335954 0.111113 0)
(0.323624 0.196406 -1.38913e-19)
(0.247218 0.082449 -1.35525e-20)
(0.186135 0.122672 -2.71051e-20)
(1.14856 0.121944 1.35525e-20)
(1.13921 0.163846 -2.71051e-20)
(1.12878 0.215211 5.42101e-20)
(1.11511 0.110028 -2.71051e-20)
(1.03261 0.235659 0)
(1.02192 0.242907 0)
(1.00483 0.237433 -5.42101e-20)
(0.923416 0.0640944 1.35525e-20)
(0.930757 0.152698 -2.71051e-20)
(0.87342 0.212214 0)
(0.818298 0.235418 -1.0842e-19)
(0.773532 0.184231 -1.0842e-19)
(0.74953 0.243017 0)
(0.711093 0.0400353 -7.6233e-21)
(0.701061 0.212736 -1.0842e-19)
(0.664833 0.19857 -2.71051e-20)
(2.05231 0.16063 -1.0842e-19)
(2.0286 0.107341 -2.71051e-20)
(1.90117 0.155203 2.71051e-20)
(1.84238 0.248348 1.49078e-19)
(1.80532 0.247808 4.06576e-20)
(1.74692 0.143191 -1.0842e-19)
(1.71139 0.223473 0)
(1.6409 0.0939464 0)
(1.61061 0.250338 0)
(1.62525 0.200952 5.42101e-20)
(1.58153 0.258486 0)
(1.52155 0.213711 0)
(1.43533 0.114248 0)
(1.43204 0.155403 -5.42101e-20)
(1.39072 0.197218 -2.71051e-20)
(1.31436 0.270165 2.03288e-20)
(1.30304 0.243703 -1.6263e-19)
(1.27209 0.199211 3.38813e-21)
(3.06641 -2.09743e-33 1.8304e-35)
(3.34333 0.15617 -5.42101e-20)
(3.32848 0.132777 2.71051e-20)
(3.23422 0.15868 -5.42101e-20)
(3.19916 0.0912218 -1.35525e-20)
(3.00922 0.256374 0)
(3.1224 0.124709 0)
(3.02786 0.230095 0)
(3.04394 0.0472343 0)
(3.03577 0.149664 -5.42101e-20)
(2.92673 0.237679 -1.35525e-19)
(2.92524 0.177768 -5.42101e-20)
(2.87502 0.249773 -1.0842e-19)
(2.91054 0.0831453 2.03288e-20)
(2.87629 0.141393 4.06576e-20)
(2.80386 0.0741109 3.38813e-20)
(2.73345 0.253847 -5.42101e-20)
(2.72475 0.176882 -5.75982e-20)
(2.69847 0.219653 1.0842e-19)
(2.67482 0.0635405 0)
(2.50057 0.237059 -8.13152e-20)
(2.48743 0.128148 2.71051e-20)
(2.35504 0.18708 5.42101e-20)
(2.29928 0.239103 0)
(2.25821 0.253067 6.77626e-20)
(2.23938 0.148597 0)
(2.23143 0.209383 1.0842e-19)
(2.18915 0.123773 -5.42101e-20)
(2.15839 0.257201 6.77626e-20)
(2.16037 0.216726 0)
(5.21616 0.253346 2.87991e-20)
(5.09311 0.264925 0)
(4.92758 0.276188 -1.35525e-20)
(5.13146 0.194611 0)
(5.05623 0.205332 1.0842e-19)
(4.99016 0.0525451 3.38813e-21)
(4.95267 0.141546 -5.42101e-20)
(4.77217 0.217071 -1.0842e-19)
(4.76573 0.157271 1.0842e-19)
(4.63013 0.232543 0)
(4.57938 0.101586 0)
(4.36494 0.286654 -2.1684e-19)
(4.53369 0.172437 5.42101e-20)
(4.535 0.0973184 -2.71051e-20)
(4.46031 0.181312 0)
(4.27195 0.401182 0)
(4.46048 0.208918 0)
(4.39981 0.221511 1.0842e-19)
(4.3573 0.0896935 6.77626e-20)
(4.17954 0.271777 2.1684e-19)
(4.29317 0.0285586 0)
(4.10176 0.222726 -5.42101e-20)
(4.13205 0.0806864 -3.49401e-20)
(4.05493 0.257722 0)
(4.06702 0.242675 -5.42101e-20)
(4.11522 0.185266 -2.71051e-20)
(4.09513 0.173835 1.0842e-19)
(4.06598 0.0968593 -3.38813e-21)
(4.03651 0.0763929 5.42101e-20)
(3.97005 0.202384 5.42101e-20)
(3.88773 0.199137 -1.0842e-19)
(3.85438 0.121677 0)
(3.83053 0.219522 5.42101e-20)
(3.83557 0.192204 1.0842e-19)
(3.81497 0.224058 -2.71051e-20)
(3.75627 0.161867 0)
(3.74231 0.141078 0)
(3.66582 0.126959 5.42101e-20)
(3.49536 0.232924 -8.13152e-20)
(3.48335 0.195245 -2.71051e-20)
(3.43166 0.197654 -1.0842e-19)
(3.43185 0.155659 8.13152e-20)
(3.42414 0.16832 5.42101e-20)
(3.39984 0.189947 -1.0842e-19)
(7.54056 -1.71824e-33 1.49948e-35)
(6.63962 1.23859e-32 -1.0809e-34)
(7.62238 -1.7113e-33 1.49343e-35)
(7.10304 -1.75532e-33 1.53184e-35)
(6.94358 7.21349e-06 5.03649e-16)
(7.71918 0.403745 0)
(7.76607 0.288822 5.42101e-20)
(7.75989 0.232296 9.48677e-20)
(7.64508 0.264318 1.0842e-19)
(7.75843 0.0729096 -2.71051e-20)
(7.79855 0.151648 -2.71051e-20)
(7.74997 0.15332 -5.42101e-20)
(7.51543 0.238027 -1.0842e-19)
(7.65391 0.208253 -4.06576e-20)
(7.60313 0.0359065 -1.35525e-20)
(7.63123 0.122829 0)
(7.25051 0.279604 0)
(7.50108 0.132441 1.35525e-20)
(6.94958 0.488176 3.25261e-19)
(7.41222 0.173586 5.42101e-20)
(7.34145 0.171714 -2.71051e-20)
(7.28956 0.0395139 6.77626e-21)
(7.22003 0.192256 0)
(7.24726 0.0266143 0)
(7.21886 0.170553 0)
(7.23033 0.106103 0)
(6.99051 0.262199 -8.13152e-20)
(7.13833 0.209634 0)
(6.96018 0.0651185 2.71051e-20)
(6.89681 0.206449 -1.0842e-19)
(6.85267 0.205645 0)
(6.7147 0.231899 -8.13152e-20)
(6.83224 0.178753 2.1684e-19)
(6.84409 0.165302 1.0842e-19)
(6.39585 0.473324 -1.0842e-19)
(6.5635 0.0533383 -2.03288e-20)
(6.57684 0.101997 0)
(6.47662 0.192457 0)
(6.27885 0.129941 5.42101e-20)
(6.20136 0.203622 2.71051e-20)
(6.18976 0.149198 0)
(6.08246 0.221247 -1.0842e-19)
(6.03615 0.209253 0)
(6.01499 0.218034 5.42101e-20)
(6.05772 0.125388 1.0842e-19)
(5.88254 0.214238 -5.42101e-20)
(5.91031 0.0829879 -3.38813e-21)
(5.8586 0.184271 5.42101e-20)
(5.81328 0.226742 0)
(5.85229 0.143617 1.0842e-19)
(5.77572 0.25578 5.42101e-20)
(5.70845 0.249704 -1.0842e-19)
(5.7275 0.171541 -4.74338e-20)
(5.60039 0.279826 6.43745e-20)
(5.50456 0.253599 0)
(5.45794 0.286356 2.1684e-19)
(5.48242 0.204469 -5.42101e-20)
(5.48374 0.0858431 -8.13152e-20)
(5.48179 0.135306 0)
(5.38016 0.0241492 6.77626e-21)
(5.41979 0.109463 2.71051e-20)
(5.37921 0.158716 0)
(5.35769 0.254567 -1.76183e-19)
(5.33933 0.0904278 2.71051e-20)
(9.9871 -1.51089e-33 1.31853e-35)
(10.4881 -1.46842e-33 1.28147e-35)
(9.83063 -1.52415e-33 1.3301e-35)
(10.7203 -1.44874e-33 1.2643e-35)
(9.65982 -1.53862e-33 1.34274e-35)
(10.6046 -1.45855e-33 1.27286e-35)
(9.47892 -1.55396e-33 1.35612e-35)
(10.7368 -1.44735e-33 1.26308e-35)
(10.1292 -1.49885e-33 1.30802e-35)
(10.0342 -1.5069e-33 1.31505e-35)
(8.37144 -1.64782e-33 1.43803e-35)
(7.86288 -1.69092e-33 1.47564e-35)
(10.8784 0.394924 1.0842e-19)
(10.8784 0.235063 -2.71051e-20)
(10.7136 0.292804 -2.71051e-20)
(10.7758 0.233685 0)
(10.8993 0.160142 -2.71051e-20)
(10.8607 0.171003 0)
(10.921 0.0805614 0)
(10.8729 0.114582 1.35525e-20)
(10.6138 0.180272 -4.06576e-20)
(10.4972 0.244259 -6.77626e-20)
(10.8491 0.0173865 -6.77626e-21)
(10.56 0.193239 1.52466e-20)
(10.7157 0.0419227 6.77626e-21)
(10.4023 0.225518 1.0842e-19)
(10.4539 0.232063 0)
(10.4552 0.197743 -1.0842e-19)
(10.0559 0.371916 -2.1684e-19)
(10.5567 0.0310587 -2.71051e-20)
(10.4256 0.178241 5.42101e-20)
(10.4462 0.0427339 0)
(10.1115 0.303427 -2.71051e-20)
(10.0939 0.256614 8.13152e-20)
(10.2881 0.0517438 -1.35525e-20)
(10.3122 0.0376911 0)
(9.99728 0.219464 0)
(10.1643 0.120574 0)
(10.0469 0.189713 1.0842e-19)
(10.1054 0.145722 0)
(10.1543 0.13113 -2.71051e-20)
(10.1033 0.129567 5.42101e-20)
(9.88205 0.213756 0)
(9.91989 0.165424 -5.42101e-20)
(9.90856 0.0226905 1.35525e-20)
(9.75834 0.16161 8.47033e-20)
(9.5255 0.282862 0)
(9.77802 0.0657785 1.35525e-20)
(9.65347 0.14793 0)
(9.60992 0.163131 5.42101e-20)
(9.62436 0.136427 -1.35525e-20)
(9.49788 0.210564 0)
(9.3407 0.292317 2.1684e-19)
(9.45032 0.0825324 3.38813e-21)
(9.33839 0.175704 1.0842e-19)
(9.37486 0.0887199 2.71051e-20)
(9.24533 0.102177 -5.42101e-20)
(9.16674 0.19805 -5.42101e-20)
(9.29813 0.0613317 -2.03288e-20)
(9.01983 0.160802 -2.71051e-20)
(9.00016 0.0939846 5.42101e-20)
(8.98212 0.0586831 2.71051e-20)
(8.92998 0.156582 -2.71051e-20)
(8.6998 0.28226 0)
(8.74694 0.203422 2.71051e-20)
(8.77524 0.00069898 0)
(8.75013 0.155411 2.71051e-20)
(8.74339 0.118546 3.38813e-21)
(8.66668 0.206565 -1.0842e-19)
(8.58593 0.232169 1.0842e-19)
(8.65635 0.0615368 1.35525e-20)
(8.52611 0.264134 2.1684e-19)
(8.57065 0.0382332 0)
(8.51001 0.185269 -5.42101e-20)
(8.31521 0.128048 0)
(8.24238 0.230858 -2.1684e-19)
(8.14333 0.244358 0)
(8.1464 0.221918 1.0842e-19)
(8.12614 0.222839 1.0842e-19)
(8.02121 0.256131 1.0842e-19)
(8.01387 0.131002 2.71051e-20)
(8.00943 0.0387645 6.77626e-21)
(7.95553 0.19915 -6.09864e-20)
(7.92817 0.196348 0)
(7.83687 0.188835 -2.71051e-20)
(7.81576 0.05424 0)
(13.4202 -1.21992e-33 1.06461e-35)
(13.667 -1.19901e-33 1.04636e-35)
(14.0501 -1.16654e-33 1.01802e-35)
(14.0783 -1.16415e-33 1.01594e-35)
(13.1783 -1.24042e-33 1.0825e-35)
(13.7495 -1.19201e-33 1.04025e-35)
(12.3756 -1.30846e-33 1.14187e-35)
(13.6602 -1.19959e-33 1.04686e-35)
(13.3918 -1.22233e-33 1.06671e-35)
(12.3333 -1.31204e-33 1.145e-35)
(12.2985 -1.31499e-33 1.14757e-35)
(13.6365 -1.20159e-33 1.04861e-35)
(12.9996 -1.25557e-33 1.09572e-35)
(13.5577 1.36197e-24 1.18857e-26)
(13.7141 -1.19501e-33 1.04287e-35)
(12.0698 -1.33437e-33 1.16449e-35)
(13.8436 -1.18404e-33 1.03329e-35)
(12.7037 -1.28065e-33 1.11761e-35)
(11.8878 -1.3498e-33 1.17795e-35)
(11.9167 -1.34735e-33 1.17581e-35)
(12.9661 -1.25841e-33 1.0982e-35)
(13.8187 -1.18615e-33 1.03514e-35)
(13.6249 -1.20258e-33 1.04947e-35)
(12.2134 -1.3222e-33 1.15387e-35)
(12.1593 -1.32679e-33 1.15787e-35)
(13.3988 -1.22174e-33 1.06619e-35)
(14.0781 -1.16417e-33 1.01595e-35)
(13.5726 -1.20701e-33 1.05334e-35)
(11.5312 -1.38002e-33 1.20432e-35)
(13.4525 -1.21719e-33 1.06222e-35)
(12.6159 -1.28809e-33 1.1241e-35)
(13.4956 -1.21354e-33 1.05904e-35)
(11.204 -1.40775e-33 1.22853e-35)
(11.1134 -1.41543e-33 1.23523e-35)
(11.0401 -1.42164e-33 1.24065e-35)
(13.9753 0.405073 -5.42101e-20)
(13.9097 0.284892 1.6263e-19)
(13.9287 0.228381 -2.1684e-19)
(13.4876 0.396859 0)
(13.9247 0.208809 -5.42101e-20)
(14.0757 0.144479 0)
(13.3191 0.436689 3.38813e-21)
(13.6688 0.26013 0)
(13.824 0.19873 0)
(13.961 0.208053 2.71051e-20)
(13.6294 0.347751 1.0842e-19)
(13.3696 0.462622 0)
(13.7579 0.175938 2.71051e-20)
(13.9544 0.12447 -7.45389e-20)
(13.9307 0.136195 0)
(13.5494 0.234952 0)
(13.5096 0.273912 1.0842e-19)
(13.3185 0.355489 -6.09864e-20)
(13.5583 0.219924 1.0842e-19)
(13.6412 0.131733 1.0842e-19)
(13.3568 0.235656 1.0842e-19)
(13.7101 0.0864135 -2.71051e-20)
(12.8008 0.612501 0)
(13.5075 0.181075 1.35525e-20)
(13.209 0.257058 0)
(13.0848 -1.24835e-33 1.08942e-35)
(13.3345 0.154543 0)
(13.3598 0.13913 -1.0842e-19)
(13.2061 0.205268 -1.0842e-19)
(13.4023 0.0326696 -6.77626e-21)
(13.2025 0.0726165 0)
(12.3951 0.628261 0)
(12.7074 0.339971 0)
(13.1202 0.0321518 0)
(12.8488 0.239574 4.06576e-20)
(12.8905 0.186706 -1.35525e-20)
(12.6468 0.315892 5.42101e-20)
(12.746 0.241848 -2.1684e-19)
(12.8304 0.131367 -5.42101e-20)
(12.6101 0.200698 -5.42101e-20)
(12.8537 0.0916418 0)
(12.7146 0.169344 -5.42101e-20)
(12.7264 0.168094 0)
(12.7881 0.0753531 -1.35525e-20)
(12.764 0.054276 1.35525e-20)
(12.6505 0.0549638 0)
(12.3063 0.257875 -1.0842e-19)
(12.2843 0.270268 2.1684e-19)
(12.362 0.152153 0)
(12.413 0.0935705 0)
(12.2607 0.157455 -4.06576e-20)
(12.1802 0.252402 1.0842e-19)
(12.1732 0.146715 2.71051e-20)
(12.0308 0.297131 0)
(12.1781 0.0311442 1.35525e-20)
(11.9802 0.283736 0)
(12.0058 0.118263 -1.21973e-19)
(11.9814 0.1293 0)
(11.9318 0.167235 -1.0842e-19)
(11.842 0.256566 0)
(11.8887 0.127265 0)
(11.9048 0.0536011 2.71051e-20)
(11.7847 0.255849 1.21973e-19)
(11.7327 0.289693 -1.0842e-19)
(11.7935 0.218698 -8.13152e-20)
(11.8106 0.158998 0)
(11.6784 0.249072 0)
(11.5821 0.387873 -5.42101e-20)
(11.5314 0.397825 1.0842e-19)
(11.5455 0.165611 -1.0842e-19)
(11.525 0.169471 -8.13152e-20)
(11.4808 0.153703 -1.0842e-19)
(11.494 0.00264741 0)
(11.3081 0.29482 0)
(11.3625 0.036107 -6.77626e-21)
(11.3184 0.164296 0)
(11.2061 0.202809 -1.0842e-19)
(11.2082 0.230545 -1.0842e-19)
(11.0069 0.0931051 -1.01644e-20)
(16.4922 -9.59566e-34 8.374e-36)
(16.0511 -9.96952e-34 8.70027e-36)
(17.4006 -8.82576e-34 7.70213e-36)
(16.3312 -9.73212e-34 8.49309e-36)
(18.792 -7.64651e-34 6.67301e-36)
(18.8299 1.33227e-32 1.29556e-34)
(18.3408 2.02967e-30 -1.77127e-32)
(15.5356 -1.04064e-33 9.0815e-36)
(16.5846 -9.51729e-34 8.30561e-36)
(18.8106 -7.63077e-34 6.65927e-36)
(15.4446 -1.04835e-33 9.14881e-36)
(18.3556 4.19061e-31 3.67108e-33)
(18.9702 -7.49548e-34 6.5412e-36)
(17.0082 -9.15834e-34 7.99237e-36)
(17.2245 -8.97502e-34 7.83238e-36)
(19.0159 -7.45671e-34 6.50737e-36)
(16.5147 -9.57661e-34 8.35738e-36)
(17.44 -8.79238e-34 7.673e-36)
(17.0571 -9.11684e-34 7.95615e-36)
(15.1282 -1.07517e-33 9.38283e-36)
(16.1801 -9.86018e-34 8.60485e-36)
(15.0884 1.50734e-25 1.31543e-27)
(17.7705 -8.51224e-34 7.42852e-36)
(18.2098 -8.13994e-34 7.10362e-36)
(18.3646 -8.00875e-34 6.98913e-36)
(16.4189 -9.65774e-34 8.42818e-36)
(18.9633 -7.50134e-34 6.54632e-36)
(18.3228 -8.04412e-34 7.02e-36)
(15.8554 -1.01353e-33 8.84495e-36)
(14.9441 -1.09077e-33 9.51897e-36)
(19.0751 -7.40655e-34 6.4636e-36)
(18.1803 -8.16498e-34 7.12547e-36)
(18.5206 2.02445e-24 -1.76671e-26)
(16.7132 -9.40838e-34 8.21057e-36)
(14.8698 -1.09707e-33 9.57397e-36)
(14.8605 -1.09785e-33 9.58081e-36)
(18.6982 -7.726e-34 6.74238e-36)
(16.258 -9.79417e-34 8.54724e-36)
(15.916 -1.0084e-33 8.80017e-36)
(19.0948 -7.38992e-34 6.44908e-36)
(15.4351 -1.04916e-33 9.15584e-36)
(15.7083 -1.026e-33 8.95376e-36)
(15.2074 -1.06845e-33 9.32425e-36)
(18.9192 -2.51452e-34 1.09635e-35)
(18.9663 -7.49877e-34 6.54408e-36)
(16.7801 -9.35166e-34 8.16107e-36)
(14.6561 -1.11518e-33 9.732e-36)
(18.5856 -7.82147e-34 6.82569e-36)
(15.2761 -1.06263e-33 9.27345e-36)
(18.9797 -7.48746e-34 6.53421e-36)
(15.2799 -1.06231e-33 9.27061e-36)
(16.1788 -9.86125e-34 8.60578e-36)
(18.4574 -7.93012e-34 6.92051e-36)
(17.5671 -8.68465e-34 7.57898e-36)
(18.683 -7.73887e-34 6.75361e-36)
(16.2914 -9.76581e-34 8.52249e-36)
(15.9239 -1.00773e-33 8.79434e-36)
(18.849 -7.59817e-34 6.63082e-36)
(17.2487 -8.95447e-34 7.81445e-36)
(16.9936 -9.17067e-34 8.00312e-36)
(18.1339 -8.2043e-34 7.15978e-36)
(14.4392 -1.13356e-33 9.89246e-36)
(14.4267 1.23981e-23 1.08197e-25)
(16.0957 -9.93164e-34 8.66721e-36)
(17.2627 -8.94266e-34 7.80414e-36)
(15.1734 -1.07133e-33 9.34938e-36)
(15.5864 4.4206e-26 -3.8578e-28)
(18.4042 -7.97518e-34 6.95983e-36)
(15.6563 -1.03041e-33 8.99224e-36)
(17.6698 -8.5976e-34 7.50301e-36)
(14.3145 -1.14413e-33 9.9847e-36)
(17.9309 -8.37632e-34 7.3099e-36)
(14.2901 -1.1462e-33 1.00027e-35)
(17.126 -9.05848e-34 7.90521e-36)
(14.9341 -1.09161e-33 9.52636e-36)
(18.4845 -7.90708e-34 6.9004e-36)
(17.7451 2.17079e-25 1.89442e-27)
(17.1879 3.85525e-29 3.36458e-31)
(14.2642 -1.14839e-33 1.00219e-35)
(18.6657 1.51051e-25 1.3182e-27)
(19.2342 0.470419 -1.0842e-19)
(18.9237 0.519324 4.33681e-19)
(18.845 0.471708 0)
(19.0905 0.288282 -1.6263e-19)
(18.6758 0.49822 0)
(18.8046 0.34182 -1.0842e-19)
(19.0337 0.377791 -5.42101e-20)
(17.8209 0.758846 5.42101e-20)
(19.2322 0.137049 0)
(14.1614 4.36507e-26 3.80934e-28)
(18.6586 0.129595 0)
(18.9419 0.161135 1.0842e-19)
(18.5776 0.305167 -1.0842e-19)
(18.8443 0.0691357 2.71051e-20)
(18.9893 0.194598 5.42101e-20)
(18.92 0.179877 0)
(18.8193 0.179125 0)
(18.4791 0.252878 -1.35525e-20)
(18.8239 0.128631 0)
(15.309 -1.05984e-33 9.24907e-36)
(18.9141 0.0662176 0)
(18.5126 0.201457 0)
(18.71 2.09311e-24 -1.82663e-26)
(18.8048 0.0737927 3.81165e-21)
(17.9986 0.24447 0)
(18.2109 0.21466 -1.35525e-20)
(18.723 0.019869 -1.69407e-21)
(18.8313 0.0222928 1.35525e-20)
(18.4067 0.166026 0)
(18.2607 0.190297 4.36222e-20)
(18.5427 0.0898896 -8.13152e-20)
(18.4909 0.0142306 6.77626e-21)
(17.5915 0.437582 -1.0842e-19)
(17.788 0.284297 1.0842e-19)
(17.953 0.249771 0)
(17.6605 0.347165 6.77626e-20)
(18.1007 0.10035 0)
(17.7926 0.190752 0)
(17.7099 0.224899 1.0842e-19)
(17.8132 0.176745 0)
(17.4604 0.284658 1.0842e-19)
(17.1785 0.441181 0)
(17.6941 0.198044 0)
(17.6445 0.17895 -1.0842e-19)
(17.668 0.19745 0)
(17.6732 0.105928 2.71051e-20)
(17.6201 0.0940572 0)
(17.6452 0.0647995 0)
(17.3521 0.182454 -1.6263e-19)
(17.2417 0.250022 0)
(17.2041 0.227381 0)
(17.4216 0.116543 0)
(17.1287 0.185433 0)
(17.2476 0.169343 5.42101e-20)
(16.217 0.88053 -1.89735e-19)
(16.923 0.264365 2.1684e-19)
(17.0503 0.19358 -1.0842e-19)
(16.5148 0.402681 1.35525e-20)
(16.4595 0.303486 -1.0842e-19)
(16.601 0.179757 0)
(16.7197 0.0724822 -2.71051e-20)
(16.4676 0.198619 1.0842e-19)
(16.5525 0.197312 0)
(16.7591 0.042095 1.35525e-20)
(16.5565 0.106823 -5.42101e-20)
(16.6392 0.0740672 0)
(16.26 0.284988 5.42101e-20)
(16.2594 0.285097 5.42101e-20)
(16.5736 0.0583728 3.38813e-20)
(14.1228 -1.16038e-33 1.01265e-35)
(16.2055 0.233351 -8.13152e-20)
(16.0313 0.456448 -2.1684e-19)
(16.2786 0.141161 0)
(16.2717 0.14956 5.42101e-20)
(16.1328 0.27672 -1.6263e-19)
(16.0065 0.49624 2.1684e-19)
(16.1496 0.224801 -1.0842e-19)
(16.0578 0.311358 -1.35525e-20)
(16.0329 0.306149 1.0842e-19)
(15.9597 0.248109 0)
(15.995 0.207385 5.42101e-20)
(16.1761 0.100761 2.71051e-20)
(15.7592 0.552923 0)
(15.9032 0.282452 -1.6263e-19)
(15.7753 0.378518 -1.35525e-20)
(15.9588 0.142675 5.42101e-20)
(15.878 0.206254 -1.0842e-19)
(15.9128 0.133334 5.42101e-20)
(15.787 0.229761 0)
(15.8943 0.132016 0)
(15.8134 0.13565 0)
(15.7064 0.227333 -5.42101e-20)
(15.6562 0.226472 0)
(15.7874 0.11743 0)
(15.3795 0.352171 5.42101e-20)
(15.4516 0.174691 5.42101e-20)
(15.569 0.0180909 0)
(15.4659 0.0603931 -1.35525e-20)
(15.4382 0.0801407 5.42101e-20)
(15.2553 0.260517 0)
(15.4242 0.0645192 5.42101e-20)
(15.1808 0.292105 1.0842e-19)
(15.1712 0.464937 -2.1684e-19)
(15.144 0.41267 -2.1684e-19)
(15.0517 0.266238 6.77626e-21)
(15.0163 0.251417 0)
(15.0419 0.167057 5.42101e-20)
(15.026 0.111771 -5.42101e-20)
(14.9577 0.198352 0)
(14.9353 0.210243 0)
(14.7936 0.14422 0)
(14.7099 0.232323 0)
(14.7794 0.0755442 0)
(14.6939 0.172544 -1.21973e-19)
(14.6562 0.219298 0)
(14.649 0.172054 -1.35525e-20)
(14.6449 0.205829 -5.42101e-20)
(14.6593 0.164585 -1.35525e-20)
(14.593 0.371879 1.0842e-19)
(14.5647 0.109584 0)
(14.4459 0.0914784 0)
(14.4149 0.155984 -1.35525e-20)
(14.3838 0.224782 -5.42101e-20)
(14.3719 0.224183 0)
(14.3269 0.0949943 5.42101e-20)
(14.3025 0.018865 6.77626e-21)
(14.2676 0.232095 5.42101e-20)
(14.268 0.142007 1.0842e-19)
(14.1939 0.215728 0)
(14.1998 0.114198 6.77626e-21)
(14.1629 0.148777 5.42101e-20)
(22.7459 -4.29552e-34 3.74865e-36)
(21.5253 -5.32997e-34 4.6514e-36)
(22.2016 -4.75683e-34 4.15122e-36)
(23.3289 -3.80141e-34 3.31744e-36)
(21.935 -4.98273e-34 4.34837e-36)
(22.3816 -4.60424e-34 4.01806e-36)
(22.7766 -4.2695e-34 3.72594e-36)
(23.7721 -3.42573e-34 2.98959e-36)
(23.0408 -4.04553e-34 3.53048e-36)
(24.1021 -3.14609e-34 2.74555e-36)
(21.6492 2.5317e-22 -2.20938e-24)
(21.378 7.3236e-35 1.01598e-35)
(20.9994 -5.77563e-34 5.04032e-36)
(22.6367 -4.38802e-34 3.82936e-36)
(23.8322 -3.37478e-34 2.94513e-36)
(21.1656 1.42533e-24 -1.24386e-26)
(22.336 -4.64285e-34 4.05175e-36)
(22.1807 -4.77447e-34 4.16661e-36)
(20.9115 -5.85015e-34 5.10535e-36)
(21.3538 -5.47529e-34 4.77821e-36)
(20.5642 -6.14451e-34 5.36223e-36)
(22.5968 -4.42186e-34 3.8589e-36)
(21.4224 -5.41716e-34 4.72748e-36)
(22.3877 -4.59906e-34 4.01354e-36)
(24.262 -3.01057e-34 2.62728e-36)
(21.5937 -5.27196e-34 4.60077e-36)
(22.87 -4.19029e-34 3.65681e-36)
(22.065 -4.87254e-34 4.2522e-36)
(21.8512 -5.05375e-34 4.41034e-36)
(21.4102 -5.42751e-34 4.73651e-36)
(22.6461 -4.38009e-34 3.82244e-36)
(23.3378 -3.79381e-34 3.3108e-36)
(24.2259 -3.04116e-34 2.65398e-36)
(23.3673 0.00858359 -6.77626e-21)
(21.969 -4.95392e-34 4.32322e-36)
(23.1521 -3.95122e-34 3.44817e-36)
(23.6757 -3.50743e-34 3.06089e-36)
(20.8736 -5.88233e-34 5.13343e-36)
(23.8836 8.5142e-25 -7.43023e-27)
(21.2685 -5.54761e-34 4.84133e-36)
(21.4668 -2.16263e-34 1.8873e-36)
(23.7609 -3.43523e-34 2.99788e-36)
(23.6761 1.11107e-32 -9.69616e-35)
(20.3886 -6.29333e-34 5.49211e-36)
(20.2986 -6.36965e-34 5.55871e-36)
(21.7929 2.05863e-25 1.79654e-27)
(21.956 -4.96491e-34 4.33281e-36)
(22.0928 -4.84904e-34 4.23169e-36)
(24.4921 -2.81553e-34 2.45708e-36)
(23.3354 -3.7959e-34 3.31263e-36)
(22.7385 -4.30179e-34 3.75411e-36)
(23.445 -3.70294e-34 3.2315e-36)
(20.1926 -6.4595e-34 5.63712e-36)
(20.1604 -6.48676e-34 5.66091e-36)
(24.0073 -3.22638e-34 2.81562e-36)
(20.6032 -6.11148e-34 5.33341e-36)
(22.1686 -4.78477e-34 4.1756e-36)
(20.2305 -6.42729e-34 5.60901e-36)
(23.543 -3.61993e-34 3.15906e-36)
(23.6516 -3.52789e-34 3.07874e-36)
(22.6544 -4.373e-34 3.81626e-36)
(23.4632 -3.68758e-34 3.21811e-36)
(20.1933 -6.45884e-34 5.63655e-36)
(20.6631 -6.06073e-34 5.28912e-36)
(22.1485 -4.80178e-34 4.19045e-36)
(21.302 -5.51924e-34 4.81657e-36)
(22.5038 -4.50066e-34 3.92766e-36)
(20.1273 -6.51481e-34 5.68539e-36)
(22.1886 -4.76778e-34 4.16077e-36)
(24.2287 -3.03881e-34 2.65193e-36)
(21.2804 -5.5375e-34 4.83251e-36)
(20.8775 -5.87903e-34 5.13055e-36)
(20.8866 -5.8713e-34 5.12381e-36)
(21.8214 3.49875e-25 -3.05332e-27)
(21.125 -5.66919e-34 4.94743e-36)
(22.6428 -4.38286e-34 3.82486e-36)
(21.7993 2.21569e-22 -1.9336e-24)
(21.292 -5.52769e-34 4.82394e-36)
(22.5134 -4.49249e-34 3.92054e-36)
(22.201 -4.75732e-34 4.15165e-36)
(21.8015 -5.09585e-34 4.44708e-36)
(24.2372 -3.03155e-34 2.64559e-36)
(23.8186 -3.38634e-34 2.95521e-36)
(20.3493 -6.32667e-34 5.5212e-36)
(23.1735 -3.93307e-34 3.43233e-36)
(23.4424 -3.70521e-34 3.23349e-36)
(21.4288 -5.41177e-34 4.72278e-36)
(24.0092 -3.22485e-34 2.81428e-36)
(21.7721 -5.12077e-34 4.46883e-36)
(21.0183 -5.75963e-34 5.02635e-36)
(22.2949 -4.67772e-34 4.08219e-36)
(19.9162 -6.69368e-34 5.84148e-36)
(23.5765 -3.59156e-34 3.13431e-36)
(24.4769 -2.82843e-34 2.46833e-36)
(19.9452 -6.6691e-34 5.82004e-36)
(22.143 -4.80642e-34 4.1945e-36)
(20.8207 -5.92717e-34 5.17257e-36)
(22.4307 -4.56246e-34 3.9816e-36)
(22.2442 -4.72071e-34 4.1197e-36)
(23.5703 -3.59677e-34 3.13885e-36)
(21.5073 9.22561e-25 8.05107e-27)
(21.8018 -5.09559e-34 4.44685e-36)
(23.702 -3.48513e-34 3.04143e-36)
(23.9825 -3.24742e-34 2.83398e-36)
(20.8453 -5.90627e-34 5.15432e-36)
(21.9583 -4.96302e-34 4.33116e-36)
(24.231 -3.03686e-34 2.65023e-36)
(23.4886 -3.66604e-34 3.19931e-36)
(24.248 -3.0224e-34 2.63761e-36)
(20.5656 -6.14334e-34 5.36121e-36)
(20.7142 7.42193e-31 6.48753e-33)
(22.561 -4.45223e-34 3.8854e-36)
(22.723 -4.31485e-34 3.76551e-36)
(21.2482 -5.56479e-34 4.85632e-36)
(24.076 -3.16822e-34 2.76487e-36)
(21.9302 -4.98681e-34 4.35192e-36)
(23.6301 -3.54613e-34 3.09466e-36)
(20.995 -5.7794e-34 5.04361e-36)
(19.7363 -6.84621e-34 5.9746e-36)
(23.7556 -3.43973e-34 3.00181e-36)
(23.9967 -3.23543e-34 2.82352e-36)
(22.6687 -4.36094e-34 3.80573e-36)
(23.5656 -3.60079e-34 3.14236e-36)
(24.2713 -3.00265e-34 2.62037e-36)
(21.9124 -5.00186e-34 4.36505e-36)
(23.0027 -4.07787e-34 3.5587e-36)
(20.3943 -6.28854e-34 5.48793e-36)
(22.1249 -4.82181e-34 4.20793e-36)
(19.6309 -6.93548e-34 6.0525e-36)
(20.6917 -6.03649e-34 5.26796e-36)
(21.0849 -5.70319e-34 4.9771e-36)
(24.4096 -2.88547e-34 2.51811e-36)
(21.1453 -5.65201e-34 4.93244e-36)
(24.301 -2.97752e-34 2.59844e-36)
(22.2233 -4.73844e-34 4.13517e-36)
(19.5963 -6.96481e-34 6.0781e-36)
(23.2368 6.57844e-25 5.74092e-27)
(20.4085 -6.27645e-34 5.47737e-36)
(19.5828 -6.97628e-34 6.08811e-36)
(24.4195 -2.87703e-34 2.51074e-36)
(24.104 -3.14448e-34 2.74415e-36)
(24.4594 -2.84324e-34 2.48126e-36)
(23.3923 -3.74767e-34 3.27054e-36)
(19.5472 -7.00649e-34 6.11447e-36)
(21.7672 0.00500665 8.47033e-22)
(23.4356 -3.71094e-34 3.23849e-36)
(22.9419 -4.1294e-34 3.60367e-36)
(23.1487 -3.95414e-34 3.45073e-36)
(21.0898 -5.69903e-34 4.97347e-36)
(20.1958 -6.45679e-34 5.63476e-36)
(20.7089 -6.02191e-34 5.25524e-36)
(22.5233 -4.48417e-34 3.91327e-36)
(20.4626 -6.23065e-34 5.4374e-36)
(20.3486 -6.32724e-34 5.5217e-36)
(21.3719 -5.45998e-34 4.76486e-36)
(19.5166 -7.03235e-34 6.13704e-36)
(22.0376 -4.89575e-34 4.27246e-36)
(21.5216 -5.33311e-34 4.65414e-36)
(21.9063 -5.0071e-34 4.36963e-36)
(20.1226 -6.51881e-34 5.68888e-36)
(21.1122 -5.68007e-34 4.95692e-36)
(23.4486 -3.69996e-34 3.2289e-36)
(21.6009 -5.26593e-34 4.59551e-36)
(23.6056 2.51862e-34 8.4235e-36)
(22.5029 -4.50117e-34 3.92849e-36)
(22.2491 -4.71651e-34 4.11603e-36)
(21.8169 -5.08286e-34 4.43574e-36)
(19.363 -7.16259e-34 6.2507e-36)
(21.6979 -5.17641e-34 4.53006e-36)
(19.3606 -7.1646e-34 6.25245e-36)
(22.5244 -4.48321e-34 3.91244e-36)
(22.6422 -4.38337e-34 3.82531e-36)
(20.6248 -6.09316e-34 5.31742e-36)
(21.6886 -5.19159e-34 4.53064e-36)
(22.1883 -4.7681e-34 4.16106e-36)
(22.7376 -4.30252e-34 3.75475e-36)
(21.5059 -5.34645e-34 4.66577e-36)
(23.3717 -3.76512e-34 3.28577e-36)
(23.5473 -3.61628e-34 3.15588e-36)
(23.2511 -3.8673e-34 3.37494e-36)
(22.2866 -4.68472e-34 4.08829e-36)
(21.3998 -5.43634e-34 4.74422e-36)
(23.6363 -3.54082e-34 3.09003e-36)
(21.845 -5.05902e-34 4.41494e-36)
(21.828 -5.0734e-34 4.42749e-36)
(23.5888 -3.58112e-34 3.1252e-36)
(20.4345 -6.25445e-34 5.45818e-36)
(19.7824 -6.80697e-34 5.94061e-36)
(19.9625 -6.65451e-34 5.8073e-36)
(23.4344 -3.71196e-34 3.23937e-36)
(22.5985 -4.42037e-34 3.8576e-36)
(21.1706 -5.63059e-34 4.91374e-36)
(21.3326 -5.49333e-34 4.79395e-36)
(21.2342 -5.5767e-34 4.86671e-36)
(23.9617 -3.26504e-34 2.84936e-36)
(24.2458 0.815456 -2.1684e-19)
(20.2509 -6.41004e-34 5.59396e-36)
(24.0232 -3.21293e-34 2.80388e-36)
(24.1527 0.592992 -4.34104e-20)
(24.3388 0.499132 -2.1684e-19)
(23.7595 0.58481 2.84603e-19)
(24.3014 0.43789 0)
(24.0003 0.459942 -1.0842e-19)
(23.6676 0.481779 -2.71051e-20)
(24.3016 0.271198 5.42101e-20)
(24.3293 0.148328 2.71051e-20)
(24.2926 0.15161 -4.06576e-20)
(23.3663 0.637731 0)
(22.7446 1.46908e-24 1.28204e-26)
(24.2641 0.175559 0)
(24.3909 0.089756 -8.13152e-20)
(23.7015 0.433867 1.0842e-19)
(23.5734 0.478525 0)
(24.3143 0.0693264 -2.37169e-20)
(24.2625 0.156821 2.71051e-20)
(24.0517 0.223116 5.42101e-20)
(24.2184 0.0993487 -5.42101e-20)
(23.827 0.462329 -7.45389e-20)
(24.0188 0.257696 5.42101e-20)
(23.0965 0.70486 0)
(24.2472 0.116665 2.71051e-20)
(24.0635 0.191257 0)
(24.1773 0.0987298 1.35525e-20)
(24.2546 0.0930489 0)
(23.8223 0.287804 -9.48677e-20)
(23.9634 0.171444 -5.42101e-20)
(23.9815 0.0111054 4.23516e-22)
(23.978 0.0619112 -2.71051e-20)
(23.7775 0.13047 -5.42101e-20)
(23.7824 0.111807 -5.42101e-20)
(23.7757 0.163068 0)
(23.7775 0.117404 0)
(21.7313 -5.15536e-34 4.49902e-36)
(19.3477 -7.17553e-34 6.26199e-36)
(23.1137 0.322055 0)
(23.3687 0.196532 1.0842e-19)
(23.5722 0.0706891 -6.77626e-21)
(23.3378 0.184299 1.0842e-19)
(22.1955 1.03209 0)