/*--------------------------------*- C++ -*----------------------------------*\
  =========                 |
  \\      /  F ield         | OpenFOAM: The Open Source CFD Toolbox
   \\    /   O peration     | Website:  https://openfoam.org
    \\  /    A nd           | Version:  7
     \\/     M anipulation  |
\*---------------------------------------------------------------------------*/
FoamFile
{
    version     2.0;
    format      ascii;
    class       labelField;
    location    "0.7/lagrangian/reactingCloud1";
    object      origId;
}
// * * * * * * * * * * * * * * * * * * * * * * * * * * * * * * * * * * * * * //


2429
(
3959
3960
3961
3962
3963
3964
3965
3966
3967
3968
3969
3970
3971
3972
3973
3974
3975
3976
3977
3978
3979
3980
3981
3982
3983
3984
3985
3986
3987
3988
3989
3990
3991
3992
3993
3994
3995
3996
3997
3998
3999
4000
4001
3526
3847
3888
3889
3893
3899
3898
3900
3901
3902
3903
3904
3905
3906
3907
3908
3910
3909
3911
3912
3913
3914
3915
3916
3917
3918
3919
3920
3921
3922
3923
3924
3926
3925
3927
3928
3929
3930
3931
3933
3932
3934
3935
3936
3938
3937
3939
3940
3941
3942
3943
3944
3945
3946
3947
3948
3949
3950
3951
3953
3952
3954
3955
3956
3957
3958
3875
3874
3881
3870
3880
3879
3883
3884
3878
3882
3887
3886
3872
3885
3892
3890
3894
3891
3897
3896
3895
3863
3867
3827
3856
3869
3865
3868
3866
3862
3873
3871
3876
3877
3852
3851
3848
3853
3850
3849
3842
3859
3857
3855
3854
3858
3817
3864
3860
3861
3830
3832
3833
3829
3831
3837
3835
3841
3834
3838
3822
3840
3845
3844
3843
3839
3836
3846
3621
3801
3802
3803
3806
3763
3807
3804
3810
3808
3805
3809
3739
3811
3812
3815
3780
3814
3813
3818
3816
3821
3823
3819
3731
3826
3824
3828
3820
3825
3753
3741
3745
3761
3762
3768
3767
3770
3771
3769
3776
3766
3774
3777
3773
3764
3775
3772
3781
3759
3783
3779
3786
3765
3778
3782
3784
3787
3788
3785
3789
3791
3755
3790
3751
3792
3793
3795
3794
3796
3797
3799
3800
3798
2082
2279
3264
3585
3687
3635
3691
3692
3699
3698
3705
3703
3695
3701
3711
3708
3704
3707
3626
3712
3714
3718
3709
3719
3717
3713
3710
3715
3725
3721
3720
3616
3723
3724
3683
3734
3733
3729
3737
3726
3736
3738
3743
3740
3744
3742
3748
3746
3735
3747
3727
3722
3750
3716
3728
3730
3752
3757
3756
3732
3758
3754
3749
3760
728
771
1575
2109
2335
2364
3235
3319
3354
3420
3565
1722
3561
3615
3579
3623
3628
3634
3638
3637
3630
3624
3641
3633
3639
3631
3632
3627
3601
3647
3644
3649
3640
3642
3643
3652
3651
3654
3648
3646
3655
3653
3645
3657
3650
3659
3614
3663
3661
3662
3665
3656
3658
3670
3666
3667
3674
3669
3672
3675
3679
3680
3678
3676
3671
2702
3684
3685
3677
3668
3688
3681
3690
3686
3694
3664
3682
3673
3660
3689
3697
3702
3696
3693
3700
3706
259
588
732
820
954
1143
733
1334
1414
735
1179
1329
1674
1789
1794
1496
2024
2098
2171
2244
2304
2339
2375
2419
2576
2645
2714
2818
1264
2958
2964
3212
2769
1967
402
3504
3539
3535
3466
3553
3557
1955
3524
3560
3566
3519
3489
3546
3551
3568
2405
3499
3537
3538
3567
3555
3574
3488
3572
3554
3569
3577
3580
3573
3581
3576
3483
3543
3564
3547
3570
3562
3571
3588
3591
3592
3586
3590
3596
3593
3600
3587
3575
3595
3604
3603
3528
3598
3582
3611
3599
3612
3609
3606
3602
3613
3617
3583
3584
3607
3610
3597
3578
3594
3618
3619
3620
3622
3589
3629
3625
3605
3608
3636
131
156
230
208
410
520
551
747
853
947
382
1060
1146
1201
1229
1322
1443
1459
1587
1133
1667
659
1727
1723
1766
1847
1868
1848
1925
218
1985
1990
2035
2067
1221
554
2118
2150
2134
2207
2277
2269
2334
2444
2463
2484
2456
2550
2526
2594
2618
2581
2629
2606
2653
2728
2758
2797
2819
2855
2887
1956
2690
2936
2948
2944
3044
3079
3078
3126
135
3169
3132
3211
3227
3229
3234
3217
1383
3394
3346
3374
3364
3361
3356
3379
3425
3360
3433
1319
3391
3405
3429
2959
3445
3447
3441
3440
3414
3443
3450
3428
1611
3438
3410
3431
3439
3452
3453
3435
3460
3461
3427
3408
3437
3454
3457
3451
3416
3459
3442
3377
3469
3448
3455
3481
3471
3484
3473
3456
3463
3478
3465
3464
3304
3470
3458
3370
3395
3476
3502
3479
3497
3507
3500
3509
3462
3432
3511
2094
3487
3477
3494
3512
3503
3467
3491
3490
3474
3482
3444
3513
3446
3498
3468
3516
3501
3522
3496
3486
3505
3514
3510
3529
3480
3492
3532
877
3525
3485
3536
3495
3493
3472
3508
3518
3520
3540
3521
3523
3531
3515
3552
3530
3506
3527
3548
3544
3475
3545
3549
3542
3517
3534
3559
3556
3550
3541
3533
3563
3558
15
26
36
22
40
34
57
54
64
75
96
91
123
136
178
214
215
268
308
320
247
336
389
446
494
518
560
605
624
639
676
665
660
686
697
741
743
781
766
833
837
799
812
904
88
946
942
963
1072
1068
1081
1106
843
381
1117
1166
1178
1151
1207
1205
1223
1164
1253
1211
1277
1267
1284
16
1296
1222
1343
1330
1361
1356
1371
1405
1465
1458
1461
1479
1490
1507
1534
1530
1586
1603
1653
1676
1693
1696
1698
1382
1656
1724
1471
1739
1770
1751
1801
1856
1863
1885
1854
1881
1901
1921
1933
1964
1981
1995
2009
2013
2040
2015
2012
2057
2023
2065
439
2062
2119
2114
2225
2234
2219
2255
2273
2276
632
2348
2251
2381
2377
2406
2401
1295
2423
2447
2046
2458
2493
2470
2520
27
210
2540
2602
2672
2670
2703
2723
2730
2735
2756
2759
2782
2750
2796
2814
2820
2825
2812
2816
2849
2857
2894
2875
1288
2904
2159
2872
2954
2938
2997
3011
3005
3000
3018
3035
3013
3067
3097
3094
3114
3116
3069
3172
3175
3177
3163
3179
3205
3215
3225
3218
3156
3243
3269
3195
3214
3162
3261
3159
3224
3254
3232
3277
3206
3291
3290
3305
3201
3270
3307
3301
3298
3299
3242
3308
3186
3246
3284
3300
3293
3259
3306
3312
3329
3283
3311
3320
3316
3318
3337
3272
3288
3336
3271
3251
3282
3317
3302
3326
3340
3279
3285
3330
3324
3313
3309
3341
3265
3278
3238
3332
3267
3351
3335
3314
3345
3328
3323
3348
3333
3310
3322
3331
3327
3315
3352
3355
3368
3334
3367
3358
3371
3357
3343
3321
3372
3342
3387
3347
3385
3380
3386
3365
3359
3384
3381
3369
3373
3383
3366
3388
3350
3353
3382
3325
3378
3399
3362
3389
3390
3363
3398
3375
3401
3409
3396
3404
3344
3392
3339
3402
3403
3407
3406
3393
3415
3418
3349
3413
3426
3421
3419
3295
3376
3292
3430
3400
3424
3412
3411
2598
1090
3422
3449
3338
3434
3397
3436
3423
3417
6
29
48
45
53
32
18
43
95
126
159
228
242
205
255
312
343
385
302
441
435
511
460
508
545
571
603
584
585
654
42
662
647
704
740
749
774
780
807
848
884
960
957
978
989
1039
595
983
1037
1046
1103
541
1084
1170
220
1193
965
1261
1268
1258
1350
1364
761
1276
538
1397
1381
1428
1462
1470
1520
1540
1563
1565
1564
1639
1648
1573
1136
1731
1750
1707
1765
1764
1809
642
1812
1825
1849
1799
1893
1940
1951
1968
1953
1987
2027
2034
2011
1970
2055
2029
1876
2093
2153
1782
2169
2167
2178
2268
2240
2263
2325
362
2351
2344
2385
119
2382
2327
2373
2426
2440
2436
2433
2485
2501
2452
2490
128
2589
2604
2578
2615
2524
2619
940
2656
2685
2697
1619
2751
2732
2726
2768
2779
1355
2799
2839
2837
2815
1477
2402
2898
2831
2878
2539
2897
2916
1903
2924
2973
2991
2790
30
1593
3009
2981
2824
3031
3038
3068
3064
3036
3075
3087
3083
3107
3060
3048
3057
3003
3148
3065
3122
1313
3098
3140
3105
3125
3141
3121
2986
3130
3136
3076
3152
3166
3142
3154
3170
3178
3139
3134
3183
3100
3173
3133
1811
3188
2969
3182
3135
3144
3194
3146
3029
3124
1988
3138
3181
3158
3109
163
3128
3174
3184
1844
3157
3200
231
3143
3187
3150
3081
3165
3149
3207
3203
3202
3192
3191
3185
3171
3153
3168
3222
3190
3228
3223
3164
3209
3196
3236
3145
3221
3240
3056
3167
3198
3219
3197
3193
3230
3241
3244
3155
3189
3208
3231
3210
3256
3245
1398
3147
3239
3263
3260
3161
3095
3151
3255
3249
3247
3233
3237
3262
1753
3276
3220
3180
3199
3266
3226
3248
3280
3275
3258
3216
3204
3213
3294
3274
3252
3289
3268
3176
3286
711
3287
3253
3273
3281
3257
3250
3303
3296
3160
3297
12
10
41
14
50
39
85
73
87
130
129
144
133
154
246
258
238
262
293
306
335
341
366
352
394
374
408
436
482
509
562
517
516
607
597
655
631
325
683
679
819
235
826
850
750
829
650
872
887
859
922
948
975
971
845
1024
1012
1055
1131
1130
1015
1148
896
1121
1208
1161
1152
1176
1238
1291
1256
1167
1124
1339
1309
1340
1333
1372
1228
1380
803
1379
1456
1407
108
1184
1515
1559
1535
1579
1623
1605
1652
351
1678
1697
1726
1743
1738
1589
1692
1778
1762
1742
1808
1802
1747
1677
1768
1829
1850
1824
720
1846
8
1866
1810
463
1262
1896
1877
1937
1929
1978
1934
1989
2042
2079
2113
2130
2137
2163
2187
2215
2245
2148
2265
2220
2204
2168
2297
2302
2298
2280
2332
2355
2322
2376
2359
2397
2412
2383
2394
2421
2486
1115
2518
2546
2529
1645
2535
2574
2530
2565
2548
2553
2512
800
2628
2592
2585
2654
2662
2681
666
2666
2717
785
2692
2740
2747
2787
2765
1463
2785
2811
261
2861
1043
2639
2794
2780
2725
2695
2605
2788
2755
2741
2870
2930
2922
2926
2859
2919
2892
2808
2903
2901
2890
2899
1815
2929
2931
2869
2801
2873
2917
2927
2914
2896
2920
2822
2923
2858
2941
2942
2864
245
2760
2945
2867
2933
2893
2880
2851
2939
2891
2955
2913
2789
2935
2902
2952
2967
2900
2953
2886
2700
2906
2331
2961
2882
2972
2793
2966
2968
2772
2889
2909
2975
2778
2881
2834
31
2962
2971
2965
2956
2988
2951
2960
2792
2928
2943
623
3002
2915
2985
2895
2994
2949
2989
2992
2984
2979
2842
2847
2800
2840
2908
2946
3021
2978
3008
2947
2987
3017
2982
3032
3022
2918
2932
3015
2937
2856
3001
2957
3025
2980
2974
3010
2907
2970
3041
3047
3026
3004
3046
3023
3049
3040
2963
2983
2998
3051
3062
2862
3014
1062
3039
2990
1979
3033
3052
2993
3034
3063
3019
3024
3016
2921
3028
2934
2996
3012
3061
3070
2844
2888
3073
3088
3071
2950
3085
3066
3058
3007
2995
3054
3111
3043
3103
3037
1638
3092
2976
3072
3086
3059
3077
3030
3080
3027
2977
3120
3084
3053
3055
3045
3106
3090
3020
3102
3099
3113
3006
3089
3091
3118
3101
3110
2827
3082
3074
3042
3093
3050
3117
3096
3112
3104
2999
3129
3123
3119
3127
2940
3115
3108
3131
3137
11
67
37
55
2
46
49
35
56
99
62
4
103
94
38
72
102
93
137
143
142
139
146
224
241
199
177
243
275
260
278
232
305
286
358
419
332
447
422
443
507
493
478
504
521
529
486
371
531
550
526
457
433
575
559
534
606
563
634
570
663
678
627
699
661
648
751
673
578
760
736
821
869
758
860
706
806
905
923
928
930
934
902
805
945
903
879
917
253
115
889
990
1010
899
949
1058
1041
372
1019
1099
1171
1085
1157
1172
1213
1159
1198
1214
1216
1192
1079
1203
1246
1233
1265
1188
1255
1274
798
375
1335
82
1326
1389
1376
1377
1402
1404
1396
1453
1331
1430
1436
1469
1492
1457
1501
1419
1431
1537
1437
1523
1539
1547
1510
314
1468
1569
564
1625
1550
1683
1578
1542
1729
1725
1776
1793
1580
1784
1689
1816
1748
1806
1834
118
1780
1828
1838
1865
1820
1736
1840
1821
1891
1927
608
1928
1947
1971
1248
1959
1941
1948
2001
1960
2003
2066
1888
2090
2104
2115
2127
2031
2145
2177
2186
2230
2184
2231
2208
2120
2229
2222
2053
2281
2038
2288
2313
2341
2286
2296
1954
2343
2197
2345
2292
2217
2354
2301
2379
2390
2293
2360
2223
2388
2378
2326
2411
2347
2250
2338
2321
2318
2353
2323
2300
2330
2399
2310
2299
2365
2408
2021
2303
2221
2289
2392
2415
2434
2429
2369
2413
2393
2403
2430
2441
2315
2386
2416
2259
2374
2309
2396
2314
2307
2466
2437
2439
2448
83
2446
2395
1494
2218
2370
2427
2468
2459
2472
2414
2420
2445
2488
2398
2460
2352
2476
2409
2368
2417
2404
2438
2366
2487
2400
2407
2483
2443
2455
2432
2295
2122
2471
2497
2489
2410
2216
2418
2442
2457
2389
2477
2510
2424
2516
2451
2469
2480
2431
480
2538
2519
2522
2450
2496
2511
2549
2473
2542
2552
2507
2425
2508
2499
2562
2547
2467
2454
2555
2528
2575
2283
2498
2453
2495
1323
2349
2358
2462
2571
2560
2505
2545
2532
2346
2564
2481
2587
2461
2531
2536
2479
2573
153
2597
2584
2569
2595
2607
2570
476
2583
2320
2506
2596
2544
2521
2543
2556
2582
2503
1644
2514
2612
2568
2561
2509
2613
2465
609
2523
2494
2577
2617
2579
2475
2513
2567
2609
2541
2621
2515
2636
2610
2638
2474
2527
2626
2482
2563
2648
2623
2591
2611
2600
2537
2517
2599
2650
2449
2593
2478
2632
2633
2608
2634
2631
2637
2464
2652
2580
2659
2620
2649
2558
2655
2630
2679
2668
2428
2586
2504
2673
84
2635
2657
2688
2554
2614
2533
2701
2675
2677
2644
2566
2534
2603
2651
2687
2502
2646
2663
2686
2551
2661
2641
2422
2525
2627
2724
2435
2500
2706
2721
2588
2694
2712
2658
2643
2492
2709
2622
2737
2557
1702
2624
2715
2705
2711
2667
1089
2698
2601
2669
2710
2739
2745
2704
2727
2572
2559
2625
2665
2775
2742
2757
2773
2689
2708
2640
1924
2734
2713
2642
2753
2676
2491
1549
2691
2696
1445
2660
2678
2720
2590
2736
350
2761
2748
2749
2716
2647
827
2693
2616
2674
2783
2784
2804
2680
2746
2718
2805
2767
2791
2807
2776
2754
2719
2763
2744
2743
2682
2813
2777
2766
2823
2833
2683
2671
2764
2699
2731
1297
2830
2835
2781
2771
2843
2722
2729
2848
2826
2838
2803
155
2802
2854
2841
2786
2845
2852
2684
2832
2860
2752
2738
2821
2853
2810
2871
2836
2762
2770
2774
2876
2328
2865
2806
2809
2664
2828
2863
2798
111
2287
1994
2829
2868
2879
2884
2874
2846
2850
2817
2866
2912
2877
2384
2795
2707
2883
2911
2733
2905
2885
2910
2925
)


// ************************************************************************* //
