/*--------------------------------*- C++ -*----------------------------------*\
  =========                 |
  \\      /  F ield         | OpenFOAM: The Open Source CFD Toolbox
   \\    /   O peration     | Website:  https://openfoam.org
    \\  /    A nd           | Version:  7
     \\/     M anipulation  |
\*---------------------------------------------------------------------------*/
FoamFile
{
    version     2.0;
    format      ascii;
    class       Cloud<passiveParticle>;
    location    "0.7/lagrangian/reactingCloud1";
    object      positions;
}
// * * * * * * * * * * * * * * * * * * * * * * * * * * * * * * * * * * * * * //

2429
(
(0.248481 0.374971 0.27407 0.102478) 2859 5742 1
(0.25083 0.0481195 0.326264 0.374786) 2888 5666 2
(0.240496 0.281797 0.0968186 0.380889) 2794 5479 2
(0.385519 0.0182875 0.288882 0.307311) 2730 5352 2
(0.324545 0.106786 0.338549 0.23012) 2586 5200 2
(0.056755 0.47056 0.151406 0.321279) 2538 4973 1
(0.149456 0.272735 0.427403 0.150406) 2451 4932 2
(0.27113 0.349636 0.365462 0.0137723) 2409 4717 2
(0.633248 0.142057 0.0397411 0.184955) 2334 4565 2
(0.52834 0.0958741 0.133108 0.242678) 2304 4506 2
(0.249409 0.228702 0.143805 0.378085) 2202 4303 2
(0.0481874 0.106312 0.369375 0.476125) 2113 4127 2
(0.667287 0.165451 0.100242 0.0670199) 2003 4043 1
(0.00493839 0.496937 0.0557408 0.442383) 1943 3792 1
(0.444604 0.277383 0.234781 0.0432323) 1935 3774 1
(0.684449 0.157607 0.00348417 0.15446) 1848 3603 1
(0.0628136 0.233613 0.468789 0.234784) 1812 3532 2
(0.149704 0.346847 0.0783008 0.425148) 1020 313966 1
(0.0397411 0.477074 0.262773 0.220412) 1657 3221 1
(0.131587 0.43374 0.374053 0.0606195) 1499 3042 1
(0.0102994 0.49485 0.406604 0.0882463) 1477 2867 1
(0.296302 0.20341 0.353883 0.146404) 1377 2800 2
(0.10706 0.44647 0.0750812 0.371389) 1306 2527 1
(0.16132 0.41934 0.24423 0.17511) 1256 2426 1
(0.835512 0.0641774 0.017565 0.0827452) 1159 2232 2
(0.509185 0.243564 0.243411 0.00384087) 1090 2095 1
(0.0577472 0.189997 0.471126 0.28113) 1089 2096 2
(0.159762 0.310169 0.10995 0.420119) 1032 1981 2
(0.302752 0.346515 0.2784 0.0723329) 954 1825 1
(0.0511894 0.208721 0.474405 0.265684) 900 1721 2
(0.00758892 0.226177 0.270028 0.496206) 831 1582 2
(0.320723 0.127525 0.212114 0.339639) 795 1511 2
(0.257386 0.369099 0.211999 0.161516) 700 1321 1
(0.373317 0.103651 0.207223 0.315809) 658 1238 2
(0.44361 0.265955 0.00883017 0.281605) 572 1067 2
(0.433408 0.28318 0.0106652 0.272747) 498 920 1
(0.209586 0.394773 0.0104192 0.385222) 464 853 1
(0.191969 0.157198 0.244011 0.406822) 379 684 2
(0.221272 0.0995323 0.289832 0.389364) 282 492 2
(0.485482 0.204223 0.0509935 0.259301) 221 370 2
(0.241252 0.211126 0.379374 0.168248) 150 232 2
(0.221621 0.386323 0.389847 0.00220906) 68 67 1
(0.489118 0.0520504 0.255058 0.203773) 0 315125 2
(0.126475 0.436536 0.406203 0.0307861) 6052 12082 1
(0.0898423 0.370209 0.0820222 0.457927) 6258 12355 2
(0.31308 0.275661 0.0692528 0.342006) 6400 12638 2
(0.518058 0.157084 0.240155 0.0847019) 5985 11816 2
(0.296 0.353513 0.28981 0.0606775) 5920 11685 1
(0.155677 0.066635 0.355876 0.421812) 6127 12096 2
(0.211541 0.162032 0.393945 0.232482) 4628 9122 2
(0.348862 0.322913 0.0572843 0.270941) 6273 12520 1
(0.294057 0.331059 0.356282 0.0186022) 6205 12385 2
(0.219811 0.387364 0.191149 0.201676) 6357 12552 1
(0.144993 0.428199 0.131005 0.295803) 6219 12279 1
(0.267337 0.278359 0.365109 0.0891941) 5792 11433 2
(0.515794 0.140824 0.102006 0.241376) 5928 11701 2
(0.493291 0.251344 0.030244 0.22512) 5860 11700 1
(0.351723 0.304675 0.0168374 0.326765) 5789 11424 2
(0.535107 0.109802 0.123212 0.231879) 5947 11739 2
(0.207176 0.153115 0.241825 0.397884) 5727 11301 2
(0.148152 0.287158 0.140257 0.424433) 6045 11934 2
(0.258035 0.190152 0.374944 0.176869) 5823 11627 2
(0.666691 0.039918 0.16713 0.126261) 5669 11321 2
(0.544168 0.132432 0.229421 0.0939786) 5599 11182 2
(0.213129 0.26867 0.125579 0.392622) 5525 10901 2
(0.458716 0.26848 0.00898252 0.263822) 5379 10745 1
(0.814171 0.00366149 0.0929569 0.0892103) 5464 10914 2
(0.343731 0.328504 0.124802 0.202963) 5316 10486 1
(0.208134 0.396476 0.212338 0.183052) 5322 10500 1
(0.565452 0.217774 0.166946 0.0498283) 5419 10691 1
(0.256849 0.319988 0.370632 0.0525303) 5343 10542 2
(0.894573 0.0426455 0.00938041 0.0534016) 5272 10398 2
(0.312738 0.310621 0.0339156 0.342726) 5299 10453 2
(0.251213 0.368132 0.338114 0.0425414) 5209 10273 1
(0.111204 0.441797 0.00385691 0.443142) 5143 10143 2
(0.396912 0.0627377 0.302171 0.238179) 4913 9820 2
(0.125453 0.43736 0.0308092 0.406377) 5083 10024 1
(0.163537 0.41361 0.145552 0.277302) 4934 9862 1
(0.0940484 0.452762 0.0226807 0.430509) 4843 9546 1
(0.0580956 0.466309 0.0948856 0.380709) 4787 9570 1
(0.747276 0.125485 0.037759 0.0894801) 4709 9415 1
(0.676205 0.126176 0.164073 0.0335456) 4730 9457 2
(0.547124 0.137961 0.22767 0.0872454) 4499 8998 2
(0.10636 0.438968 0.0934745 0.361198) 4669 9336 1
(0.313048 0.340644 0.322798 0.0235094) 4499 8863 1
(0.387669 0.306058 0.203119 0.103154) 4294 8457 1
(0.415542 0.0180282 0.292224 0.274206) 4450 8769 2
(0.465685 0.00293584 0.264219 0.26716) 4227 8324 2
(0.507763 0.245512 0.218819 0.0279065) 4397 8796 1
(0.605266 0.135056 0.062188 0.19749) 4240 8350 2
(0.412494 0.289013 0.0425112 0.255982) 4189 8383 1
(0.266534 0.366119 0.29738 0.0699669) 4023 8053 1
(0.187511 0.406025 0.300789 0.105675) 4043 7961 1
(0.210724 0.394351 0.278953 0.115971) 3971 7818 1
(0.882458 0.0245135 0.0590069 0.0340219) 3891 7791 2
(0.78744 0.105347 0.00832228 0.0988904) 3823 7656 1
(0.185841 0.357136 0.412332 0.0446914) 3773 7557 2
(0.346948 0.110881 0.327815 0.214355) 3696 7404 2
(0.131987 0.43078 0.237223 0.20001) 3641 7295 1
(0.656618 0.111291 0.0598152 0.172276) 3404 6690 2
(0.0518818 0.472112 0.370552 0.105455) 3478 6837 1
(0.295261 0.352074 0.0567937 0.295871) 3425 6732 1
(0.634065 0.182862 0.172315 0.0107579) 3281 6580 1
(0.900751 0.0462878 0.0498626 0.00309841) 3379 6643 2
(0.15055 0.423797 0.191686 0.233967) 3214 6313 1
(0.360005 0.319729 0.263285 0.0569817) 3139 6166 1
(0.253819 0.198358 0.374009 0.173815) 3100 6089 2
(0.736177 0.131327 0.131466 0.00103026) 3009 5906 1
(0.743162 0.12807 0.0478085 0.0809591) 2939 5769 1
(0.0739416 0.461151 0.288366 0.176542) 23298 46653 1
(0.145643 0.427178 0.299188 0.12799) 21613 42733 1
(0.118126 0.440937 0.38937 0.0515668) 20523 40559 1
(0.962535 0.00543489 0.0187089 0.0133208) 8300 16412 2
(0.585202 0.0368567 0.1707 0.207242) 8380 16569 2
(0.299086 0.35176 0.0515992 0.297554) 8239 16291 1
(0.383301 0.11438 0.307861 0.194458) 8391 16593 2
(0.0181468 0.0285666 0.462485 0.490801) 8187 16186 2
(0.299959 0.351493 0.0379793 0.310569) 7689 15199 1
(0.254874 0.0389488 0.372382 0.333795) 7761 15342 2
(0.370732 0.0395644 0.315094 0.274609) 7572 15099 2
(0.00137774 0.41666 0.0784843 0.503478) 7565 14950 2
(0.0421308 0.480346 0.281251 0.196272) 7283 14391 1
(0.567502 0.215719 0.151013 0.065766) 7146 14253 1
(0.598562 0.199542 0.0847297 0.117166) 7172 14170 1
(0.523541 0.239318 0.0266823 0.210459) 7018 13867 1
(0.147536 0.316068 0.105893 0.430503) 6966 13761 2
(0.290891 0.353108 0.179487 0.176514) 6739 13445 1
(0.364903 0.170236 0.325286 0.139575) 6856 13678 2
(0.599222 0.0930009 0.107874 0.199903) 6762 13357 2
(0.660258 0.168746 0.121546 0.0494502) 6610 13054 1
(0.364058 0.250336 0.321024 0.0645825) 32789 65601 2
(0.667314 0.161739 0.0696708 0.101275) 32820 65663 1
(0.471687 0.264156 0.214826 0.0493305) 30817 61108 1
(0.197115 0.027223 0.40169 0.373972) 31938 63902 2
(0.645069 0.176485 0.111738 0.0667088) 30286 60604 1
(0.226895 0.120666 0.265886 0.386552) 30270 60016 2
(0.523516 0.210472 0.238242 0.0277702) 28322 56129 2
(0.149757 0.42135 0.414866 0.0140268) 28312 56106 1
(0.370562 0.184659 0.12835 0.316429) 28312 56106 2
(0.24368 0.3769 0.316424 0.0629959) 27784 55609 1
(0.258945 0.370464 0.364967 0.00562423) 27486 55014 1
(0.780052 0.0206756 0.0887242 0.110548) 25837 51165 2
(0.216005 0.288989 0.397349 0.0976567) 24154 48362 2
(0.467298 0.266351 0.159325 0.107026) 42010 83456 1
(0.399357 0.297513 0.207806 0.0953238) 42001 83435 1
(0.130372 0.434814 0.184195 0.250619) 41710 82857 1
(0.0111002 0.486034 0.420814 0.0820525) 41734 82902 1
(0.392447 0.302152 0.133204 0.172198) 40311 80618 1
(0.49252 0.00391106 0.249793 0.253776) 40309 80057 2
(0.0566998 0.320068 0.47165 0.151582) 40031 79505 2
(0.0810801 0.273875 0.469241 0.175803) 38675 77352 2
(0.206382 0.259132 0.396809 0.137678) 38934 77315 2
(0.329858 0.23045 0.10217 0.337523) 38084 75615 2
(0.0154647 0.488363 0.0823106 0.413861) 36963 73934 1
(0.29114 0.192627 0.35443 0.161803) 36416 72288 2
(0.225968 0.16223 0.388518 0.223284) 35845 71702 2
(0.119335 0.440333 0.423566 0.016767) 35333 70124 1
(0.220464 0.385835 0.0161254 0.377576) 35015 70045 1
(0.694854 0.152573 0.0888623 0.0637106) 34460 68383 1
(0.250758 0.26142 0.113201 0.374621) 52325 104047 2
(0.0533039 0.473348 0.397072 0.0762765) 52058 103514 1
(0.212075 0.390658 0.231268 0.165998) 50931 101263 1
(0.0508576 0.440591 0.478577 0.0299749) 50073 100107 2
(0.688864 0.155568 0.106274 0.0492937) 49794 98996 1
(0.039639 0.393261 0.0869199 0.48018) 49260 97928 2
(0.111562 0.44388 0.0339391 0.410619) 48963 97334 1
(0.0362219 0.286777 0.195112 0.481889) 48155 95722 2
(0.17931 0.0106478 0.399697 0.410345) 47841 95095 2
(0.239499 0.38025 0.196155 0.184096) 47852 95117 1
(0.141082 0.42774 0.231822 0.199355) 47281 94533 1
(0.541277 0.199022 0.0303393 0.229361) 46733 92883 2
(0.347047 0.320489 0.0210973 0.311367) 45639 91255 1
(0.587075 0.206462 0.0217046 0.184758) 45630 90681 1
(0.093287 0.453357 0.388697 0.0646592) 45062 89549 1
(0.675673 0.142939 0.162164 0.0192247) 44209 87846 2
(0.0671074 0.395157 0.470105 0.0676303) 43936 87855 2
(0.913115 0.0335393 0.0438235 0.00952197) 43667 87318 2
(0 0 0.0624071 0.937593) 60730 375923 2
(0.242931 0.378534 0.0343121 0.344222) 62370 124101 1
(0.694849 0.143908 0.00866695 0.152575) 62375 124111 2
(0.45218 0.212483 0.058391 0.276945) 61811 122984 2
(0.739863 0.000573775 0.12948 0.130083) 61547 122457 2
(0.516006 0.241997 0.101861 0.140136) 60115 119601 1
(0.296855 0.32156 0.0300122 0.351572) 60982 121330 2
(0.161075 0.308656 0.10778 0.422488) 60400 120167 2
(0.915883 0.032412 0.00964658 0.0420586) 60441 120250 2
(0.564557 0.142367 0.0731975 0.219878) 60418 120203 2
(0.166389 0.375228 0.416805 0.0415777) 59561 118495 2
(0.596803 0.120858 0.0807407 0.201598) 59575 118521 2
(0.183557 0.407113 0.124119 0.285211) 59280 117931 1
(0.0668479 0.456125 0.397156 0.0798713) 59596 118562 1
(0.251045 0.369846 0.296417 0.0826925) 59304 117979 1
(0.357926 0.31307 0.270874 0.0581294) 58761 116895 1
(0.499936 0.249536 0.056474 0.194053) 58163 115701 1
(0.0196774 0.484095 0.485335 0.0108931) 58180 115735 1
(0.114456 0.220476 0.442772 0.222296) 57891 115161 2
(0.377988 0.311006 0.114882 0.196124) 57647 114674 1
(0.110651 0.444675 0.351936 0.0927388) 56214 111811 1
(0.408147 0.292882 0.176589 0.122382) 56238 111858 1
(0.395045 0.302231 0.0206615 0.282062) 55109 109604 1
(0.800243 0.0604665 0.0998783 0.0394118) 54539 108469 2
(0.32512 0.334653 0.31771 0.0225171) 54257 107903 1
(0.37352 0.31324 0.0609387 0.252301) 54001 107395 1
(0.474109 0.0691525 0.193793 0.262946) 53988 107367 2
(0.117777 0.435791 0.148469 0.297964) 53449 106847 1
(0.129437 0.378388 0.438601 0.053574) 53140 106230 2
(0.00103341 0.403061 0.0922238 0.503682) 53428 106248 2
(0.83016 0.0848884 0.0813238 0.00362829) 72671 145222 1
(0.336076 0.331962 0.0422006 0.289762) 72110 143548 1
(0.54452 0.227381 0.183527 0.0445723) 71271 142427 1
(0.367633 0.280073 0.0328537 0.31944) 72405 144134 2
(0.154548 0.422029 0.359266 0.0641577) 71845 143573 1
(0.397265 0.298501 0.235446 0.0687878) 71600 143084 1
(0.319533 0.336671 0.228028 0.115769) 71580 142487 1
(0.0240558 0.468765 0.0143244 0.492855) 70726 140782 2
(0.204984 0.0220189 0.397823 0.375175) 70460 140808 2
(0.127911 0.398256 0.0377879 0.436044) 69886 139106 2
(0.627914 0.186043 0.150392 0.035651) 69636 138607 1
(0.0426749 0.478663 0.023489 0.455174) 68478 136297 1
(0.611146 0.192072 0.0131107 0.183671) 69341 138574 1
(0.53387 0.233065 0.0145285 0.218536) 69358 138052 1
(0.655763 0.165073 0.0049821 0.174182) 69060 137456 2
(0.534003 0.232082 0.0691867 0.164728) 67895 135687 1
(0.66193 0.168925 0.0103076 0.158837) 69054 137444 1
(0.37477 0.284454 0.0252588 0.315518) 68772 136881 2
(0.0638484 0.345697 0.468076 0.122379) 68522 136385 2
(0.156919 0.419713 0.200398 0.22297) 67366 134631 1
(0.289423 0.229875 0.106257 0.374444) 68257 135853 2
(0.51436 0.112924 0.129896 0.24282) 67098 133540 2
(0.0406967 0.479652 0.477857 0.00179465) 67129 133604 1
(0.849314 0.0751982 0.0167758 0.0587116) 66811 132966 1
(0.397063 0.301469 0.169616 0.131853) 66814 132975 1
(0.719681 0.0160972 0.140356 0.123866) 67106 134112 2
(0.352664 0.0606708 0.262997 0.323668) 67109 133562 2
(0.702982 0.148086 0.130313 0.0186193) 66847 133595 1
(0.102374 0.00996591 0.438554 0.449106) 66851 133046 2
(0.399521 0.30024 0.188308 0.111931) 66265 131879 1
(0.0481549 0.451188 0.48105 0.019607) 65708 131321 2
(0.348539 0.0982034 0.32573 0.227527) 65725 130801 2
(0.0562819 0.471859 0.267252 0.204607) 65424 130200 1
(0.146628 0.426686 0.0521015 0.374584) 65431 130212 1
(0.0821669 0.394636 0.458917 0.0642801) 65423 130198 2
(0.301641 0.0264046 0.349179 0.322775) 65158 129669 2
(0.248923 0.369791 0.0134474 0.367838) 64884 129676 1
(0.411531 0.148061 0.14353 0.296879) 64608 128568 2
(0.0426451 0.360071 0.478677 0.118606) 63468 126295 2
(0.214394 0.38954 0.287181 0.108886) 63477 126310 1
(0.169652 0.059108 0.415846 0.355394) 62918 125751 2
(0.160951 0.417311 0.266812 0.154925) 62928 125771 1
(0.520138 0.237978 0.0934242 0.14846) 62925 125765 1
(0.347704 0.248429 0.074761 0.329105) 62920 125198 2
(0 0 0.958105 0.0418951) 81655 396848 2
(0 3.16708e-30 0.613003 0.386997) 78586 393779 2
(0 4.01699e-155 0.92747 0.07253) 81934 397127 2
(0 0.392158 0.607842 6.8923e-78) 80260 552845 1
(0.0024166 0.413664 0.58392 1.28895e-11) 79702 552287 1
(0.125162 0.0778387 0.359147 0.437852) 82402 164092 2
(0.786193 0.106116 0.00537217 0.102318) 82428 164701 1
(0.238721 0.38064 0.345434 0.0352053) 82441 164171 1
(0.06554 0.161602 0.46723 0.305628) 82154 163600 2
(0.561676 0.219162 0.018209 0.200953) 82476 164243 1
(0.032114 0.482255 0.37085 0.114781) 82459 164763 1
(0.48271 0.178654 0.258645 0.079991) 82458 164207 2
(0.321121 0.339439 0.157486 0.181953) 81602 162498 1
(0.595718 0.2001 0.191849 0.0123324) 82167 163623 1
(0.0380304 0.480985 0.199456 0.281528) 81926 163145 1
(0.0639334 0.400547 0.0600684 0.475451) 82186 163661 2
(0.88561 0.00299197 0.054179 0.0572192) 80756 160806 2
(0.845875 0.0628594 0.0142029 0.0770623) 81626 162544 2
(0.0599191 0.47004 0.307983 0.162058) 79594 158487 1
(0.464471 0.18495 0.0828147 0.267765) 81338 161969 2
(0.698555 0.150723 0.0578495 0.0928732) 81059 161414 1
(0.152006 0.418418 0.329152 0.100424) 80810 161471 1
(0.12346 0.00541269 0.432857 0.43827) 80776 160847 2
(0.115384 0.344968 0.0973401 0.442308) 80813 160921 2
(0.105539 0.038334 0.408392 0.447735) 80780 160854 2
(0.388271 0.30357 0.110135 0.198024) 80795 160884 1
(0.370195 0.312736 0.255719 0.0613509) 79923 159143 1
(0.101874 0.447686 0.12945 0.32099) 80493 160281 1
(0.403975 0.289455 0.0498414 0.256729) 79688 159231 1
(0.029536 0.0936397 0.48625 0.390574) 79377 158610 2
(0.142828 0.342113 0.0864728 0.428586) 79378 158056 2
(0.416514 0.291743 0.182846 0.108897) 78814 156930 1
(0.154852 0.0714148 0.351159 0.422574) 79384 158068 2
(0.163662 0.220522 0.197647 0.418169) 79387 158074 2
(0.620342 0.189675 0.0325597 0.157423) 77644 154593 1
(0.177349 0.411325 0.318107 0.0932185) 78296 155896 1
(0.44299 0.278505 0.00544685 0.273058) 78285 155874 1
(0.033257 0.399876 0.0834952 0.483371) 77986 155277 2
(0.0421813 0.478909 0.185416 0.293493) 77162 153634 1
(0.810792 0.0701977 0.0953839 0.0236262) 76867 153599 2
(0.640655 0.1099 0.179673 0.069773) 76879 153069 2
(0.203071 0.311616 0.401644 0.0836695) 76305 152477 2
(0.458495 0.270361 0.0368579 0.234287) 76308 151926 1
(0.154714 0.420325 0.197813 0.227148) 76027 151922 1
(0.00837926 0.49581 0.0408513 0.454959) 76326 151965 1
(0.0413653 0.47795 0.349394 0.131291) 75470 150810 1
(0.77759 0.109096 0.0801494 0.0331647) 75778 150868 1
(0.309239 0.34538 0.122905 0.222476) 75476 150268 1
(0.104818 0.444579 0.14343 0.307173) 75188 150247 1
(0.150033 0.424983 0.0289888 0.395995) 75485 150286 1
(0.251324 0.257124 0.374338 0.117214) 75181 149679 2
(0.463439 0.13322 0.135061 0.26828) 74904 149124 2
(0.621427 0.189287 0.154332 0.0349551) 74921 149160 1
(0.583725 0.203791 0.209781 0.00270307) 74339 148552 2
(0.431578 0.282931 0.145935 0.139556) 74066 147450 1
(0.0902158 0.436006 0.0188861 0.454892) 73780 146880 2
(0.263989 0.365808 0.168009 0.202194) 73798 147472 1
(0.222266 0.0601673 0.39045 0.327116) 73824 147524 2
(0.283822 0.0766069 0.359366 0.280205) 73813 147502 2
(0.488764 0.141699 0.0997488 0.269788) 73559 146438 2
(0.245851 0.323673 0.383818 0.046659) 73540 146957 2
(0.458688 0.217255 0.0502973 0.27376) 73529 146378 2
(0.230794 0.384341 0.354973 0.0298928) 73229 146336 1
(0.389236 0.305382 0.0886267 0.216755) 73265 145854 1
(0 7.54386e-120 0.453498 0.546502) 89467 404660 2
(0 2.63838e-154 0.0362882 0.963712) 91141 406334 2
(0 0.29066 0.70934 4.92857e-39) 88909 561494 1
(0 2.03992e-128 0.622525 0.377475) 91699 406892 2
(0 4.43942e-154 0.804971 0.195029) 88351 403544 2
(0 9.28818e-155 0.33399 0.66601) 91420 406613 2
(0 1.95631e-154 0.787937 0.212063) 87793 402986 2
(0 1.63981e-40 0.806237 0.193763) 91699 406892 2
(0 0.963309 0.0366907 1.36385e-73) 90025 562610 1
(0 0.0217885 0.978211 1.6686e-154) 89467 562052 1
(0 2.65975e-155 0.43493 0.56507) 84445 399638 2
(0 0.276433 0.723567 7.48915e-148) 82771 555356 1
(0.345958 0.210256 0.327021 0.116765) 92169 183594 2
(0.765014 0.115457 0.000925388 0.118603) 92205 183663 2
(0.787928 0.106036 0.048084 0.0579519) 91634 182526 1
(0.38171 0.050025 0.309145 0.25912) 91926 183109 2
(0.469677 0.265161 0.149349 0.115813) 92222 183698 1
(0.371084 0.00550242 0.308883 0.31453) 92219 183691 2
(0.0148582 0.492571 0.135599 0.356972) 92240 183734 1
(0.642298 0.17712 0.0900193 0.0905627) 92232 183717 1
(0.522085 0.175285 0.238958 0.0636721) 91380 182019 2
(0.274568 0.359897 0.310102 0.055433) 91087 181431 1
(0.113082 0.435578 0.0630453 0.388294) 92254 183761 1
(0.314986 0.342507 0.337294 0.00521309) 91098 181456 1
(0.713564 0.143218 0.0708805 0.0723372) 91690 182638 1
(0.160664 0.286855 0.129945 0.422537) 90812 180882 2
(0.342806 0.328597 0.173232 0.155365) 90811 180881 1
(0.326902 0.336549 0.16992 0.166629) 90818 180897 1
(0.0840343 0.178202 0.457983 0.279781) 89663 178591 2
(0.129995 0.435002 0.134758 0.300244) 91135 181528 1
(0.384806 0.147582 0.160015 0.307597) 90823 180905 2
(0.861524 0.0676094 0.0382935 0.0325732) 90853 181521 1
(0.320648 0.339144 0.267843 0.0723656) 89679 179177 1
(0.622998 0.188501 0.143452 0.0450494) 89689 178643 1
(0.384443 0.297192 0.0642994 0.254065) 90293 180403 1
(0.151882 0.340533 0.0622428 0.445342) 90575 180409 2
(0.0304713 0.484764 0.0669502 0.417814) 89418 178102 1
(0.142763 0.356875 0.0717438 0.428618) 89999 179260 2
(0.240821 0.249797 0.126819 0.382564) 89704 178670 2
(0.455967 0.268567 0.0478328 0.227633) 89714 179247 1
(0.570264 0.0318561 0.214868 0.183012) 89996 179256 2
(0.125663 0.437169 0.188932 0.248236) 89718 178699 1
(0.52119 0.021874 0.217531 0.239405) 89141 177547 2
(0.108884 0.445558 0.241293 0.204265) 89152 177569 1
(0.131451 0.434274 0.0779663 0.356308) 89183 177633 1
(0.18727 0.406365 0.403442 0.00292343) 88594 176457 1
(0.348334 0.13323 0.325833 0.192603) 88009 175289 2
(0.245684 0.370906 0.187562 0.195848) 88895 177055 1
(0.0770872 0.461456 0.234243 0.227214) 88318 175906 1
(0.497214 0.184088 0.0647485 0.25395) 88315 175897 2
(0.819366 0.0577434 0.031611 0.0912792) 88321 175909 2
(0.00122584 0.02687 0.499673 0.472231) 87746 175318 2
(0.493235 0.0390647 0.214017 0.253683) 87449 174168 2
(0.857942 0.0401137 0.0710288 0.0309151) 87775 174822 2
(0.441668 0.0199818 0.258928 0.279422) 87475 174220 2
(0.373688 0.313156 0.185559 0.127597) 87495 174261 1
(0.362317 0.00180215 0.317039 0.318842) 87213 173698 2
(0.463348 0.0747861 0.268326 0.19354) 86912 173099 2
(0.456308 0.269103 0.197791 0.0767972) 87222 174272 1
(0.173608 0.413196 0.245269 0.167927) 86363 172001 1
(0.0189802 0.439014 0.0514958 0.49051) 86378 172031 2
(0.210072 0.14221 0.394964 0.252754) 86385 172047 2
(0.0578774 0.471061 0.305402 0.16566) 86085 171446 1
(0.0802038 0.0579973 0.459898 0.401901) 85498 170276 2
(0.752167 0.0548557 0.124526 0.0684514) 85516 170866 2
(0.120777 0.80363 0.0377964 0.0377964) 85561 170956 1
(0.583438 0.208281 0.0488185 0.159463) 85527 170332 1
(0.83132 0.057856 0.0854526 0.0253713) 85535 170904 2
(0.267845 0.366078 0.228595 0.137483) 85236 169753 1
(0.295293 0.352354 0.0245521 0.327801) 84952 169184 1
(0.519083 0.240459 0.127049 0.113409) 85269 169817 1
(0.0163014 0.152243 0.339606 0.491849) 84945 169170 2
(0.685349 0.15038 0.0392477 0.125024) 84995 169826 1
(0.0383085 0.358839 0.485222 0.117631) 84683 169203 2
(0.384731 0.304007 0.100865 0.210397) 84138 168115 1
(0.0096745 0.490978 0.0641534 0.435194) 83836 167512 1
(0.219715 0.387275 0.0776131 0.315396) 83554 166949 1
(0.151406 0.420684 0.0666412 0.361268) 83559 166959 1
(0.463489 0.268255 0.0699658 0.19829) 83559 166403 1
(0.407911 0.296044 0.0229495 0.273095) 83272 165832 1
(0.513212 0.183653 0.243394 0.0597409) 83300 165888 2
(0.698321 0.0410864 0.109753 0.150839) 83321 165928 2
(0.438672 0.258107 0.283597 0.0196233) 83006 165855 2
(0.296312 0.321169 0.0306748 0.351844) 83007 165301 2
(0.34768 0.250811 0.32616 0.0753491) 82729 164748 2
(0.225008 0.0694556 0.387496 0.31804) 82759 164808 2
(0 0.38701 0.61299 4.53035e-154) 100069 572654 1
(0 0.65589 0.34411 5.49243e-154) 100906 573491 1
(0 6.34354e-155 0.544087 0.455913) 102022 417215 2
(0 0.164464 0.835536 1.03141e-154) 102022 574607 1
(0 0.0662419 0.933758 2.45381e-120) 99232 571817 1
(0 0.742565 0.257435 1.178e-153) 101185 573770 1
(0 2.08223e-154 0.0302799 0.96972) 97000 412193 2
(0 1.1601e-80 0.26876 0.73124) 100906 416099 2
(0 0.701319 0.298681 1.75486e-152) 100069 572654 1
(0 8.45469e-38 0.56093 0.43907) 96721 411914 2
(0 0.82574 0.17426 1.10633e-94) 96721 569306 1
(0 5.7122e-61 0.00729553 0.992704) 100906 416099 2
(0 0.0467467 0.953253 1.66709e-106) 98674 571259 1
(0 0.865084 0.134916 3.04183e-22) 100627 573212 1
(0 0.134015 0.865985 5.00151e-117) 100906 573491 1
(0 0.365991 0.634009 5.19626e-145) 95884 568469 1
(0 0.701639 0.298361 2.26385e-153) 101464 574049 1
(0 4.18661e-155 0.671263 0.328737) 97837 413030 2
(0 4.1635e-154 0.611793 0.388207) 95326 410519 2
(0 2.36981e-112 0.932687 0.0673127) 95326 410519 2
(0 0.4183 0.5817 5.66732e-149) 98674 571259 1
(0 1.222e-135 0.0223364 0.977664) 101464 416657 2
(0 2.69023e-154 0.878126 0.121874) 100627 415820 2
(0 0.770619 0.229381 8.27026e-154) 96442 569027 1
(0 6.88544e-44 0.627825 0.372175) 96163 411356 2
(0 0.624265 0.375735 3.89054e-154) 100069 572654 1
(0 0.166518 0.833482 7.49562e-155) 102022 574607 1
(0 0.700251 0.299749 3.9593e-149) 100627 573212 1
(0 2.23369e-65 0.64727 0.35273) 94210 409403 2
(0 0.0297981 0.970202 3.75062e-154) 100069 572654 1
(0 1.04164e-153 0.69753 0.30247) 97558 412751 2
(0 0.552999 0.447001 8.74575e-155) 100348 572933 1
(0 0.992925 0.00707502 1.44191e-133) 93373 565958 1
(0 8.38496e-154 0.998502 0.00149834) 92815 408008 2
(0 0.817168 0.182832 1.35085e-154) 92815 565400 1
(0.490007 0.191278 0.25606 0.0626544) 101653 203082 2
(0.0570943 0.468769 0.343477 0.130659) 101680 202579 1
(0.0134803 0.232397 0.49326 0.260863) 101692 202606 2
(0.717424 0.14108 0.0370179 0.104478) 100260 199744 1
(0.389345 0.303514 0.170487 0.136654) 101697 202613 1
(0.382428 0.0758147 0.309971 0.231787) 101990 203755 2
(0.97351 0.00608937 0.0132448 0.00715539) 99693 198615 2
(0.194866 0.266651 0.402567 0.135916) 100848 200921 2
(0.161651 0.303278 0.11245 0.422621) 101420 202060 2
(0.808105 0.0611184 0.0966117 0.0341646) 101697 203170 2
(0.142973 0.426744 0.154647 0.275635) 100550 200880 1
(0.104471 0.218743 0.227959 0.448827) 99966 199157 2
(0.585942 0.057047 0.207029 0.149982) 101146 201516 2
(0.403867 0.298066 0.274224 0.0238428) 101716 202652 1
(0.521797 0.155583 0.0809249 0.241694) 101713 202645 2
(0.085418 0.431527 0.0216146 0.46144) 100575 200373 2
(0.350493 0.324753 0.102581 0.222172) 100287 199801 1
(0.755739 0.10876 0.12213 0.0133699) 99711 198651 2
(0.235207 0.0242324 0.382396 0.358164) 100578 200382 2
(0.116923 0.36253 0.0727576 0.447789) 100877 200976 2
(0.178808 0.407962 0.134022 0.279209) 99738 199259 1
(0.358484 0.11889 0.323887 0.198739) 100887 201553 2
(0.502939 0.24834 0.196535 0.0521858) 97980 195749 1
(0.841887 0.0187652 0.0792911 0.0600567) 100308 200397 2
(0.546935 0.137382 0.0879456 0.227738) 99454 198135 2
(0 4.49027e-154 0.897315 0.102685) 98953 414146 2
(0.673146 0.161294 0.0162388 0.149321) 99756 199295 1
(0.112639 0.0167754 0.443951 0.426634) 99759 199301 2
(0.311552 0.0853629 0.258861 0.344224) 99466 198160 2
(0.580028 0.124791 0.209986 0.0851953) 100062 199352 2
(0.403954 0.0142081 0.283371 0.298467) 99495 198217 2
(0.422102 0.0356537 0.288949 0.253295) 96860 192959 2
(0.164468 0.417766 0.205382 0.212384) 97762 194758 1
(0.353761 0.113167 0.323119 0.209952) 99225 197681 2
(0.561851 0.2171 0.213291 0.00775797) 98342 195915 1
(0.513716 0.242604 0.198471 0.0452094) 98354 196496 1
(0.0811967 0.456499 0.411545 0.0507589) 97767 194767 1
(0.0288516 0.125821 0.485574 0.359753) 98062 195359 2
(0.153371 0.26258 0.156207 0.427842) 98366 195963 2
(0.353101 0.323449 0.190948 0.132502) 97514 194263 1
(0.669812 0.129725 0.0321255 0.168337) 98375 195981 2
(0.358797 0.320602 0.0284774 0.292124) 97800 194834 1
(0.152416 0.418768 0.0469713 0.381845) 97800 195390 1
(0.344653 0.327673 0.219574 0.108099) 98100 195433 1
(0.240864 0.21958 0.379568 0.159989) 98104 195443 2
(0.161728 0.193705 0.21736 0.427207) 97825 194883 2
(0.521762 0.237861 0.145912 0.0944649) 96664 192565 1
(0.0338464 0.344834 0.135369 0.48595) 96661 192559 2
(0.0361033 0.481948 0.103085 0.378863) 96688 192614 1
(0.205451 0.342189 0.0550849 0.397274) 96980 193197 2
(0.330694 0.334653 0.254617 0.0800363) 96407 192055 1
(0.278718 0.231853 0.362711 0.126717) 96107 192010 2
(0.433735 0.282879 0.266664 0.0167217) 96131 192058 1
(0.401434 0.160332 0.137736 0.300498) 95818 190876 2
(0.0907787 0.454611 0.117754 0.336856) 96157 191554 1
(0.722433 0.00753476 0.138843 0.131189) 95542 190882 2
(0.154216 0.33529 0.42934 0.0811539) 95579 190956 2
(0.245358 0.377321 0.225131 0.152191) 95577 190396 1
(0.20145 0.249224 0.146683 0.402643) 95568 190377 2
(0.205797 0.198335 0.197027 0.398841) 95269 189780 2
(0.756471 0.0431078 0.122535 0.0778872) 95298 190395 2
(0.058234 0.470883 0.169798 0.301085) 95315 189873 1
(0.282386 0.324846 0.358807 0.0339614) 94990 189226 2
(0.225663 0.385728 0.20139 0.187219) 94704 189209 1
(0.312927 0.343537 0.27976 0.0637767) 94999 189242 1
(0.492763 0.250228 0.0128575 0.244152) 95012 189824 1
(0.567071 0.215666 0.0894529 0.12781) 94713 188670 1
(0.425704 0.286073 0.186767 0.101455) 94403 188051 1
(0.359945 0.320027 0.170257 0.149771) 94122 187491 1
(0.0247754 0.487612 0.181953 0.30566) 94174 187595 1
(0.301641 0.349179 0.271357 0.077822) 94173 187593 1
(0.172049 0.241634 0.168788 0.417529) 94176 187598 2
(0.467502 0.252892 0.139803 0.139803) 94210 187666 1
(0.310293 0.00994161 0.334912 0.344854) 93587 186423 2
(0.125871 0.437065 0.270177 0.166887) 93644 186539 1
(0.560188 0.219537 0.0273034 0.192972) 93616 186480 1
(0.0603839 0.265282 0.201578 0.472756) 93328 185905 2
(0.107459 0.436104 0.00589054 0.450546) 93322 185893 2
(0.373411 0.312803 0.293144 0.0206424) 92516 184841 1
(0 1.45167e-104 0.355834 0.644166) 107044 422237 2
(0 4.29979e-153 0.347198 0.652802) 106207 421400 2
(0 2.35478e-148 0.524426 0.475574) 108718 423911 2
(0 0.741282 0.258718 4.04139e-63) 106765 579350 1
(0 0.0883479 0.911652 1.45979e-79) 111229 583814 1
(0 0.833682 0.166318 3.14557e-30) 111508 584093 1
(0 4.53487e-28 0.875345 0.124655) 110392 425585 2
(0 0.179982 0.820018 2.61049e-155) 105091 577676 1
(0 0.0145192 0.985481 5.39539e-109) 107044 579629 1
(0 2.22875e-153 0.036545 0.963455) 111508 426701 2
(0 0.804163 0.195837 3.50097e-154) 105091 577676 1
(0 0.0253727 0.974627 9.37724e-29) 110392 582977 1
(0 6.86589e-46 0.109283 0.890717) 111787 426980 2
(0 1.59002e-55 0.864009 0.135991) 107881 423074 2
(0 2.74779e-74 0.331216 0.668784) 108439 423632 2
(0 4.35082e-154 0.4165 0.5835) 111787 426980 2
(0 0.491139 0.508861 3.22351e-127) 107044 579629 1
(0 0.208859 0.791141 2.09046e-153) 108718 581303 1
(0 0.803684 0.196316 7.51867e-104) 108160 580745 1
(0 0.977559 0.0224408 6.08649e-154) 104533 577118 1
(0 1.3965e-63 0.228071 0.771929) 106486 421679 2
(0 0.251696 0.748304 3.3665e-23) 104254 576839 1
(0 6.41776e-156 0.0270114 0.972989) 109555 424748 2
(0 0.00789882 0.992101 7.1195e-113) 110113 582698 1
(0 0.964689 0.0353111 1.83831e-153) 110671 583256 1
(0 0.143112 0.856888 3.66019e-67) 106765 579350 1
(0 5.06212e-96 0.0627993 0.937201) 111787 426980 2
(0 0.245952 0.754048 1.22112e-114) 110392 582977 1
(0 3.03097e-85 0.0102457 0.989754) 105928 421121 2
(0 0.244462 0.755538 9.46172e-150) 103975 576560 1
(0 2.05523e-153 0.813911 0.186089) 111787 426980 2
(0 8.88747e-146 0.79284 0.20716) 110113 425306 2
(0 4.52143e-22 0.0862387 0.913761) 110950 426143 2
(0 0.140349 0.859651 4.44216e-113) 107323 579908 1
(0 0.756749 0.243251 3.99254e-120) 103975 576560 1
(0 2.46746e-154 0.17952 0.82048) 103975 419168 2
(0 0.719069 0.280931 6.14427e-55) 111229 583814 1
(0 1.09997e-154 0.75947 0.24053) 106486 421679 2
(0 0.575838 0.424162 6.67159e-154) 105928 578513 1
(0 0.0542446 0.945755 2.08347e-153) 111787 584372 1
(0 0.869347 0.130653 8.78213e-154) 105091 577676 1
(0 0.996608 0.00339195 1.95713e-154) 105649 578234 1
(0 0.433092 0.566908 3.43371e-153) 104533 577118 1
(0 0.233457 0.766543 1.12211e-31) 111508 584093 1
(0 2.58668e-153 0.0831719 0.916828) 111787 426980 2
(0 0.685424 0.314576 5.19462e-155) 107602 580187 1