/*--------------------------------*- C++ -*----------------------------------*\
  =========                 |
  \\      /  F ield         | OpenFOAM: The Open Source CFD Toolbox
   \\    /   O peration     | Website:  https://openfoam.org
    \\  /    A nd           | Version:  7
     \\/     M anipulation  |
\*---------------------------------------------------------------------------*/
FoamFile
{
    version     2.0;
    format      ascii;
    class       scalarField;
    location    "0.7/lagrangian/reactingCloud1";
    object      pressure;
}
// * * * * * * * * * * * * * * * * * * * * * * * * * * * * * * * * * * * * * //


2429
(
593.721
592.078
591.999
590.664
587.547
588.478
585.061
587.717
586.483
587.916
585.887
580.96
585.206
585.469
584.892
581.976
585.158
582.292
583.47
580.881
584.291
582.556
582.379
583.351
582.072
582.19
582.178
582.539
582.414
582.753
582.771
583.335
582.92
583.251
583.049
583
583.214
583.124
583.011
583.046
583.059
583.022
583.08
599.732
595.416
591.349
600.579
601.118
596.973
603.791
592.286
593.557
588.231
591.059
600.679
599.043
599.924
601.472
595.203
600.597
591.659
595.27
599.134
600.041
601.691
604.513
600.732
603.706
602.468
598.113
599.223
599.846
597.981
599.515
599.51
603.066
599.056
600.3
603.301
601.553
602.752
600.309
602.808
599.671
602.808
602.278
600.789
602.1
599.318
600.972
599.145
601.772
599.647
599.845
601.078
600.883
598.344
599.049
597.293
601.509
600.4
597.221
597.269
595.15
596.43
596.967
593.565
594.239
593.544
457.02
467.227
492.94
504.401
506.738
513.316
510.589
521.104
548.024
543.232
550.9
551.819
565.658
570.932
566.104
573.661
573.103
583.293
574.921
579.061
585.365
370.549
372.598
224.353
356.98
392.108
389.565
408.752
402.269
402.269
416.453
416.958
436.227
452.905
335.844
335.968
335.819
336.116
333.448
321.836
330.114
341.798
341.124
343.156
342.862
349.454
338.657
355.777
355.697
359.186
331.649
331.738
332.055
266.903
268.213
332.493
329.906
332.753
277.4
332.709
241.122
332.542
333.507
333.571
333.779
184.454
310.723
334.582
328.907
328.428
328.465
328.55
328.677
198.749
328.824
276.928
328.987
328.966
254.553
329.044
228.489
329.238
329.317
329.507
218.335
329.543
312.316
329.883
284.199
330.36
330.553
277.961
232.067
331.121
329.666
331.31
219.695
327.725
178.903
152.411
134.532
297.594
283.304
327.193
327.033
260.886
326.71
235.202
327.356
105.311
325.929
327.384
324.085
1.4948
288.561
260.144
327.469
148.846
327.498
268.029
327.63
182.474
215.182
324.677
326.867
327.666
327.665
310.935
318.907
327.819
276.129
324.919
265.029
327.72
327.937
328.002
250.564
325.407
324.318
328.295
328.173
326.835
326.706
326.802
326.7
326.745
326.762
5.13727
105.382
191.166
138.536
326.651
310.426
305.095
180.065
226.027
326.698
325.129
119.504
324.036
0.922982
286.027
287.632
326.727
260.806
326.729
289.233
326.521
148.649
233.218
326.757
238.143
245.643
202.768
290.179
309.588
0.902861
326.811
326.759
275.635
326.37
257.701
324.732
227.64
252.252
237.022
326.651
247.832
326.922
297.034
223.683
326.07
164.763
182.257
317.745
123.21
175.678
114.695
273.155
327.035
326.813
327.056
327.036
325.53
177.602
327.069
326.579
326.556
326.585
326.548
326.593
326.553
326.6
326.548
326.572
326.579
326.648
326.681
17.0364
159.214
92.5432
159.984
247.982
232.013
324.031
301.001
224.725
151.693
326.524
209.738
326.403
173.503
168.218
205.372
21.6666
326.518
232.36
326.456
84.5458
138.769
326.403
326.499
182.753
307.192
220.276
276.677
291.921
298.72
194.556
256.57
326.571
259.259
108.292
326.327
278.238
260.627
295.38
198.965
97.5163
325.971
246.848
325.815
324.627
219.426
326.511
276.773
325.906
326.551
284.427
110.35
218.767
326.631
287.566
322.347
213.644
183.675
326.593
140.941
326.633
247.66
321.526
186.911
168.506
200.666
200.666
149.879
321.355
326.667
235.909
242.639
250.789
326.67
325.85
325.594
325.083
325.083
326.038
325.489
326.331
325.594
325.85
326.355
326.355
325.594
326.134
325.689
325.594
326.41
325.371
326.247
326.441
326.441
326.134
325.371
325.689
326.375
326.394
325.85
325.083
325.689
326.487
325.85
326.278
325.773
326.512
326.526
326.526
26.2373
84.7915
130.628
27.2305
152.48
215.849
16.9208
104.506
162.838
152.48
46.4669
12.8055
187.495
241.357
227.053
130.382
94.1324
41.6543
143.761
236.554
133.443
284.502
2.17033
187.019
112.277
326.089
218.522
232.951
167.233
324.23
305.586
1.62383
49.7197
324.859
133.927
191.534
64.6746
130.218
249.793
180.649
293.586
213.481
213.481
311.935
321.846
322.313
120.545
106.42
238.207
300.772
229.574
127.121
245.773
81.3196
326.137
95.1033
278.81
268.656
223.286
124.771
270.046
325.337
125.602
92.0702
170.707
235.724
136.492
22.8837
19.6345
234.251
229.144
244.518
326.487
89.2862
326.29
236.633
191.621
161.096
318.971
287.766
303.536
248.433
293.503
191.954
186.495
209.426
316.597
287.766
186.495
316.597
209.426
181.221
268.703
255.222
181.221
287.766
248.433
261.995
320.059
298.785
321.271
228.394
215.597
203.424
293.503
181.221
209.426
307.696
322.226
181.221
215.597
197.598
281.664
322.226
322.226
191.954
298.785
307.696
181.221
316.597
311.245
320.059
186.495
181.221
275.284
323.582
197.598
318.525
181.221
318.525
298.785
203.424
241.677
191.954
298.785
307.696
186.495
255.222
268.703
215.597
324.036
324.387
303.536
255.222
320.059
314.194
203.424
314.194
234.987
324.387
221.924
324.666
261.995
322.226
203.424
234.987
255.222
324.666
191.954
25.8586
19.3469
25.3404
68.4786
21.2981
52.3807
43.3153
2.90946
130.192
324.894
142.135
123.676
63.4218
168.335
105.156
112.807
112.807
83.8865
139.52
318.525
170.309
107.138
191.954
170.283
90.0126
104.256
190.063
184.756
124.779
114.489
164.749
202.079
28.8147
73.0892
87.9507
51.0104
169.95
119.059
100.647
126.951
74.2193
27.341
115.394
128.743
115.394
177.141
183.613
206.09
129.493
91.701
103.794
173.651
130.068
140.369
0.809796
83.9417
124.151
34.4377
68.1091
138.717
229.72
127.535
127.535
253.115
204.594
229.72
77.2888
77.2888
246.558
324.894
105.864
22.0516
178.515
170.665
82.4966
15.9917
111.781
64.5793
66.6322
99.179
127.401
215.759
9.34889
78.0945
39.0607
184.13
127.401
192.466
112.351
192.466
191.187
116.884
116.884
208.437
47.4522
159.167
307.752
274.673
256.091
94.5622
270.046
74.988
18.1573
27.8656
92.2893
101.733
174.661
233.371
147.449
139.39
202.24
121.677
277.315
175.219
134.955
177.662
147.283
186.664
37.8809
242.442
264.173
200.525
129.923
129.923
261.927
323.426
127.173
216.719
141.035
245.152
209.296
97.8012
116.426
106.428
90.3186
111.24
104.152
97.8012
85.3444
93.9294
82.2945
113.784
119.17
128.065
99.8426
85.3444
124.985
104.152
106.428
128.065
119.17
138.061
99.8426
119.17
104.152
80.8427
116.426
95.8312
108.789
111.24
119.17
99.8426
90.3186
80.8427
90.296
108.789
92.0928
86.947
131.268
85.3444
122.021
119.17
85.3444
86.947
141.663
141.663
113.784
108.789
108.789
79.437
90.3186
97.8012
90.3186
145.409
145.409
83.7944
134.598
106.428
145.409
88.6042
86.947
99.8426
88.6042
145.409
134.598
106.428
122.021
101.958
149.305
106.428
80.8427
122.021
131.268
131.268
111.24
124.985
99.8426
111.24
122.021
101.958
106.428
111.24
80.8427
85.3444
141.663
92.0928
90.3186
119.17
83.7944
113.784
128.065
104.152
153.357
88.6042
79.437
153.357
106.428
131.268
101.958
106.428
88.6042
116.426
111.24
86.947
83.7944
131.268
108.789
80.8427
88.6042
80.8427
138.061
134.598
99.8426
97.8012
122.021
82.2945
111.24
86.947
128.065
157.57
85.3444
83.7944
99.8426
88.6042
80.8427
111.24
93.9294
141.663
106.428
161.949
134.598
124.985
79.437
124.985
80.8427
106.428
161.949
92.0928
141.663
161.949
79.437
82.2945
79.437
90.3186
166.5
113.743
90.3186
95.8312
93.9294
124.985
145.409
134.598
101.958
138.061
141.663
119.17
166.5
108.789
116.426
111.24
149.305
124.985
90.3186
116.426
86.947
101.958
104.152
111.24
171.226
113.784
171.226
101.958
99.8426
134.598
113.784
106.428
97.8012
116.426
90.3186
88.6042
92.0928
104.152
119.17
86.947
111.24
111.24
88.6042
141.663
157.57
153.357
90.3186
99.8426
124.985
122.021
122.021
83.7944
6.43561
145.409
83.7944
18.8878
27.3426
19.3467
34.0191
31.5539
29.04
55.2358
71.0408
71.0408
14.8372
97.8012
67.7996
75.6376
34.7411
29.4924
78.5308
69.9899
63.4293
76.1153
31.0498
58.2491
10.5159
74.4274
66.961
77.3623
76.8799
54.1802
70.2749
83.733
81.8677
76.4966
79.0408
72.4861
78.0606
113.784
171.226
51.3477
70.8637
85.7131
72.2827
0.844791
76.8696
72.5541
171.226
83.9801
87.1644
176.132
62.5489
88.7615
66.56
61.7519
70.5831
78.0292
73.2441
5.36584
63.8263
89.8745
58.8085
98.3559
83.5046
43.5642
56.7918
128.065
66.9249
54.7468
95.6646
79.9401
65.7733
78.9924
87.3769
79.1049
30.8528
89.2755
98.4512
102.734
145.409
108.865
94.1161
94.7841
64.3035
72.6252
99.6032
74.5201
116.136
76.7424
86.5559
101.48
119.124
68.0047
85.7862
112.687
119.17
83.511
82.3
76.496
98.7241
103.22
32.0864
89.4779
95.6058
31.2646
100.445
119.811
75.8173
120.519
112.938
85.5414
120.771
125.542
123.446
120.04
130.748
132.051
63.2922
90.553
46.519
87.4369
131.394
81.8002
121.185
96.0363
125.128
129.327
94.2389
127.758
153.717
102.046
139.499
34.7936
108.743
41.7408
142.767
141.219
98.0151
33.8281
74.0011
108.642
170.827
140.752
175.998
21.2491
156.549
100.577
100.577
110.035
104.31
51.76
63.6839
54.3288
65.5573
51.1484
60.2345
51.1484
61.9122
49.3751
54.3288
54.3288
49.3751
60.2345
65.5573
60.2345
55.6982
51.76
63.6839
55.0057
53.0183
66.5346
65.5573
64.6074
56.4073
51.1484
65.5573
67.5403
62.7858
67.5403
66.5346
69.6417
66.5346
67.5403
68.5756
55.6982
49.9566
53.0183
64.6074
63.6839
67.5403
49.9566
50.5475
57.1341
69.6417
52.3831
59.4287
70.7396
55.6982
68.5756
52.3831
63.6839
71.871
57.1341
52.3831
71.871
50.5475
71.871
67.5403
64.6074
55.6982
68.5756
53.6666
71.871
57.1341
61.062
57.1341
51.1484
60.2345
61.062
59.4287
58.6438
53.6666
64.6074
69.6417
62.7858
54.3288
49.3751
73.0368
73.0368
61.062
66.5346
68.5756
51.76
56.4073
62.7858
58.6438
51.1484
51.76
58.6438
57.8793
66.5346
54.3288
55.6982
68.5756
58.6438
55.6982
51.76
55.0057
63.6839
60.2345
67.5403
62.7858
61.9122
59.4287
74.2387
74.2387
53.0183
51.1484
54.3288
49.3751
70.7396
61.9122
59.4287
75.4781
48.4966
64.6074
53.6666
75.4781
68.5756
48.8024
51.1484
62.7858
49.3751
49.3751
58.6438
74.2387
62.7858
62.7858
74.2387
75.4781
49.9566
67.5403
51.76
65.5573
62.7858
64.6074
76.7565
61.062
61.062
57.8793
76.7565
63.6839
66.5346
50.5475
63.6839
57.1341
76.7565
64.6074
67.5403
63.6839
62.7858
76.7565
76.7565
68.5756
52.3831
68.5756
76.7565
50.5475
50.5475
76.7565
58.6438
52.3831
53.6666
78.0756
78.0756
78.0756
55.0057
67.5403
78.0756
49.9566
61.9122
75.4781
70.7396
56.4073
53.6666
65.5573
55.0057
8.92221
32.5488
4.5102
16.3228
33.5709
47.1474
12.0043
47.2762
38.4621
48.7694
61.062
34.8378
48.1728
46.7785
37.138
24.7641
31.2135
45.2166
41.0913
25.1823
61.062
40.2991
54.3288
49.2055
40.5385
11.9414
45.6006
51.3303
40.3264
53.6666
48.3996
43.091
48.2872
8.28675
42.7216
31.5905
37.7552
52.2951
54.3288
13.0511
46.2727
53.6248
58.6438
43.1593
50.7673
54.2857
61.9122
69.6417
47.4241
53.7257
40.9532
27.1026
49.8133
78.0756
76.7565
37.9201
24.5679
34.0094
45.3494
14.6612
53.6054
54.898
55.2519
52.0359
51.4459
56.8164
49.7382
36.3774
56.553
58.4721
21.4229
51.2721
58.3248
50.0733
47.5157
56.7565
60.3002
25.6301
45.5333
54.7642
48.0056
40.0506
57.3143
50.0226
36.9235
63.6839
52.5513
61.8566
58.4349
45.8769
41.4281
58.4349
58.105
32.1263
64.101
63.0943
78.0756
32.6271
65.4888
65.3832
62.7681
52.397
17.8244
59.5526
43.0013
58.1577
69.2625
69.5621
64.6579
67.0064
78.0756
70.7396
54.6238
39.6219
67.3465
42.5748
70.3482
71.8582
66.8736
68.6773
48.0007
17.927
50.0876
47.4795
69.3271
70.9972
31.8391
40.5288
62.4928
16.2601
67.0212
74.1455
70.0192
37.1691
75.4781
58.0793
75.4781
49.7287
74.7191
73.7249
22.9016
77.5726
39.0086
36.6287
39.4938
39.9815
38.5262
33.9218
31.8825
40.9637
43.9707
31.8825
42.9561
39.9815
39.0086
32.2704
40.4714
40.4714
33.4947
37.5705
32.6685
40.9637
38.0467
39.0086
44.4843
40.4714
31.8825
38.5262
42.454
39.4938
42.9561
33.9218
41.9547
36.1639
36.1639
39.4938
31.8825
37.0977
33.4947
45.526
40.4714
39.9815
45.526
33.0768
40.4714
37.5705
33.4947
38.0467
33.0768
41.458
34.357
39.9815
40.4714
43.4615
41.9547
33.9218
42.454
35.2465
32.6685
32.6685
32.2704
33.9218
40.4714
36.6287
32.6685
35.2488
31.8825
32.2704
39.9815
35.2488
43.4615
39.0086
33.4947
43.9707
42.454
36.1639
36.6287
32.2704
45.526
44.4843
44.4843
43.4615
46.0553
37.5705
38.5262
35.7038
46.0553
46.0553
35.7038
36.1639
44.4843
42.9561
34.357
35.2488
39.9815
46.5907
43.9707
32.2704
43.9707
42.9561
39.9815
35.2488
44.4843
35.2488
34.7996
41.458
37.5705
46.0553
45.526
39.0086
33.9218
39.4938
39.0086
43.4615
46.5907
32.6685
33.4947
39.9815
34.357
46.5907
36.1639
36.1639
33.4927
36.6287
32.2704
34.357
41.9547
44.4843
36.1639
40.9637
38.0467
40.4714
33.9218
41.9547
33.9218
36.6287
31.8825
32.6685
32.2704
33.0768
38.5262
33.0768
37.0977
31.8825
40.9637
42.454
38.5262
41.458
37.0977
46.5907
35.7038
45.0025
45.526
34.7996
43.9707
37.5705
36.1639
47.6817
38.5262
37.5705
42.454
47.6817
34.357
41.458
36.6287
39.9815
40.9637
44.4843
37.0977
47.6817
41.9547
44.4843
36.1639
34.357
42.9561
47.6817
47.6817
47.1327
32.6562
47.6817
37.5705
38.0467
36.6287
37.0977
36.6287
48.2381
42.9561
35.2488
48.2381
35.7038
48.2381
17.9167
19.8528
14.3686
13.7729
16.4965
0.630477
22.631
8.25998
12.1136
14.1256
31.7934
25.2809
33.0768
26.3719
30.1561
30.7932
31.863
17.1139
32.1825
18.7225
25.2679
32.0556
28.1989
19.0614
21.6996
13.466
19.9853
17.3895
31.6114
27.3534
31.0709
31.6606
21.4028
29.3152
18.7707
27.5908
32.268
34.7996
48.2381
33.0768
46.5907
31.7347
26.7797
28.349
29.2344
33.0639
28.2475
29.3532
38.0467
25.1213
2.3002
33.2577
20.4517
26.0054
48.2381
30.5857
33.4947
30.3607
39.9815
23.138
48.2381
33.8988
12.6677
14.1936
24.076
32.6326
32.7177
0.630485
14.3559
18.9816
33.3279
32.5545
33.2587
18.3314
33.1948
27.7243
22.5558
32.5166
31.9552
34.7627
30.976
29.0399
6.51947
35.1952
34.5479
33.523
34.8121
30.453
34.0804
31.4998
21.5463
27.811
32.297
32.6629
34.4211
35.6485
28.0513
0.912962
17.4665
13.425
34.3409
8.83122
35.748
31.688
34.207
31.9687
36.3338
35.5073
47.6817
36.3059
35.606
37.5678
18.5385
36.9471
29.0128
26.482
36.5376
21.7604
31.7267
36.0679
37.2061
35.2266
8.82296
35.1746
37.7314
38.3517
41.9547
23.191
37.6182
31.2984
38.9403
39.4606
25.0694
26.6409
24.4791
38.2455
39.0057
13.6932
36.7406
35.5236
36.0479
20.3026
18.5493
35.1635
2.3136
29.6045
23.82
32.1337
32.7937
39.7984
36.1759
1.54821
37.4084
4.07617
25.6121
39.045
38.9176
37.4084
3.42857
38.0458
40.7131
42.454
34.8396
0.630506
40.7588
41.9279
41.3654
11.6617
24.8667
31.1124
37.4477
39.4638
43.4367
37.2386
43.4615
17.7991
21.001
41.3423
31.0774
43.7311
41.75
38.7144
44.4843
27.9693
22.1503
42.4732
43.8772
41.9252
43.8772
31.2766
41.0204
41.6362
23.8135
40.5856
39.6445
48.2381
4.09545
38.4034
29.7087
38.8253
42.1989
44.5398
22.4964
46.0414
41.0131
30.3657
42.4677
11.0381
45.0408
45.6116
43.5742
38.7388
35.3189
24.0929
42.0089
43.0279
47.6292
17.4553
44.4945
46.6808
43.8535
46.0823
21.2479
28.4044
22.8778
21.2479
21.8836
24.2594
21.2479
29.4042
30.4246
26.0127
21.563
26.7076
29.74
28.0696
29.74
28.4044
26.0127
19.6257
24.9605
29.0707
22.5409
19.6257
23.2191
21.2479
27.0518
26.0127
21.2479
25.3119
25.3119
28.0696
25.3119
22.2093
28.0696
23.2191
29.74
20.6287
28.4044
28.4044
29.4042
28.7378
29.4042
21.8836
21.2479
24.9605
28.0696
19.9834
25.6629
28.0696
23.9106
28.7378
20.9374
30.7763
19.9834
20.3143
24.2594
29.74
27.7327
23.9106
20.9374
28.0696
21.563
21.2479
21.563
30.4246
19.6257
30.0796
25.3119
26.3612
20.9374
23.5637
20.3143
22.8778
30.4246
19.6257
26.0127
22.2093
30.4246
25.6629
28.4044
28.0696
24.6095
23.9106
20.9374
28.0696
28.7378
24.2594
27.3935
24.6095
19.9834
29.0707
28.7378
30.7763
20.3143
30.4246
27.7327
22.2093
28.7378
30.7763
28.7378
22.5409
20.6287
21.2479
28.4044
24.2594
23.2191
30.4246
22.8778
21.2479
20.3143
30.4246
25.3119
23.9106
19.6257
22.8778
28.4044
29.74
20.6287
30.0796
30.7763
31.1361
26.7076
30.7763
23.2191
19.6257
21.563
23.9106
27.7327
29.4042
24.2594
28.4044
27.7327
25.3119
25.3119
29.74
20.6287
23.5637
24.6095
25.3119
21.8836
21.2479
23.5637
22.5409
22.5409
23.5637
22.2093
31.1361
26.0127
30.0796
27.3935
26.3612
24.6095
20.3143
28.4044
29.74
23.9106
29.0707
27.3935
25.6629
29.4042
27.7327
31.1361
23.9106
25.6629
29.4042
29.74
31.1361
24.6095
27.3935
26.7076
26.3612
25.3119
24.9605
23.9106
28.0696
27.3935
30.4246
31.1361
26.3612
20.9374
30.7763
22.5409
27.7327
23.5637
25.6629
25.3119
20.9374
25.6629
24.9605
22.2093
27.3935
27.0518
25.6629
24.9605
24.9605
28.0696
20.6287
30.7763
22.2093
30.0796
19.6257
28.7378
21.8836
19.6257
27.7327
21.563
22.8778
0.630453
5.05053
29.0707
23.9106
13.3861
0.819176
0.630453
29.0707
4.90055
10.1528
5.37588
9.7014
13.7737
8.35877
21.2479
14.1866
0.630574
17.8377
16.6058
19.6252
19.6042
15.2784
15.6244
11.4421
9.23981
13.1294
5.94874
11.2443
14.9923
18.9627
19.1868
7.15546
20.3143
18.3522
15.2199
19.512
25.6629
12.7679
19.9494
16.8613
5.22897
15.9824
15.0567
18.9573
19.1841
19.089
20.6287
18.6321
20.3143
20.308
19.608
18.0503
17.3723
15.1209
16.8207
15.2753
0.632132
2.12654
19.4556
8.82138
17.3723
20.6222
24.9605
19.7733
28.0696
19.9797
23.9106
20.3619
14.6521
11.4583
19.5334
20.5991
20.4764
18.7075
13.618
14.4302
31.5046
16.079
14.7736
18.2951
9.74324
20.3296
19.6395
14.8455
19.5708
20.9368
16.7209
17.4519
16.9635
19.4886
20.4341
19.6431
17.281
0.632411
20.539
9.37237
0.630452
20.8068
14.5546
22.2093
17.8912
13.0779
18.914
11.2709
12.7782
15.2608
18.6893
21.1836
17.9758
15.9083
24.9605
20.4697
20.9427
31.1361
19.8336
20.6172
18.8025
15.43
21.4096
19.2378
15.9083
21.1068
13.6629
29.4042
30.4246
21.1471
18.6748
19.9955
21.3844
26.7076
17.3892
21.6569
22.1811
22.1811
21.5436
28.0696
15.6277
18.247
4.60293
7.82373
22.2016
16.8542
17.4966
21.2701
31.1361
17.4264
22.1811
22.061
20.8241
22.1399
31.1361
22.1887
21.8508
22.2972
18.9799
20.2148
20.7748
20.1939
22.5239
26.7076
30.0796
29.74
21.9754
21.2986
22.3516
23.2191
21.6791
0.630456
21.6634
25.6629
15.5876
4.31333
21.9473
21.6791
22.8313
21.7843
21.9473
28.7378
22.6252
19.062
22.704
17.5668
22.8313
21.962
23.2191
11.6871
4.12728
23.0853
20.9413
22.6122
0.630476
21.6342
22.4787
23.4087
4.32641
20.5877
9.86822
27.0518
22.6436
23.5447
16.9967
23.4404
19.2471
23.5547
17.4461
22.7229
20.5875
23.0892
25.3119
23.8768
19.3447
22.0514
23.9051
22.9674
20.9651
20.2111
21.4724
23.8119
30.7763
23.3256
29.4042
11.2024
23.7828
13.8742
23.6865
6.13842
24.2322
31.1361
22.8639
21.5452
18.7156
20.9381
24.2572
24.2572
12.8809
21.1455
5.21145
24.6036
22.1304
23.4561
15.3557
21.708
10.7929
13.3596
12.0988
24.9031
23.8607
30.4246
24.7198
10.1798
13.6849
23.5442
23.9267
23.8745
2.38245
24.3126
24.078
25.1822
17.4783
18.2274
14.367
15.0452
0.630458
22.3879
24.8454
9.44894
20.9411
20.1912
26.3612
30.7763
25.4919
25.6629
12.9653
25.4801
22.7164
25.6462
22.0422
25.2429
18.132
25.5287
18.8902
21.4029
22.7164
24.764
7.94662
25.6674
24.0024
2.06447
22.5927
11.5431
25.8555
25.8152
25.8152
28.7378
12.6348
19.7156
25.8555
24.5384
26.2443
24.006
26.3963
25.8101
19.6709
26.2105
5.03065
31.5046
20.2633
12.2672
15.3812
23.7191
0.630456
13.4954
31.5046
19.8158
16.2112
26.8569
25.8245
25.6598
23.0947
19.9178
25.0126
3.00029
17.922
20.9188
20.7215
27.0905
11.2613
24.9016
22.5446
15.4638
23.0287
28.7378
30.0796
26.5387
23.7081
12.4302
26.2527
27.4201
27.0016
26.4276
26.7819
10.5369
20.9369
25.8079
17.7531
0.630459
23.7053
15.0811
27.8792
24.1121
22.4536
29.4042
28.0403
11.5796
21.1929
28.1018
18.2889
27.357
27.863
25.3544
27.3089
20.7901
10.2593
27.6031
19.1883
12.7515
28.5101
29.0617
28.7489
25.9261
29.0155
27.7231
28.9508
29.1337
28.8526
28.8107
22.4062
17.9505
29.26
28.1988
17.1413
15.721
29.3638
29.4028
28.7301
28.9406
26.5893
21.6336
13.8159
28.0384
29.7239
28.1078
29.4901
12.4593
24.3936
22.1177
26.4563
29.1495
25.2338
25.2338
29.6766
28.5412
29.103
29.773
16.6957
29.2295
29.9862
23.7889
24.4235
15.8887
29.9523
27.1345
30.7388
30.6955
24.881
11.0017
29.2064
28.077
23.1398
30.6689
24.4839
31.3991
31.1773
)


// ************************************************************************* //
