/*--------------------------------*- C++ -*----------------------------------*\
  =========                 |
  \\      /  F ield         | OpenFOAM: The Open Source CFD Toolbox
   \\    /   O peration     | Website:  https://openfoam.org
    \\  /    A nd           | Version:  7
     \\/     M anipulation  |
\*---------------------------------------------------------------------------*/
FoamFile
{
    version     2.0;
    format      ascii;
    class       scalarField;
    location    "0.7/lagrangian/reactingCloud1";
    object      T;
}
// * * * * * * * * * * * * * * * * * * * * * * * * * * * * * * * * * * * * * //


2429
(
592.171
590.99
591.234
590.66
590.589
589.99
589.512
589.774
589.431
589.827
589.262
588.055
589.072
589.145
588.984
588.171
589.058
589.931
588.587
588.016
588.817
588.334
588.285
588.555
588.317
588.44
588.75
588.33
588.467
588.389
588.394
588.551
588.435
588.528
588.471
588.458
588.518
588.492
588.46
588.47
588.474
588.664
588.607
595.539
594.035
591.489
595.679
595.386
593.245
597.85
591.178
591.515
590.026
590.788
593.505
593.064
593.303
593.991
591.895
593.417
590.912
591.896
592.964
593.214
593.69
595.256
593.397
594.327
593.894
592.658
592.964
593.136
592.616
593.041
593.038
594.076
592.911
593.257
594.175
593.612
593.999
593.259
594.331
593.081
594.331
594.405
593.399
594.139
592.984
593.463
592.939
593.994
593.086
593.146
593.581
593.522
592.725
592.932
592.432
594.928
593.51
592.424
592.458
591.837
592.219
592.445
591.4
591.61
591.423
552.281
556.047
563.203
568.452
567.488
569.591
568.489
571.532
580.422
578.336
579.924
580.225
584.891
586.541
584.059
586.223
585.965
589.61
586.386
587.573
589.366
522.31
522.604
416.306
512.299
530.101
529.541
536.168
533.066
533.066
538.54
538.973
545.141
550.705
508.41
508.596
508.755
508.48
506.88
499.193
504.569
510.663
510.688
511.806
510.907
514.168
506.822
516.138
516.802
518.062
506.776
506.633
506.928
461.258
462.286
507.066
506.036
507.016
469.341
507.404
439.527
507.349
507.405
507.563
507.857
390.238
493.068
508.195
505.265
505.408
505.339
505.478
505.303
403.275
505.461
470.428
505.328
505.615
452.01
505.764
429.608
505.514
505.729
505.602
420.62
505.973
496.264
505.736
475.731
506.123
506.438
470.65
432.356
506.521
506.094
506.509
421.502
505.101
385.527
361.248
344.812
486.635
475.858
504.618
504.79
457.765
504.738
435.867
504.781
318.085
504.456
504.779
503.611
227.011
479.878
457.116
504.802
357.971
504.711
463.584
504.845
388.711
418.176
503.901
504.853
504.894
504.849
495.827
500.772
505.039
470.08
504.015
461.073
505.157
505.151
505.13
448.89
504.237
503.69
505.353
505.362
504.887
504.438
504.461
504.437
504.447
504.451
234.456
318.187
396.933
348.675
504.474
495.472
491.896
386.803
428.084
504.448
503.962
331.084
503.467
231.284
477.978
479.204
504.454
457.806
504.447
480.419
504.491
357.914
434.328
504.488
438.578
445.023
407.297
481.134
494.951
231.767
504.487
504.558
469.843
504.509
455.18
503.851
429.365
450.594
437.547
504.6
446.833
504.571
486.227
425.862
504.432
372.627
388.623
500.115
334.402
382.604
326.583
467.836
504.622
504.691
504.547
504.681
504.243
384.348
504.646
504.431
504.432
504.43
504.432
504.43
504.432
504.43
504.432
504.432
504.431
504.431
504.434
245.492
368.948
309.071
369.569
447.474
433.838
503.394
489.085
427.427
361.843
504.429
414.196
504.397
381.585
376.79
410.281
248.792
504.426
434.023
504.412
301.11
349.754
504.397
504.422
389.776
493.313
423.389
470.817
482.491
487.436
400.416
454.499
504.432
456.707
321.653
504.377
472.009
457.825
485.011
404.27
311.782
504.257
446.265
504.199
503.69
422.465
504.429
470.817
504.241
504.438
476.777
323.028
421.813
504.43
479.169
502.576
417.257
390.25
504.448
351.061
504.439
446.858
502.154
393.133
376.315
405.564
405.564
359.182
502.071
504.443
436.729
442.527
449.458
504.457
504.232
504.14
503.944
503.944
504.297
504.1
504.388
504.14
504.232
504.394
504.394
504.14
504.328
504.174
504.14
504.409
504.056
504.364
504.416
504.416
504.328
504.056
504.174
504.4
504.405
504.232
503.944
504.174
504.425
504.232
504.373
504.205
504.429
504.431
504.431
253.176
306.878
347.706
254.303
367.006
422.159
244.272
324.134
375.974
367.006
272.098
239.787
397.39
443.486
431.542
346.942
314.679
267.647
358.763
439.25
349.232
477.547
224.158
396.606
330.38
504.313
423.648
435.917
378.893
503.527
492.451
222.775
274.542
503.805
348.958
399.761
287.689
345.54
449.695
389.87
484.013
418.723
418.723
496.528
502.318
502.559
336.287
323.834
439.705
489.054
432.293
341.819
446.003
301.427
504.317
313.33
472.734
464.731
426.719
339.322
465.82
503.994
339.921
310.248
380.13
437.34
349.468
250.607
247.754
435.972
431.573
444.717
504.425
307.238
504.364
437.951
398.379
370.969
500.704
482.738
492.548
455.574
486.402
412.449
408.075
426.212
499.878
482.738
408.075
499.878
426.212
403.817
469.954
460.466
403.817
482.738
455.574
465.274
501.641
489.683
502.233
440.738
430.986
421.524
486.402
403.817
426.212
494.979
502.687
403.817
430.986
416.934
478.739
502.687
502.687
412.449
489.683
494.979
403.817
499.878
496.986
501.641
408.075
403.817
474.46
503.31
416.934
500.872
403.817
500.872
489.683
421.524
450.634
412.449
489.683
494.979
408.075
460.466
469.954
430.986
503.51
503.66
492.548
460.466
501.641
498.602
421.524
498.602
445.679
503.66
435.833
503.776
465.274
502.687
421.524
445.679
460.466
503.776
412.449
249.963
242.533
249.517
294.825
244.937
278.421
269.028
219.447
355.495
503.869
365.748
348.561
289.551
390.928
330.979
338.135
338.135
309.641
363.661
500.872
392.791
332.235
412.449
392.176
315.179
328.913
410.677
406.43
348.752
338.802
386.481
420.29
254.016
298.746
313.201
276.932
389.853
342.454
325.005
349.79
299.602
252.572
338.836
351.218
338.836
395.088
400.838
420.612
351.465
316.15
327.498
391.285
351.567
361.163
214.371
308.594
346.155
260.338
293.324
358.779
437.637
348.462
348.462
457.011
416.301
437.637
301.842
301.842
451.01
503.869
328.337
247.558
393.341
386.486
306.61
240.729
333.755
289.788
291.73
321.902
347.568
425.183
232.67
302.407
265.169
397.727
347.568
404.915
333.768
404.915
403.575
337.701
337.701
418.286
273.33
375.227
494.637
471.28
456.938
316.962
467.774
299.041
243.971
254.188
314.751
323.316
388.114
438.042
364.004
356.865
411.475
340.885
472.657
388.153
352.517
390.07
363.432
397.879
264.201
445
462.343
409.467
347.685
347.685
460.485
503.196
345.079
423.143
357.204
446.873
416.692
331.707
348.7
339.658
324.684
344.031
337.575
331.707
319.942
328.089
317.002
346.327
351.152
359.019
333.602
319.942
356.309
337.575
339.658
359.019
351.152
367.722
333.602
351.152
337.575
315.594
348.7
329.87
341.809
344.031
351.152
333.602
324.684
315.594
324.657
341.809
326.361
321.477
361.823
319.942
353.687
351.152
319.942
321.477
370.824
370.824
346.327
341.809
341.809
314.224
324.684
331.707
324.684
374.031
374.031
318.451
364.723
339.658
374.031
323.057
321.477
333.602
323.057
374.031
364.723
339.658
353.687
335.557
377.348
339.658
315.594
353.687
361.823
361.823
344.031
356.309
333.602
344.031
353.687
335.557
339.658
344.031
315.594
319.942
370.824
326.361
324.684
351.152
318.451
346.327
359.019
337.575
380.777
323.057
314.224
380.777
339.658
361.823
335.557
339.658
323.057
348.7
344.031
321.477
318.451
361.823
341.809
315.594
323.057
315.594
367.722
364.723
333.602
331.707
353.687
317.002
344.031
321.477
359.019
384.321
319.942
318.451
333.602
323.057
315.594
344.031
328.089
370.824
339.658
387.981
364.723
356.309
314.224
356.309
315.594
339.658
387.981
326.361
370.824
387.981
314.224
317.002
314.224
324.684
391.76
346.281
324.684
329.87
328.089
356.309
374.031
364.723
335.557
367.722
370.824
351.152
391.76
341.809
348.7
344.031
377.348
356.309
324.684
348.7
321.477
335.557
337.575
344.031
395.659
346.327
395.659
335.557
333.602
364.723
346.327
339.658
331.707
348.7
324.684
323.057
326.361
337.575
351.152
321.477
344.031
344.031
323.057
370.824
384.321
380.777
324.684
333.602
356.309
353.687
353.687
318.451
222.063
374.031
318.451
239.664
250.535
240.339
258.879
255.779
252.652
284.706
303.746
303.746
234.494
331.707
299.839
309.598
259.64
253.209
312.793
302.479
294.157
309.872
255.142
287.989
228.62
307.833
298.593
311.067
310.796
282.994
302.307
318.377
316.143
309.427
312.445
304.674
311.282
346.327
395.659
279.048
302.009
319.655
303.659
214.271
308.712
303.724
395.659
316.941
320.634
399.678
291.804
322.119
296.391
290.892
300.986
309.767
303.546
221.392
292.913
323.033
287.23
331.913
315.427
269.743
284.813
359.019
296.041
282.614
328.465
310.282
294.582
309.233
318.512
309.104
254.948
319.97
330.389
334.691
374.031
341.42
325.26
325.639
292.342
301.375
330.875
303.227
348.384
305.617
316.707
332.522
351.101
296.206
315.321
344.643
351.152
312.882
311.342
305.147
328.829
333.615
256.515
318.708
325.188
255.607
330.304
350.808
304.039
351.56
343.079
314.056
350.829
355.302
353.127
349.593
360.713
362.069
290.409
318.781
272.499
315.336
360.297
309.533
349.86
323.89
353.421
357.68
321.812
355.615
380.485
329.426
366.896
259.757
336.143
267.318
369.609
367.552
324.887
258.726
300.796
335.432
395.27
366.596
399.547
244.532
381.425
326.96
326.96
336.236
330.627
285.749
298.424
288.545
300.352
285.078
294.831
285.078
296.585
283.118
288.545
288.545
283.118
294.831
300.352
294.831
290.02
285.749
298.424
289.276
287.124
301.353
300.352
299.376
290.779
285.078
300.352
302.378
297.494
302.378
301.353
304.507
301.353
302.378
303.429
290.02
283.763
287.124
299.376
298.424
302.378
283.763
284.416
291.554
304.507
286.431
293.984
305.613
290.02
303.429
286.431
298.424
306.747
291.554
286.431
306.747
284.416
306.747
302.378
299.376
290.02
303.429
287.829
306.747
291.554
295.698
291.554
285.078
294.831
295.698
293.984
293.156
287.829
299.376
304.507
297.494
288.545
283.118
307.912
307.912
295.698
301.353
303.429
285.749
290.779
297.494
293.156
285.078
285.749
293.156
292.346
301.353
288.545
290.02
303.429
293.156
290.02
285.749
289.276
298.424
294.831
302.378
297.494
296.585
293.984
309.108
309.108
287.124
285.078
288.545
283.118
305.613
296.585
293.984
310.335
281.306
299.376
287.829
310.335
303.429
282.482
285.078
297.494
283.118
283.118
293.156
309.108
297.494
297.494
309.108
310.335
283.763
302.378
285.749
300.352
297.494
299.376
311.597
295.698
295.698
292.346
311.597
298.424
301.353
284.416
298.424
291.554
311.597
299.376
302.378
298.424
297.494
311.597
311.597
303.429
286.431
303.429
311.597
284.416
284.416
311.597
293.156
286.431
287.829
312.892
312.892
312.892
289.276
302.378
312.892
283.763
296.585
310.335
305.613
290.779
287.829
300.352
289.276
224.488
259.04
218.046
235.501
260.423
280.083
229.148
280.27
267.55
282.434
295.698
262.056
281.383
279.374
265.323
247.771
256.837
276.808
270.812
248.265
295.698
269.571
288.545
282.132
270.03
229.229
276.888
285.14
269.492
287.829
280.82
273.101
280.834
223.887
272.718
257.057
265.595
286.108
288.545
230.917
277.219
287.77
293.156
273.065
283.415
288.485
296.585
304.507
278.805
287.504
269.783
250.667
282.099
312.892
311.597
265.628
247.171
260.044
275.521
233.287
286.546
288.503
288.985
284.42
283.442
290.685
280.978
263.004
290.116
292.696
242.763
282.858
292.724
281.426
277.56
289.966
294.682
248.466
274.815
287.124
277.771
267.517
290.283
280.547
263.341
298.424
283.676
296.024
291.326
275.005
269.118
291.326
290.897
257.001
298.714
297.4
312.892
257.609
300.263
300.126
296.486
283.135
237.923
291.91
270.732
289.932
304.024
304.405
297.924
300.89
312.892
305.613
285.283
266.271
301.055
269.995
304.83
306.731
300.204
302.457
276.684
238.191
279.287
276.034
303.269
305.358
256.312
267.253
294.517
235.965
300.132
308.991
303.581
262.983
310.335
288.861
310.335
278.437
309.086
307.566
244.836
312.276
271.38
268.635
271.934
272.49
270.827
265.397
262.728
273.61
277.038
262.728
275.882
272.49
271.38
263.257
273.049
273.049
264.863
269.728
263.792
273.61
270.277
271.38
277.622
273.049
262.728
270.827
275.309
271.934
275.882
265.397
274.74
268.092
268.092
271.934
262.728
269.181
264.863
278.804
273.049
272.49
278.804
264.326
273.049
269.728
264.863
270.277
264.326
274.173
265.934
272.49
273.049
276.458
274.74
265.397
275.309
267.006
263.792
263.792
263.257
265.397
273.049
268.635
263.792
267.01
262.728
263.257
272.49
267.01
276.458
271.38
264.863
277.038
275.309
268.092
268.635
263.257
278.804
277.622
277.622
276.458
279.402
269.728
270.827
267.549
279.402
279.402
267.549
268.092
277.622
275.882
265.934
267.01
272.49
280.006
277.038
263.257
277.038
275.882
272.49
267.01
277.622
267.01
266.471
274.173
269.728
279.402
278.804
271.38
265.397
271.934
271.38
276.458
280.006
263.792
264.863
272.49
265.934
280.006
268.092
268.092
264.859
268.635
263.257
265.934
274.74
277.622
268.092
273.61
270.277
273.049
265.397
274.74
265.397
268.635
262.728
263.792
263.257
264.326
270.827
264.326
269.181
262.728
273.61
275.309
270.827
274.173
269.181
280.006
267.549
278.211
278.804
266.471
277.038
269.728
268.092
281.231
270.827
269.728
275.309
281.231
265.934
274.173
268.635
272.49
273.61
277.622
269.181
281.231
274.74
277.622
268.092
265.934
275.882
281.231
281.231
280.615
263.77
281.231
269.728
270.277
268.635
269.181
268.635
281.853
275.882
267.01
281.853
267.549
281.853
238.864
242.13
232.967
231.996
236.496
214.088
246.833
223.186
229.285
232.586
262.573
251.35
264.326
253.138
259.615
260.838
262.694
237.495
262.958
240.174
251.187
262.886
256.157
240.779
245.13
231.522
242.236
237.965
262.12
254.72
261.055
261.914
244.635
258.057
240.227
254.911
263.105
266.471
281.853
264.326
280.006
262.04
253.552
256.3
257.671
264.304
255.889
257.871
270.277
250.687
215.111
264.461
242.907
252.156
281.853
259.796
264.863
259.419
272.49
247.321
281.853
265.359
230.223
232.685
248.866
263.052
263.194
214.14
232.912
240.4
264.213
262.742
264.097
239.347
263.804
254.634
246.119
262.499
261.575
266.409
259.965
256.643
220.645
266.921
265.851
263.968
266.287
259.106
265.078
260.489
244.487
254.643
262.138
262.559
265.441
267.458
254.9
214.388
237.779
231.376
265.31
224.186
267.412
260.628
264.703
261.081
268.155
266.812
281.231
267.901
266.77
269.724
239.43
268.725
255.906
251.793
268.067
244.38
260.207
267.114
268.932
265.963
224.175
265.503
269.562
270.549
274.74
246.541
269.179
259.228
271.271
271.881
249.379
251.824
248.461
269.967
271.375
231.673
267.602
265.692
266.335
241.847
239.143
264.789
215.14
256.189
247.189
260.097
260.975
271.998
266.191
214.522
268.097
217.24
249.852
270.445
270.249
268.097
216.403
268.735
272.829
275.309
263.689
214.277
272.713
274.314
273.641
228.484
248.496
257.922
267.504
270.564
276.42
267.041
276.458
237.765
242.579
273.071
257.668
276.676
273.685
268.969
277.622
252.944
244.265
274.776
276.709
273.777
276.709
257.871
272.421
273.344
246.703
271.612
270.064
281.853
217.339
268.226
255.376
268.85
273.853
277.335
244.675
279.382
271.941
256.267
274.089
227.583
277.898
278.744
275.558
268.323
263.229
246.912
272.951
274.436
281.154
237.185
276.574
279.767
275.479
278.715
247.548
257.55
249.551
247.548
248.341
251.266
247.548
259.089
260.638
253.795
247.986
254.879
259.607
257.023
259.607
257.55
253.795
245.533
252.237
258.58
249.128
245.533
249.936
247.548
255.429
253.795
247.548
252.736
252.736
257.023
252.736
248.765
257.023
249.936
259.607
246.716
257.55
257.55
259.089
258.062
259.089
248.341
247.548
252.237
257.023
245.864
253.271
257.023
250.795
258.062
247.184
261.154
245.864
246.344
251.266
259.607
256.502
250.795
247.184
257.023
247.986
247.548
247.986
260.638
245.533
260.119
252.736
254.346
247.184
250.377
246.344
249.551
260.638
245.533
253.795
248.765
260.638
253.271
257.55
257.023
251.726
250.795
247.184
257.023
258.062
251.266
255.961
251.726
245.864
258.58
258.062
261.154
246.344
260.638
256.502
248.765
258.062
261.154
258.062
249.128
246.716
247.548
257.55
251.266
249.936
260.638
249.551
247.548
246.344
260.638
252.736
250.795
245.533
249.551
257.55
259.607
246.716
260.119
261.154
261.677
254.879
261.154
249.936
245.533
247.986
250.795
256.502
259.089
251.266
257.55
256.502
252.736
252.736
259.607
246.716
250.377
251.726
252.736
248.341
247.548
250.377
249.128
249.128
250.377
248.765
261.677
253.795
260.119
255.961
254.346
251.726
246.344
257.55
259.607
250.795
258.58
255.961
253.271
259.089
256.502
261.677
250.795
253.271
259.089
259.607
261.677
251.726
255.961
254.879
254.346
252.736
252.237
250.795
257.023
255.961
260.638
261.677
254.346
247.184
261.154
249.128
256.502
250.377
253.271
252.736
247.184
253.271
252.237
248.765
255.961
255.429
253.271
252.237
252.237
257.023
246.716
261.154
248.765
260.119
245.533
258.062
248.341
245.533
256.502
247.986
249.551
214.061
218.35
258.58
250.795
233.393
214.201
214.037
258.58
218.267
227.319
219.018
226.489
233.906
224.054
247.548
234.684
214.097
242.011
239.604
245.532
245.49
237.028
237.698
229.569
225.587
232.697
220.016
229.129
236.075
244.223
244.665
221.958
246.344
242.675
236.915
245.308
253.271
231.918
245.797
240.102
218.883
237.793
236.197
243.854
244.129
244.111
246.716
243.22
246.344
246.331
244.958
242.088
240.617
236.318
239.556
236.367
214.148
215.07
244.66
224.786
240.617
246.703
252.237
245.051
257.023
245.686
250.795
246.195
235.207
229.385
244.585
246.658
246.419
242.99
233.298
234.546
262.199
237.873
235.291
242.079
226.303
246.001
244.791
235.423
244.532
247.183
239.084
240.47
239.368
244.373
245.975
244.298
239.965
214.187
246.541
225.602
214.05
246.694
234.888
248.765
241.118
232.093
242.91
228.788
231.652
236.071
242.484
247.423
241.135
237.268
252.237
245.88
246.789
261.677
244.662
246.164
242.699
236.105
247.69
243.526
237.268
247.106
232.917
259.089
260.638
246.931
242.247
244.566
247.385
254.879
239.844
247.907
248.711
248.711
247.496
257.023
236.307
241.292
217.976
222.874
248.75
238.713
239.899
246.977
261.677
239.769
248.711
248.22
245.89
248.369
261.677
248.461
247.823
248.666
242.449
244.564
245.797
244.71
249.096
254.879
260.119
259.607
248.058
246.584
248.559
249.936
247.498
214.033
247.267
253.271
236.099
217.592
247.799
247.498
249.463
247.697
247.799
258.062
249.074
242.429
248.971
239.503
249.463
247.585
249.936
229.115
217.289
249.685
245.689
248.799
214.174
246.975
248.549
250.087
217.508
245.034
225.904
255.429
248.858
250.342
238.332
250.146
242.232
250.36
238.875
248.809
244.859
249.491
252.736
250.732
242.583
247.354
250.785
249.264
245.36
243.983
246.29
250.612
261.154
249.709
259.089
228.053
250.557
232.518
250.206
219.955
251.216
261.677
248.689
246.272
241.146
245.165
251.076
251.076
230.818
245.542
218.622
251.715
247.179
249.603
235.009
246.295
227.215
231.571
229.384
252.131
250.216
260.638
251.793
226.211
232.065
249.502
250.199
250.104
215.236
250.904
250.476
252.497
238.639
239.959
233.232
234.348
214.062
247.403
251.88
224.975
244.794
243.45
254.346
261.154
252.957
253.271
230.763
252.822
247.906
253.24
246.69
252.501
239.613
253.025
240.993
245.541
247.906
251.626
222.596
253.164
250.134
214.95
247.588
228.388
253.508
253.434
253.434
258.062
230.183
242.398
253.508
251.029
254.035
249.983
254.312
253.245
242.262
253.973
218.316
262.199
243.306
229.531
234.783
249.407
214.159
231.584
262.199
242.476
236.206
255.074
253.2
252.902
248.224
242.655
251.596
215.812
239.126
244.42
244.072
255.41
227.857
251.457
247.245
234.876
248.055
258.062
260.119
254.341
249.318
229.773
253.825
255.935
255.094
254.141
254.698
226.66
244.357
253.024
238.772
214.183
249.196
234.203
256.678
249.985
247.035
259.089
256.97
228.35
244.758
257.003
239.669
255.661
256.573
252.074
255.494
244.013
226.205
256.021
241.188
230.271
257.652
258.564
258.002
252.96
258.48
256.163
258.364
258.604
258.101
258.026
246.753
239.031
258.83
256.933
237.628
235.219
258.935
259.086
257.805
258.18
254.007
245.362
232.024
256.575
259.578
256.698
259.16
229.777
250.143
246.17
253.707
258.465
251.561
251.561
259.314
257.308
258.3
259.484
236.849
258.523
259.861
249.037
250.098
235.485
259.702
254.761
261.088
261.011
250.894
227.421
258.39
256.327
247.828
260.857
250.151
262.014
261.627
)


// ************************************************************************* //
