/*--------------------------------*- C++ -*----------------------------------*\
  =========                 |
  \\      /  F ield         | OpenFOAM: The Open Source CFD Toolbox
   \\    /   O peration     | Website:  https://openfoam.org
    \\  /    A nd           | Version:  7
     \\/     M anipulation  |
\*---------------------------------------------------------------------------*/
FoamFile
{
    version     2.0;
    format      ascii;
    class       scalarField;
    location    "0.7/lagrangian/reactingCloud1";
    object      tTurb;
}
// * * * * * * * * * * * * * * * * * * * * * * * * * * * * * * * * * * * * * //


2429
(
0.0008855
0.004115
0.00401
0.003905
0.000275
0.003695
0.00359
0.003485
0.00338
0.003275
0.00317
0.003065
0.00296
0.002855
0.00285125
0.00275
0.002645
0.000337281
0.002435
0.00233
0.002225
0.00212
0.002015
0.00191
0.001805
0.0017
0.0002735
0.001595
0.00149
0.001385
0.00128
0.001175
0.00107
0.000965
0.00086
0.000755
0.00065
0.000545
0.00044
0.000335
0.00023
0.000125
2e-05
0.000362
0.002207
0.0006505
0.000600017
0.0007035
0.0006105
0.001725
0.010105
0.01
0.0099
0.0098
0.00400523
0.0096
0.0095
0.0002185
0.0093
0.0091
0.0092
0.009
0.0089
0.0088
0.0087
0.0018865
0.0085
0.0084
0.0083
0.0082
0.0081
0.008
0.0079
0.0078
0.0077
0.0075
0.0076
0.0074
0.0073
0.0072
0.0071
0.007
0.00147683
0.0069
0.000627356
0.00200168
0.0065
0.00118035
0.0064
0.0062
0.0061
0.00089
0.0059
0.005795
0.00569
0.005585
0.00548
0.005375
0.00527
0.000432373
0.00506
0.004955
0.004745
0.00485
0.00464
0.004535
0.00443
0.004325
0.00422
0.0006
0.0018235
0.011995
0.001957
0.000118281
0.000467
0.01189
0.011785
0.000152
0.001587
0.01147
0.011575
0.0036255
0.0003885
0.010945
0.011155
0.010735
0.0039585
0.01042
0.010525
0.01063
0.00167656
0.01336
0.00038
0.0015635
0.0132512
0.00163629
0.0013535
0.001273
0.001027
0.012835
0.000955093
0.01252
0.012415
0.01483
0.0024335
0.001652
0.014725
0.003605
0.00092
0.0025285
0.0142
0.0144062
0.00251135
0.002882
0.00226625
5.7e-05
0.013675
0.0021
0.0019785
0.0027805
0.01678
0.0040555
0.0024676
0.000972203
0.0034805
0.00454278
0.01588
0.000587
0.000937
0.0003805
0.00397836
0.01546
0.015565
0.0016605
0.00175374
0.0022555
0.00329638
0.00021735
0.002717
0.01978
0.007605
0.01938
0.0007155
0.01928
0.0020605
0.01898
0.0037205
0.0002335
0.0022455
0.000855
0.006705
0.01878
0.01848
0.000177
0.0061785
0.004555
0.01818
0.003175
0.01788
0.0048805
0.0003255
0.00174212
0.01738
0.0055859
0.01718
0.0023755
0.00103107
0.0045035
0.0018405
0.0025555
0.005745
0.00444168
0.02334
0.0035905
0.0009655
0.0023305
0.0013435
0.0225
0.0030405
0.00466
0.022395
0.004547
0.0079135
0.00272204
0.001495
0.021975
0.0009005
0.021765
0.0041
0.02145
0.0013535
0.0035655
0.006702
0.006647
0.021345
0.02124
0.0065455
0.00014
0.020925
0.0030185
0.0019235
0.004322
0.003182
0.020715
0.020505
0.00315819
0.0083885
0.000402
0.00352056
0.014982
0.00814038
0.00255923
0.00348522
0.000672493
0.00018643
5.0217e-05
0.005942
0.008467
0.0002455
0.0011535
0.011937
0.00279064
0.003812
0.0039435
0.006282
0.02916
0.006712
0.0020435
0.01754
0.005525
0.0035955
0.00383213
0.02846
0.006667
0.02836
0.003297
0.0034885
0.0041635
0.0013305
0.02776
0.006102
0.0064255
0.0022905
0.0026485
0.008595
0.0097985
0.02686
0.02696
0.00364529
0.010942
0.0035385
0.0134055
0.00598
0.00450727
0.0046105
0.00182896
0.0014205
0.02544
0.0040835
0.0014405
0.0021005
0.0010685
0.002727
0.0080205
0.0001955
4.35e-05
0.0014135
0.004485
0.024495
0.002802
0.0176255
0.02439
0.0120555
0.0046735
0.02418
2.18729e-05
0.00426731
0.00338105
0.00225898
0.00209753
0.00207026
0.00069014
0.000458022
0.000481416
0.000486317
0.000326988
0.00309395
0.0004035
0.0081705
0.010557
0.0069855
0.0003955
0.0091735
0.0088155
0.001982
0.00491
0.0103755
6.85e-05
0.0005255
0.0214755
0.001592
0.004412
0.0060155
0.01386
0.0025705
0.00764
0.0031285
0.0110805
0.0018485
0.0243026
0.0024205
0.0085635
0.0123835
0.0031685
0.0015305
0.0082235
0.000687
0.0021255
0.00430697
0.0164235
0.0039885
0.0104655
0.0026585
0.0062366
0.00869065
0.0082785
0.0061435
0.0081535
0.0066485
0.006952
0.0100566
0.0045455
0.0030255
0.0158155
0.0066625
0.00506
0.0008735
0.0012005
0.0057455
0.004202
0.01051
0.006382
0.0194485
0.0088185
0.0053185
0.0001385
0.0034535
0.031325
0.0008785
0.0068735
0.0067935
0.0027405
0.0043555
0.0078305
0.0022185
8.587e-05
0.030065
0.0023835
0.006265
0.006337
0.02966
0.001929
0.00353074
0.00331701
0.00352936
0.00316807
0.000267883
0.00394713
0.00265611
0.00257191
0.00404081
0.00338306
0.00240793
0.00229052
0.00212606
0.00207373
0.00337803
0.00264179
0.00184232
0.00221365
0.00203665
0.00422787
0.0014594
0.00141851
0.00154939
0.00142803
0.00109509
0.000955845
0.000865787
0.00359171
0.000764056
0.000748714
0.000469176
0.00128784
0.00233685
0.00490309
0.000852
0.0092435
0.0029255
0.001327
0.0024135
0.004197
0.01527
0.0117085
0.0059385
0.0065185
0.005982
0.0085855
0.0044135
0.0035305
0.0059605
0.01082
0.0031055
0.0139705
0.0015085
0.011712
0.0019105
0.00188
0.0119455
0.001437
0.0001205
0.00397519
0.0100555
0.009457
0.0008935
0.0144205
0.004222
0.00083
0.0139105
0.0121735
0.0125185
0.0047105
0.0086685
0.0110655
0.000122
0.004137
0.0135735
0.0066685
0.0107835
0.00113702
0.0203516
0.0074955
0.0064535
0.0070905
0.0036055
0.00455131
0.0112855
0.002115
0.002795
0.0107255
0.0063755
0.0066285
0.0015905
0.011532
0.0071705
0.01
0.0112528
0.0071385
0.0024735
0.0087005
0.0054285
0.0072035
0.0053585
0.000377
0.013945
0.008505
0.0019035
0.000922
0.006025
0.0080655
0.00437
0.0030135
0.003777
0.0060435
0.0084905
0.00398379
0.0019195
0.00384441
0.00386701
0.00358613
0.00346826
0.00344926
0.00336217
0.00313916
0.00296882
0.00372855
0.00286561
0.0104695
0.0027142
0.00505578
0.00263274
0.00243945
0.00288511
0.00227444
0.00285927
0.00267818
0.00341634
0.00268317
0.00204708
0.0019831
0.00198544
0.00172654
0.00187617
0.00190077
0.00394079
0.00173515
0.00199362
0.00169109
0.00169522
0.00273573
0.0035514
0.00343745
0.00167214
0.00162113
0.00491588
0.00149149
0.00148415
0.00144009
0.00140095
0.00117544
0.00608631
0.00127897
0.00108618
0.001143
0.00673664
0.00119904
0.00106021
0.0011242
0.0010038
0.000949166
0.0039032
0.000918428
0.00779008
0.000803787
0.000776123
0.000690775
0.00204756
0.00101804
0.000690749
0.00738276
0.000689969
0.000598934
0.00141928
0.000561941
0.000404105
0.00417251
0.000459026
0.000543158
0.000909615
0.000381
0.000278001
0.000303681
0.000790497
0.00258138
8.58402e-05
0.009607
0.0026305
0.015842
0.0172535
0.019312
0.0034455
0.0185455
0.0203935
0.013912
0.0026787
0.0144105
0.0036005
0.0158455
0.0063485
0.014312
0.015062
0.0091105
0.0005455
0.0068385
0.000100648
0.007867
0.0078355
0.00236912
0.0034435
0.0046785
0.006217
0.006567
0.0135335
0.004487
0.00323
0.0104805
0.010507
0.019352
0.0125935
0.001352
0.013397
0.0116335
0.0142555
0.0156585
0.001832
0.0093455
0.0048535
0.013887
0.007707
0.0148005
0.0111555
0.001437
0.0022035
0.0036085
0.006947
0.003127
0.005962
0.0014735
0.010932
0.0143335
0.0147205
0.010547
0.0152905
0.0008885
0.0011535
0.007455
0.0001835
0.0112335
0.0046955
0.002032
0.0036655
0.0031105
0.011112
0.0035605
0.00174798
0.0053205
0.0021785
0.0031135
0.004427
0.0079485
0.0046905
0.00954197
0.0140735
0.0006055
0.004905
0.000775
0.0073766
0.0141835
0.0064385
0.0075855
0.008087
0.0099235
0.0104985
0.001807
0.0086535
0.0094905
0.0009085
0.0095605
0.006707
0.0085605
0.009222
0.0059705
0.0117685
0.007977
0.013852
0.0094705
0.0146585
0.015707
0.006865
0.001505
0.001677
0.0087705
0.0034255
0.0049985
0.0047205
0.0095485
0.0130805
0.0038635
0.0110635
0.0112805
0.001382
0.0105985
0.001162
0.001962
0.007092
0.0057503
0.0129485
2.2e-05
0.0005805
0.007157
0.022562
0.003887
0.0013285
0.0109105
0.0006185
0.0031805
0.00432441
0.00590374
0.00410788
0.00389506
0.0039293
0.00154456
0.0163621
0.00648503
0.00387651
0.00384262
0.00386217
0.00390038
0.00387222
0.0111528
0.000703875
0.00204354
0.00393646
0.00705611
0.00365235
0.00223379
0.00239196
0.00167378
0.00400095
0.00344942
0.00333377
0.0034244
0.0149836
0.00326751
0.000998793
0.00467891
0.00318578
0.00315606
0.00315015
0.0058985
0.00316522
0.00308624
0.00305551
0.00308279
0.00298646
0.00424702
0.00297279
0.00289115
0.00288031
0.00297597
0.00392584
0.00287976
0.00286488
0.00284032
0.00262817
0.000803479
0.00267704
0.00264595
0.0029513
0.00358446
0.00258527
0.00266855
0.00124508
0.00396344
0.00252127
0.00250967
0.00252913
0.00248818
0.00255674
0.00253365
0.0063207
0.00249803
0.00165368
0.00401592
0.00244185
0.00235171
0.01205
0.00244396
0.00242389
0.00238855
0.00150356
0.0033534
0.00226538
0.00227226
0.00222191
0.0022271
0.00470077
0.00209801
0.00211991
0.00219814
0.00207904
0.00204578
0.00206083
0.000120965
0.000751976
0.0127068
0.000230375
0.00242722
0.00192934
0.00186471
0.00232578
0.00187497
0.00191703
0.00185169
0.00201331
0.000778813
0.00180544
0.00176935
0.00171281
0.00170147
0.0015221
0.00172992
0.00534502
0.0016091
0.00158808
0.00168087
0.0120667
0.00195898
0.015138
0.00159948
0.00707173
0.00156531
0.00150126
0.00159308
0.00352513
0.00144147
0.00265119
0.00142896
0.00495383
0.00126693
0.00134226
0.00128888
0.0013545
0.000574591
0.00333238
0.00126562
0.00127064
0.00112727
0.00932727
0.00108594
0.00631932
0.0025327
0.00108486
0.00769292
0.00163665
0.024032
0.000965502
0.000948313
0.00101925
0.00402066
0.00579
0.00094487
0.000894077
0.0163049
0.009074
0.000864614
0.0103416
0.000787799
0.000803744
0.000788911
0.00137578
0.000775398
0.000727797
0.00068805
0.00634647
0.000716635
0.000679619
0.000588636
0.000638146
0.019278
0.000597522
0.00230622
0.000582035
0.00258993
0.000567658
0.00152769
0.00053121
0.0192377
0.000612248
0.000460594
0.000430161
0.000431085
0.000427188
0.0018432
0.0146502
0.000319328
0.000331385
0.0108451
0.000274421
0.000309266
0.000299999
0.000241932
0.000299976
0.000312638
0.000199849
0.000209034
0.00194493
0.000234399
0.000211335
0.000207151
0.00160265
0.0242505
0.0011318
6.29995e-05
0.0164805
0.0010085
0.0181235
0.0053635
0.0046935
0.0073485
0.0034955
0.0191485
0.0150105
0.017507
0.00208604
0.0245305
0.021077
0.02616
0.004685
0.022872
0.0036705
0.0168005
0.0013035
0.0213535
0.0004135
0.001535
0.021855
0.001892
0.000892
0.006777
0.01955
0.0154055
0.0211655
0.0197459
0.0026855
0.005915
0.0054005
0.0236805
6.82406e-05
0.000127598
0.0217635
0.0016455
0.0161655
0.020657
0.0362855
0.006962
0.0126835
0.00022228
0.0178235
0.0029455
0.000215468
0.0097835
0.0158785
0.0110535
0.003237
0.0168605
0.0063205
0.003377
0.020217
0.0175922
0.0101055
0.02066
0.0008305
0.0193285
0.0052235
0.013302
0.00180382
0.0192955
0.008247
0.0067035
0.0215285
0.011887
0.0018385
0.0062385
0.008462
0.0158605
0.00277
0.016407
0.0139205
5.09998e-05
0.0183009
0.0117705
0.015532
0.006377
0.0203955
0.0118935
0.00801
0.0077255
0.0025855
0.0139455
0.016205
0.0071635
0.0035005
0.004665
0.002947
0.007303
0.0053155
0.0024235
0.0165855
0.0024635
0.0029505
0.0054655
0.00231
0.0054085
0.016912
0.011382
0.015332
0.003605
0.004372
0.0134435
0.0165685
0.000707
0.001527
0.0068985
0.0088535
0.0097535
0.003317
0.0087405
0.0106429
0.0109905
0.0117305
0.011675
0.013002
0.0171285
0.0019635
0.008443
0.0072905
0.0023005
0.0127585
0.0151435
0.0175185
0.0022005
0.008867
0.01612
0.0119685
0.0113535
0.0037005
0.0158535
0.0132505
0.0172085
0.00165
0.013132
0.0025155
0.0058035
0.017397
0.0144035
0.0118585
0.005827
0.0076985
0.0083885
0.00372545
0.00379345
0.0330754
0.0160358
0.0344633
0.00375508
0.00368047
0.00372012
0.00360606
0.00136925
0.00354083
0.00347422
0.00352151
0.00354943
0.00350349
0.00342717
0.00333413
0.0033672
0.00329163
0.00321887
0.00327492
0.000352407
0.00323609
0.00317657
0.00309337
0.0246148
0.00314786
0.00311052
0.00319645
0.0102889
0.00379865
0.00232283
0.00306219
0.0145118
0.0199224
0.00304184
0.00284081
0.00443179
0.00223848
0.00287502
0.00071781
0.0147307
0.00267711
0.0189371
0.00261163
0.00260057
0.0031178
0.00255866
0.00264091
0.00173306
0.00254563
0.00155982
0.00522641
0.00239944
0.0201935
0.0023233
0.0027385
0.00238756
0.00188949
0.00226337
0.0017169
0.0121949
0.00297479
0.00218978
0.00292209
0.00210173
0.00204559
0.00208701
0.00219043
0.00228214
0.00200766
0.00212534
0.0268495
0.0230075
0.00852701
0.0143851
0.00177709
0.00201256
0.000317092
0.00177454
0.00169303
0.00182114
0.00165757
0.00168483
0.00170259
0.00522582
0.00156031
0.00156892
0.00160347
0.00156345
0.00512603
0.00365962
0.00149747
0.00154436
0.00147103
0.001407
0.0255261
0.00387482
0.00142597
0.00464973
0.00344469
0.00454783
0.00133031
0.00557564
0.00134825
0.00168151
0.00214219
0.00115558
0.00121073
0.0312019
0.0011754
0.00112479
0.00106592
0.00339823
0.00531
0.000356667
0.000957726
0.00371189
0.00105362
0.000906836
0.000937325
0.00857482
0.000852213
0.00084619
0.00441054
0.000949557
0.0288646
0.000884569
0.000901551
0.00382272
0.00247073
0.00386458
0.000676292
0.000774448
0.00406869
0.000756165
0.00286818
0.00140399
0.0129476
0.0115141
0.00194559
0.000596895
0.000614991
0.000483399
0.000565253
0.00356694
0.00229541
0.000507275
0.00151947
0.000472125
0.00213753
0.00103746
0.00103047
0.00171073
0.000332704
0.000429433
0.000885154
0.000295154
0.00045181
0.00901661
0.000306839
0.030825
0.000240998
0.00349034
0.00602957
0.00200288
0.0105412
0.000495649
0.0234046
0.00090169
0.00252891
0.0092075
0.000246963
0.000193252
0.000163258
0.000184876
0.00138558
0.023237
0.0297205
0.0166885
0.020632
0.0164805
0.0265305
0.0031255
0.0009705
0.0136455
0.0330455
9.37153e-05
0.0350835
0.0087405
0.0139155
0.001187
0.029107
0.00268
0.0221155
0.0112935
0.0274635
8.18045e-05
0.019797
2.1908e-05
0.03419
0.010087
0.032215
0.022335
0.0288185
0.0259905
0.00520079
0.0288255
0.0073585
0.0333485
0.0368955
0.006415
0.009232
0.014632
0.0029735
0.00280566
0.006657
0.015325
0.0166635
3.14961e-05
0.010892
0.0280305
0.0312055
0.0183196
8.98107e-05
0.010415
0.0148305
0.0077885
0.0101785
0.0214655
0.00351173
0.000114
0.020095
0.021047
0.0141385
0.015902
0.0026805
0.0096005
0.031275
0.014852
0.026247
0.0222705
0.0316535
0.008015
0.0222235
0.017052
0.0165785
0.019542
0.022885
0.0064785
0.0079135
0.0114955
0.0017655
0.0045405
0.0261355
0.0193155
0.0107885
0.008652
0.0024005
0.0235685
0.020517
0.0185605
0.0044585
0.0071435
0.026247
0.006827
0.0204255
0.0101935
0.022282
0.010832
0.0197105
0.0261907
0.006907
0.0228655
0.0031355
0.022162
0.0230885
0.0093355
0.020312
0.0191305
0.01391
0.0014005
0.0140405
0.011148
0.0016205
0.021787
0.012147
0.00494204
0.0043785
0.0076285
0.0101235
0.0133405
0.023017
0.0134405
0.007083
0.0134455
0.002472
0.0237185
0.0096655
0.0210735
0.026017
0.007097
0.0009335
0.0095205
0.0155785
0.0260305
0.006897
0.0043735
0.0134935
0.0233335
0.0035385
0.0251505
0.0024005
0.0015135
0.019282
0.000487
0.0213385
0.015362
0.0179185
0.00359682
0.00355464
0.00851769
0.00357004
0.00185628
0.00844384
0.00681733
0.00175045
0.00355681
0.00331773
0.00542613
0.00404077
0.00343217
0.000110698
0.000282619
0.00332454
0.00320035
0.00324896
0.00317988
0.00326165
0.00322294
0.00321691
0.00412933
0.00112517
0.0063264
0.00312138
0.038581
0.00308786
0.0340266
0.00464314
0.000196454
0.00290575
0.0028746
0.00289819
0.0187035
0.00413881
0.00273263
0.00328659
0.0028351
0.011871
0.0213099
0.00433787
0.00264232
0.0216488
3.99771e-05
0.00417097
0.00245741
0.00575976
0.00247666
0.00298855
0.0252881
0.00254145
0.000645628
0.00332513
0.00248454
0.0077265
0.0023239
0.0158595
0.0073944
0.0413555
0.00227562
0.00226196
0.00214905
0.00213418
0.00207629
0.00721457
0.00220459
0.00210328
0.0165125
0.00210386
0.00194882
0.00212195
0.00209895
0.00199349
0.00198323
0.00188552
0.00210136
0.0097307
0.00384252
0.000559985
0.00273151
0.00194567
0.00189726
0.00185826
0.00153485
0.00750295
0.00174637
0.0107076
0.00191571
0.00298236
0.00788399
0.00159308
0.0025383
0.00323249
0.00644387
0.0040958
0.0113873
0.00653292
0.00245136
0.00145974
0.00223404
0.00463001
0.00142861
2.014e-05
0.00145159
0.00155431
0.000159935
0.00125743
0.00147421
0.0289804
0.00196552
0.0064616
0.00283759
0.0403585
0.00133678
0.0167074
0.00130523
0.00309557
0.0223415
0.00477418
0.0022535
0.00129935
0.00113528
0.00116041
0.00129288
0.00132412
0.00968022
0.000190442
0.00109523
0.00340805
0.000984405
0.00109932
0.000934545
0.000946096
0.00467589
0.000834048
0.000792005
0.0046522
0.000902862
0.000774263
0.00739895
0.000759347
0.000910078
0.000242643
0.00278424
0.0371647
0.00079729
0.000920053
0.00130402
0.000861471
0.000841898
0.000716541
0.000817323
0.000713079
0.000647782
0.0331027
0.000609545
0.0181498
0.000658639
0.00513881
0.00113533
0.00179095
0.000531916
0.0179124
0.000613313
0.000631554
0.000520845
0.00273043
0.000937076
0.00737937
0.000439747
0.0175681
0.0125626
0.00375658
0.00291924
0.000533514
0.0110485
0.0370373
0.00575341
0.00114373
0.000307179
0.000801314
0.0123462
0.00410441
0.000615201
0.000209513
0.00487434
0.0001634
0.0193347
0.0230255
0.0245385
0.018792
0.0416485
0.0189255
0.0973855
0.0270035
0.025487
0.016042
0.0347535
0.00649
0.0270755
0.00795817
0.025742
0.0160455
0.0457085
0.0329685
0.0329335
0.0177505
0.0387835
0.0334035
0.0083655
0.0118435
0.0020105
0.03158
0.017672
0.0326685
0.010737
0.0197985
0.0386505
0.0510205
0.0056705
0.0463155
0.048047
0.0096805
0.019137
0.0186455
3.72739e-05
0.0322937
0.0316
0.000209435
0.0417185
0.0425655
0.004247
0.0039755
0.017937
0.042515
0.018932
8.4825e-05
0.003047
0.00360622
0.0126435
0.014657
0.023352
0.000224783
0.043252
0.043588
0.021375
0.00540478
0.047397
0.00360509
0.014842
0.0392885
0.0322385
0.020727
0.0332085
0.0486605
0.0792435
0.007342
0.0018455
0.017612
0.0079105
0.034752
0.022892
0.02727
0.0304705
0.0081655
0.017392
0.0033455
0.0351835
0.037737
0.0016385
0.0084255
0.02931
0.0377955
0.0111955
0.00762
0.0441505
0.0443105
0.0005785
0.034532
0.0152405
0.0154305
0.0019435
0.0433105
0.0066735
0.0232805
0.049575
0.003162
0.013657
0.0202135
0.0364455
0.034527
0.0322855
0.0226905
0.023127
0.0457635
0.0263035
0.000142247
0.0139705
0.004347
0.025472
0.016755
0.0227755
0.0027135
0.0087685
0.0380905
0.013295
0.002462
0.034377
0.0089955
0.0277855
0.0290527
0.0162405
0.0334585
0.0114155
0.00551629
0.0098685
0.0316455
0.0312405
0.0050885
0.0021805
0.029537
0.0063835
0.0194135
0.013355
0.0082885
0.00976315
0.009657
0.0071935
0.0316955
0.036217
0.009525
0.005977
0.0287635
0.0068035
0.03614
0.014807
0.0376935
0.0410335
0.0121905
0.0220255
0.019357
0.0242505
0.041072
0.0143785
0.0316955
0.0200685
0.044317
0.0354235
0.0073105
0.0351107
0.0024335
0.0462385
0.0329905
0.0239685
0.00712
0.011767
0.019882
0.026832
0.0231255
0.027917
0.0078155
0.0237105
2.35e-05
0.0317305
0.014507
0.0060755
0.004432
0.0049355
0.0116555
0.0283205
0.00975861
0.0066185
0.021742
0.0107935
0.0055155
0.0216705
0.0185155
0.034525
0.004947
0.0026635
0.010942
0.019437
0.026502
0.00126444
0.00986054
0.0303455
0.0361
0.0298485
0.024927
0.0232955
0.0085035
0.0017485
0.0281485
0.0280035
0.000472
0.0288935
0.038437
0.0279685
0.0049105
0.0116455
0.0265485
0.0297285
0.020272
0.0336185
0.0311405
0.0255905
0.0078235
0.0138285
0.019312
0.026927
0.00515713
0.00257675
0.00442566
0.00443631
0.00416088
0.00305708
0.00428457
0.00330374
0.00183851
0.00314864
6.15304e-05
0.00316843
0.000242614
0.00202281
0.027028
0.00321425
0.00310791
0.00409393
0.0676926
0.00323339
0.00645261
0.00635359
0.00140806
0.00448657
0.00354427
0.00295271
0.00505302
0.00286528
0.00288812
0.00300336
0.00766682
0.00349325
0.0545793
0.00636711
0.0163721
0.0103703
0.00282112
0.00690707
0.0104503
0.00283114
0.00026985
0.00760373
0.00981601
0.00259495
0.00474612
0.00303765
0.00260896
0.00271281
0.00824884
0.0066275
0.0331232
0.00120025
0.00351418
0.0670269
0.00335009
0.0328149
0.0422637
0.00363645
0.0596336
0.00372722
0.00424804
0.00314792
0.00329041
0.00260587
0.00534245
6.21935e-05
0.00807461
0.00240777
0.00337451
0.00289288
0.00359396
0.0104541
0.0290513
0.00354508
0.00219966
0.00253317
0.0023492
0.00574113
0.00225097
0.00224615
0.0134491
0.00301321
0.00258077
0.00224853
0.0194466
0.00220646
0.00215746
0.00222109
0.00299807
0.00220562
0.00218966
0.00225764
0.0766802
0.00224274
0.00210683
0.073425
0.0069127
0.00961712
0.00243772
0.0216141
0.0326123
0.0205349
0.0390049
0.0039809
0.0034573
0.00199121
0.0696195
0.00246274
0.00987304
0.0131565
0.00177131
0.013499
0.00326911
0.00500961
0.0123087
0.00189445
0.0024767
0.00923332
0.00249757
0.00300089
0.0631117
0.0033346
0.00274106
0.00914497
0.00482138
0.00241903
0.00020924
0.00172912
0.00243464
0.00164464
0.00105759
0.0367614
0.00147858
0.0309206
0.00170435
0.00237082
0.0017021
0.001444
0.00203822
0.00154571
0.00190396
0.0142122
0.0045585
0.00192954
0.00165503
0.00301589
0.00681238
0.00741856
0.00434296
0.0149246
0.00144623
0.00191641
0.00137809
0.00138708
0.0114812
0.00127001
0.0012047
0.0178832
0.00127588
0.0012166
0.00133567
0.0014603
0.00880015
0.00124802
0.00125959
0.00328955
0.0352258
0.0419761
0.00110537
0.0538711
0.00100993
0.000979974
0.00147186
0.00108048
0.0129427
0.00114968
0.0256359
0.0120426
0.000871201
0.000924251
0.000926496
0.016635
0.000889919
0.000847064
0.00709207
0.000755181
0.000788548
0.000750007
0.000789056
0.00903379
0.00081623
0.00939732
0.000667898
0.0170934
0.0007776
0.00369304
0.00802317
0.0421142
0.000792351
0.0100231
0.000723318
0.000524091
0.0261067
0.000648178
0.000286993
0.00449573
0.139393
0.0225966
0.000606473
0.000627189
0.019557
0.100183
0.165233
0.0245922
0.0017835
0.035012
0.0388055
0.029967
0.06585
0.0034735
0.000246124
0.0376454
0.11437
0.025017
0.010272
0.0691385
0.085702
0.0121805
0.0799455
0.0228168
0.033787
0.073082
0.0736805
0.054375
0.0556935
0.0802585
0.0832785
0.056222
0.0642527
0.074972
0.04495
0.0873655
0.000371732
0.0018905
0.075197
0.0449405
0.0373605
0.0051205
0.0161155
0.0173085
0.0512485
0.0421055
7.23787e-05
0.0431705
0.0159752
0.0107635
0.0729035
0.078055
0.044337
0.04764
0.0785885
0.041165
0.0044935
0.022537
0.0226005
0.0027155
0.0583455
0.0220335
0.000264398
0.031007
0.000403993
0.06581
0.000342785
0.071505
0.0152735
0.061595
0.0436735
0.0499455
0.0854905
0.0704885
0.0320635
0.0078455
0.00738883
0.0388155
0.0730085
0.0179305
0.005422
0.0463255
0.0395505
0.0059885
0.0114505
0.0155335
0.0569935
0.0566135
0.0096605
0.0707535
0.0786655
0.042282
0.0021055
0.096342
0.0089235
0.028867
0.149613
0.0533435
0.0243235
0.010538
0.0317055
0.0385705
0.020752
0.010687
0.0195535
0.0578405
0.0199755
0.0255735
0.0476035
0.0190085
0.000246042
0.0227435
0.011912
0.000456248
0.0519535
0.0529155
0.0167605
0.052402
0.02167
0.0110355
0.041685
0.018232
0.0022805
0.000375612
0.0409699
0.0455905
0.060217
0.005575
0.038022
0.001409
0.0408835
0.0397855
0.0407885
0.0619385
0.06215
0.000287943
0.058735
0.058997
0.0348171
0.03001
0.0402235
0.067472
0.0577305
0.0027055
0.000405
0.0674855
0.0503205
0.0413485
0.0388655
0.0760705
0.000396608
0.0145205
0.0501455
0.0399955
0.0231205
0.012602
0.0441955
0.0166435
0.0565305
0.00565104
0.000360583
0.0108514
0.0694085
0.010212
0.036472
6.6e-05
0.0265585
0.1048
0.0217505
0.0605813
0.050202
0.044177
0.0304735
0.0100605
0.043312
0.039382
0.029497
0.000390974
0.0298405
0.041962
0.003657
0.045967
0.0130892
0.0692905
0.0168677
0.009667
0.0362404
0.0590105
0.0465035
0.0734005
0.0982055
0.0417755
0.0221755
0.011722
0.0370509
0.0611685
0.015915
0.000174406
0.014252
0.011247
0.0596255
0.0305555
0.0643355
0.054135
0.029717
0.0323642
0.0642685
0.0530305
0.065367
0.006973
0.02134
0.059645
0.028075
0.0264285
0.0687335
0.0626405
0.014892
0.00239
0.000373787
0.057285
0.000249642
0.0260955
0.0435685
0.045415
0.0630035
0.026127
0.025922
0.000995595
0.0570505
0.001982
0.0011835
0.0527955
0.0110735
0.0315935
0.0010085
0.0558974
0.0039185
0.027532
0.0532765
0.0283885
0.0370805
0.0344585
0.0168067
0.0485755
0.0526655
0.060942
0.0686205
0.0257008
0.0455285
0.0330055
0.0211835
0.0620955
0.0045135
0.031782
0.0392905
0.006987
0.0484755
0.0184085
0.0565855
0.004452
0.0260835
0.005452
0.0847885
0.0032905
0.067442
0.018452
0.0052335
0.0104105
0.000806847
0.000212895
0.0558685
0.0076055
0.0504235
0.0129985
0.0166385
0.043715
0.049767
0.0045105
0.0493155
0.026082
0.0247985
0.024812
0.051292
0.048962
0.017752
0.0545235
0.041822
0.0003635
0.0143685
0.016015
0.003125
0.004587
0.0522985
0.00550904
0.0593007
0.0562835
0.0038085
0.019867
0.0135885
0.0445505
0.027272
0.004007
0.0189585
0.0387185
0.013825
0.00111501
0.0541685
0.027512
0.023955
0.0337835
0.067637
0.049582
0.0016769
0.0199485
0.047835
0.0359735
0.031657
0.016576
0.0521385
0.041545
0.016997
0.01712
0.0200235
0.037157
0.0235835
0.0116105
0.017825
0.0422485
0.0384305
0.051455
0.0035635
0.00595148
0.0163356
0.0249855
0.0276035
0.029995
0.0051555
0.0401655
0.026167
0.0301555
0.038372
0.007672
0.0041285
0.0187755
0.0453135
0.0651455
0.0157
0.0163355
0.049607
0.0009835
0.027462
0.00346512
0.0094005
0.038792
0.0028635
0.060422
0.055227
0.0069335
0.031557
0.0282535
0.0393755
0.0247305
0.0121155
0.03739
0.0254705
0.006307
0.0117435
0.054427
0.0115235
0.0480435
0.0212335
0.0368055
0.051805
0.033935
0.055047
0.045927
0.020477
0.0404805
0.0098735
0.05149
0.041242
0.0507785
0.0522955
0.0195685
0.0558885
0.0461185
0.017157
0.008937
0.02607
0.0034035
0.001482
0.038052
0.046817
0.0336705
0.0486355
0.0113335
0.0528155
0.0329355
0.0507405
0.0224735
0.0054805
0.033798
0.0377055
0.012747
0.0183755
0.0014455
0.0395155
0.019502
0.026392
0.006485
0.0134955
0.0049555
0.0049085
0.037245
0.0378135
0.0379277
0.0201335
0.0533585
0.0114585
0.0506505
0.027672
0.007347
0.0474005
)


// ************************************************************************* //
