/*--------------------------------*- C++ -*----------------------------------*\
  =========                 |
  \\      /  F ield         | OpenFOAM: The Open Source CFD Toolbox
   \\    /   O peration     | Website:  https://openfoam.org
    \\  /    A nd           | Version:  7
     \\/     M anipulation  |
\*---------------------------------------------------------------------------*/
FoamFile
{
    version     2.0;
    format      ascii;
    class       vectorField;
    location    "0.7/lagrangian/reactingCloud1";
    object      U;
}
// * * * * * * * * * * * * * * * * * * * * * * * * * * * * * * * * * * * * * //


2429
(
(117.159 23.4627 0)
(134.962 9.17979 0)
(131.878 23.4353 0)
(136.865 20.008 0)
(131.662 22.8885 0)
(141.692 11.8239 0)
(144.208 23.3684 0)
(143.797 8.45303 0)
(146.438 10.2736 0)
(143.887 1.25751 0)
(147.909 7.73398 0)
(156.78 14.0608 0)
(148.974 5.49575 0)
(148.501 3.75571 0)
(149.725 5.02032 0)
(155.214 6.82117 0)
(149.319 2.55163 0)
(82.8964 -1.22987 0)
(152.686 3.56577 0)
(157.18 1.56726 0)
(150.809 1.3483 0)
(154.296 2.3334 0)
(154.605 1.76182 0)
(152.804 1.64749 0)
(154.903 0.12458 0)
(154.134 -0.101355 0)
(154.516 -0.332475 0)
(154.371 0.591299 0)
(153.73 -0.240118 0)
(153.911 0.528385 0)
(153.914 0.349318 0)
(152.855 0.437126 0)
(153.621 0.325548 0)
(153.007 0.334764 0)
(153.381 0.317453 0)
(153.473 0.191895 0)
(153.088 0.144894 0)
(153.244 0.229719 0)
(153.448 -0.104514 0)
(153.381 0.0171581 0)
(153.36 -0.0332992 0)
(123.053 -0.251216 0)
(135.459 -0.369951 0)
(43.3242 -10.8989 0)
(97.7912 -28.5496 0)
(133.091 -35.4968 0)
(77.0393 -20.7179 0)
(90.072 -19.7832 0)
(110.416 -31.356 0)
(39.8751 2.21261 0)
(132.049 -24.8912 0)
(129.561 -23.8061 0)
(140.061 -17.342 0)
(135.913 -17.4703 0)
(110.754 -31.0681 0)
(115.857 -20.5485 0)
(114.748 -19.6085 0)
(108.896 -17.5778 0)
(126.437 -13.8421 0)
(113.021 -15.0393 0)
(135.148 -2.78707 0)
(127.9 -8.45298 0)
(117.968 -12.1384 0)
(115.797 -11.6439 0)
(110.852 -11.2542 0)
(101.196 -9.18518 0)
(114.116 -9.20952 0)
(105.664 -8.40474 0)
(109.855 -7.89785 0)
(120.944 -4.27203 0)
(118.271 -5.01948 0)
(116.616 -4.85949 0)
(121.363 -0.804808 0)
(117.369 -3.49741 0)
(117.507 -3.01038 0)
(108.171 -1.732 0)
(118.849 -1.92665 0)
(115.645 -2.04154 0)
(107.238 0.188578 0)
(112.255 -0.912927 0)
(108.829 0.945012 0)
(115.614 -0.424822 0)
(107.064 2.52508 0)
(117.189 -0.168603 0)
(105.124 3.32427 0)
(99.3198 4.4675 0)
(114.47 2.05018 0)
(106.068 4.64641 0)
(117.996 1.25231 0)
(113.643 3.92581 0)
(118.352 2.51834 0)
(107.916 5.32704 0)
(117.059 4.33789 0)
(116.482 5.26517 0)
(112.846 6.85823 0)
(113.286 7.40061 0)
(119.982 5.71448 0)
(118.133 7.64875 0)
(122.423 5.71355 0)
(95.5606 10.3742 0)
(113.091 11.2896 0)
(122.209 9.59693 0)
(121.746 12.9237 0)
(127.945 4.3457 0)
(123.564 13.2909 0)
(121.784 16.3971 0)
(131.651 6.41577 0)
(128.965 15.139 0)
(130.335 16.3279 0)
(317.372 -16.4351 0)
(302.873 -24.9765 0)
(278.165 -17.9678 0)
(253.127 -59.3348 0)
(257.058 -37.7467 0)
(239.377 -44.9252 0)
(254.096 -28.1368 0)
(239.815 -30.793 0)
(196.372 -50.1537 0)
(203.716 -48.5375 0)
(202.736 -33.3929 0)
(196.437 -39.5371 0)
(158.575 -46.9986 0)
(164.138 -42.3101 0)
(178.824 -24.8852 0)
(164.757 -36.167 0)
(166.54 -24.5797 0)
(145.436 -36.6524 0)
(168.044 -7.11332 0)
(157.371 -23.139 0)
(143.528 -30.7277 0)
(394.418 -2.71586 0)
(403.342 -0.343582 0)
(317.198 -12.1268 0)
(395.735 -2.46837 0)
(383.4 -3.70709 0)
(378.895 -1.68938 0)
(363.236 -9.04002 0)
(355.986 -11.6779 0)
(369.122 -6.17007 0)
(360.062 -4.76481 0)
(361.533 -4.88189 0)
(338.792 -4.88132 0)
(322.549 -9.15374 0)
(438.453 0.83257 0)
(440.29 -1.1953 0)
(436.65 1.76367 0)
(438.062 0.830346 0)
(436.241 2.07308 0)
(429.943 -8.4016 0)
(433.906 -8.43062 0)
(433.324 0.6869 0)
(432.83 1.63683 0)
(433.397 3.1853 0)
(416.847 5.18225 0)
(413.739 -3.89467 0)
(421.383 -0.738455 0)
(419.503 0.221758 0)
(417.623 5.61459 0)
(413.784 -0.220919 0)
(443.484 0.127023 0)
(442.628 -0.0528472 0)
(441.123 -3.01659 0)
(414.338 1.35838 0)
(415.927 6.68013 0)
(444.507 -6.27359 0)
(440.345 1.02907 0)
(441.698 0.0206925 0)
(420.874 -8.69644 0)
(443.711 1.97646 0)
(403.657 4.1053 0)
(440.587 1.89834 0)
(440.832 0.212653 0)
(440.444 0.307126 0)
(440.287 1.53264 0)
(376.049 6.53735 0)
(439.135 -10.5386 0)
(437.19 3.0375 0)
(446.683 5.11754 1.66279)
(445.681 -0.011818 0)
(445.698 0.05607 0)
(451.252 -4.48903 0)
(445.791 0.0391255 0)
(391.898 -8.39058 0)
(445.4 0.0515016 0)
(429.156 -0.81754 0)
(445.806 0.0179444 0)
(443.845 -1.10865 0)
(420.206 -9.07965 0)
(442.668 1.16209 0)
(397.235 11.3393 0)
(454.081 -15.2172 0)
(444.748 0.0405394 0)
(445.073 0.0176568 0)
(396.21 -0.611756 0)
(442.915 0.481962 0)
(441.278 -1.9717 0)
(444.818 0.00858696 0)
(425.371 -0.417469 0)
(443.814 -0.0075421 0)
(443.584 4.60366 0)
(429.336 -5.2391 0)
(405.176 -3.84153 0)
(442.932 -0.0588085 0)
(442.636 0.61992 0)
(442.966 -0.0528266 0)
(398.894 3.10568 0)
(436.924 -6.92738 0)
(396.589 6.20135 0)
(385.322 1.82305 0)
(394.449 1.12682 0)
(439.389 1.95655 0)
(434.228 -1.23016 0)
(447.521 0.00485795 0)
(447.778 -1.51681 0)
(424.267 -12.4072 0)
(450.523 -5.03583 0)
(425.664 -1.24967 0)
(447.034 0.0134936 0)
(372.716 8.90053 0)
(445.606 3.56305 0)
(447.044 0.0141055 0)
(437.039 -10.7374 0)
(359.918 19.7487 0)
(434.549 -0.455515 0)
(425.755 7.30197 0)
(447.006 0.0155535 0)
(389.787 2.16059 0)
(447.332 0.00585882 0)
(424.031 -0.860301 0)
(446.931 0.0180284 0)
(406.669 -2.04858 0)
(411.685 1.86632 0)
(446.568 -2.99747 0)
(444.235 0.205544 0)
(446.769 0.0236085 0)
(446.894 0.0190877 0)
(442.272 0.0146353 0)
(442.784 -0.0635428 0)
(446.415 0.0376945 0)
(431.61 0.0590806 0)
(447.265 1.54294 0)
(436.123 -10.0062 0)
(444.222 2.49631 0)
(446.162 0.0490444 0)
(446.187 0.0445061 0)
(410.167 5.67519 0)
(444.332 -0.544978 0)
(447.973 -1.7446 0)
(445.227 -0.59606 0)
(453.52 -7.62717 0)
(444.137 -0.803974 0)
(444.746 2.47176 2.30495)
(447.647 -0.0337056 0.00176644)
(448.067 0.0604315 0.067116)
(446.815 -0.4473 -0.00780765)
(454.842 -4.80899 0)
(356.433 0.924569 0)
(377.337 7.24156 0)
(404.219 2.40244 0)
(395.131 20.4454 0)
(440.992 -15.0207 0)
(446.466 -1.84818 0)
(442.995 0.193725 0)
(403.729 -0.613287 0)
(423.558 1.03764 0)
(448.01 0.0019307 0)
(447.483 -6.15282 0)
(381.904 3.24433 0)
(442.851 -3.92467 0)
(332.596 4.87463 0)
(436.211 2.07689 0)
(436.367 -0.828356 0)
(447.98 0.00217376 0)
(428.406 -5.13631 0)
(448.017 0.00142088 0)
(437.156 1.05078 0)
(460.01 -34.5023 0)
(393.619 0.0904976 0)
(412.803 6.40939 0)
(447.833 0.00386764 0)
(424.308 -0.0435025 0)
(424.446 2.09199 0)
(413.876 -10.2036 0)
(436.857 -0.421301 0)
(443.924 -0.0874008 0)
(345.347 2.87015 0)
(447.851 0.00357144 0)
(447.555 0.00644018 0)
(430.964 0.400682 0)
(442.232 -3.49662 0)
(433.758 -5.23928 0)
(447.248 -6.02425 0)
(415.553 2.49424 0)
(423.643 2.56286 0)
(417.911 1.23151 0)
(446.407 0.317579 0)
(423.595 -0.295815 0)
(447.578 0.00520628 0)
(442.135 -4.07642 0)
(415.406 0.571638 0)
(448.768 3.64486 0)
(409.057 14.0559 0)
(407.66 -9.86062 0)
(448.973 -1.18269 0)
(384.328 2.09118 0)
(413.762 -4.00722 0)
(379.905 -5.19726 0)
(430.014 0.171603 0)
(447.46 0.00680532 0)
(447.259 0.17092 0)
(438.835 -15.2545 0)
(447.277 0.00911508 0)
(448.287 -5.04643 0)
(398.679 2.12275 0)
(447.39 0.00798768 0)
(446.938 -1.14563 0.0199971)
(447.082 0.364873 1.27246)
(447.546 -2.42414 -0.0423134)
(450.925 -4.3105 0.07524)
(445.6 1.38101 1.58867)
(447.916 0.0296279 0.2413)
(449.005 -0.205669 0.128516)
(445.902 -0.637623 0.0111297)
(447.587 -0.934473 -0.0163113)
(449.846 -0.442302 -0.736115)
(448.101 0.0639097 0.131034)
(446.37 -1.04235 -0.0181942)
(344.035 7.47361 0)
(397.768 0.392185 0)
(380.052 -0.338254 0)
(400.709 3.03673 0)
(446.46 6.21749 0)
(420.041 0.0796657 0)
(448.506 -1.80078 0)
(442.759 0.21364 0)
(401.154 -1.36669 0)
(393.948 1.48723 0)
(448.118 0.00760372 0)
(407.686 -14.9898 0)
(445.053 -5.92124 0)
(403.565 -5.90838 0)
(399.986 6.87906 0)
(413.637 -3.04997 0)
(355.974 3.36858 0)
(448.055 0.281642 0)
(418.842 3.16921 0)
(447.238 0.516152 0)
(380.521 10.3328 0)
(391.91 -0.69142 0)
(441.345 -7.2395 0)
(448.315 2.21702 0)
(410.471 1.73871 0)
(445.81 -1.13984 0)
(440.042 -8.08795 0)
(430.455 3.55905 0)
(445.121 3.07952 0)
(442.349 -1.75236 0)
(406.156 -3.9173 0)
(422.409 4.93259 0)
(442.268 -13.275 0)
(427.447 -3.00974 0)
(387.931 -6.88123 0)
(446.453 1.58591 0)
(435.846 -0.243802 0)
(428.813 -0.917273 0)
(438.847 2.60123 0)
(412.577 0.407009 0)
(396.421 7.16183 0)
(452.058 -3.30752 0)
(427.104 0.0802185 0)
(447.392 -9.67704 0)
(447.667 2.75164 0)
(420.315 3.36228 0)
(469.006 -11.6345 0)
(433.488 -0.725104 0)
(447.359 -1.33044 0)
(447.292 -0.592679 0)
(439.758 -2.2161 0)
(385.113 14.9086 0)
(417.718 0.534123 0)
(450.016 0.0665132 0)
(437.257 0.19721 0)
(450.966 -2.81358 0)
(414.994 -0.0938464 0)
(404.752 -4.45088 0)
(445.664 -2.08552 0)
(393.45 12.6975 0)
(448.034 0.00111102 0)
(425.838 1.57971 0)
(446.594 0.439276 0)
(405.503 -0.527871 0)
(399.624 -2.73128 0)
(409.823 -2.37514 0)
(410.247 -0.634779 0)
(392.974 1.513 0)
(447.232 1.52594 0)
(448.017 0.00179627 0)
(421.579 4.77267 0)
(421.058 -1.99082 0)
(422.194 0.62956 0)
(447.946 0.00266337 0)
(446.324 0.980683 -2.10308)
(448.61 0.718833 -3.11361)
(447.784 -0.203537 0.280145)
(447.98 0.0796869 -0.014051)
(442.95 -1.52916 -0.0266916)
(452.543 1.1171 -2.50904)
(447.374 -0.368741 0.868699)
(448.528 -1.65566 0.0288996)
(447.974 0.956408 2.94051e-10)
(451.714 -0.891933 0.0155687)
(455.171 -2.09771 -0.0366157)
(450.808 -1.29031 0.0225224)
(451.449 -1.15308 -0.0201271)
(448.079 -1.14004 -0.0198995)
(440.983 -3.8865 -0.0678392)
(448.076 -0.0326532 -0.000569964)
(447.996 -2.69753 -0.573378)
(447.852 -0.0719755 0.235421)
(446.66 -1.06341 1.99998)
(447.671 -1.00452 0.017534)
(446.103 -2.62597 -0.0458365)
(450.735 -2.35257 0.0410643)
(446.056 -0.74149 1.02057)
(449.765 -1.14063 -1.62899)
(445.891 -0.574369 0.0100256)
(445.471 0.842187 -1.80608)
(447.834 0.151518 -0.1022)
(447.203 -2.23241 -0.0389669)
(449.672 -0.893155 0.0155901)
(448.668 -0.326406 -0.0693796)
(450.72 1.67947 1.17598)
(447.295 -0.268096 -0.250004)
(448.034 -0.0666538 -0.00116345)
(445.956 -1.09662 0.826363)
(450.332 -0.180253 -0.267237)
(345.235 -9.20306 0)
(370.388 1.28534 0)
(390.84 -1.30446 0)
(334.054 2.14331 0)
(395.295 -1.36644 0)
(427.73 -2.46342 0)
(328.367 0.956084 0)
(380.553 -4.04188 0)
(400.403 0.0198876 0)
(408.639 9.72163 0)
(365.553 10.2666 0)
(328.215 17.1431 0)
(408.147 -10.1034 0)
(427.916 -2.13784 0)
(425.616 2.70482 0)
(388.445 -2.08394 0)
(374.904 3.07275 0)
(347.833 7.69345 0)
(395.724 -0.456425 0)
(424.993 -3.82802 0)
(382.894 -21.4906 0)
(440.354 -0.522943 0)
(298.097 2.16325 0)
(412.444 3.17878 0)
(382.991 0.260879 0)
(448.174 -1.17857e-10 2.8226)
(416.457 1.32818 0)
(423.733 1.97938 0)
(398.869 -8.87569 0)
(446.153 -4.5111 0)
(445.266 -10.3312 0)
(284.792 -0.40353 0)
(361.394 1.43795 0)
(449.939 2.63436 0)
(393.361 0.240948 0)
(405.234 -2.61941 0)
(359.685 6.77198 0)
(393.056 0.37704 0)
(413.558 2.82558 0)
(378.06 6.76725 0)
(444.562 -3.03507 0)
(414.962 -0.919594 0)
(417.063 0.105843 0)
(443.29 -1.49659 0)
(442.969 -4.2077 0)
(444.551 2.63918 0)
(385.679 4.8855 0)
(386.803 0.4209 0)
(420.077 -0.66213 0)
(440.484 -1.24476 0)
(421.815 0.954504 0)
(409.671 23.1699 0)
(422.366 -1.99122 0)
(374.969 5.25745 0)
(449.175 -0.339858 0)
(380.401 7.17689 0)
(434.601 -0.399262 0)
(431.518 -2.32179 0)
(418.806 -1.84667 0)
(402.286 5.62512 0)
(436.646 -2.04885 0)
(450.787 -0.455835 0)
(399.621 -2.63467 0)
(379.513 -0.564265 0)
(410.337 -0.813906 0)
(424.349 -1.84857 0)
(390.342 0.353577 0)
(347.715 -0.028625 0)
(348.627 13.2579 0)
(420.685 1.24485 0)
(421.913 -0.507678 0)
(434.061 7.83175 0)
(453.261 0.439406 0)
(378.044 1.9562 0)
(447.372 2.11991 0)
(426.097 1.74138 0)
(404.905 -1.89689 0)
(407.429 0.0350556 0)
(446.313 -0.0238819 0)
(440.777 -2.34729 0.0409721)
(445.322 5.78745 2.57674)
(427.323 -1.08668 0.0189681)
(444.878 -0.954225 -0.0166561)
(417.127 -6.68171 -0.11663)
(411.636 -4.9365 -0.0861669)
(415.399 -7.32377 0.127837)
(446.82 0.0275016 -0.129385)
(439.907 -0.571918 -0.00998287)
(421.937 -2.30171 4.93603)
(446.286 0.658184 -1.0954)
(420.527 -1.51443 -0.0264344)
(409.165 -2.36569 0.0412932)
(435.893 -2.31581 0.0404226)
(434.362 -2.67152 0.0466316)
(409.696 0.232005 0.0450972)
(448.71 -4.13746 -0.0722196)
(440.585 -2.91885 -5.72856)
(435.627 -2.40683 -0.0420113)
(446.124 0.96874 -0.314763)
(445.544 -0.566338 0.00988547)
(447.38 -1.35364 -0.0236278)
(426.521 -0.0169623 0.0217107)
(407.333 -2.33251 -0.0407142)
(419.932 -2.31091 -0.750861)
(438.622 -1.69949 -0.0296648)
(420.614 -4.49686 0.078493)
(412.915 -13.2731 -0.231683)
(449.247 -6.05325 0.10566)
(448.964 -0.495073 -0.00864154)
(405.343 -3.76471 3.38976)
(423.868 -2.41256 0.0421114)
(416.642 -11.4021 0.199024)
(440.658 -2.34774 -0.04098)
(447.872 -3.40028 -0.0593521)
(445.697 0.600552 0.54074)
(415.998 -7.87712 -0.137496)
(444.303 -0.00486065 0.278467)
(446.581 0.36983 -0.0786098)
(406.994 -3.81628 -3.43619)
(448.568 1.66981e-10 -4.541)
(446.206 -0.326793 -0.188674)
(443.251 -1.72624 -0.181435)
(411.777 -0.176096 -0.00307376)
(399.87 -0.302192 17.3126)
(439.145 2.48926e-11 -0.314446)
(446.939 -0.65081 0.0113599)
(408.054 -19.4789 0.340005)
(448.018 -1.1111 -0.0193943)
(402.477 -1.77853 -0.0310444)
(447.894 -0.25118 0.00438436)
(440.216 -0.032934 -1.88679)
(421.34 -4.33711 0.0757045)
(425.608 -7.06558 0.12333)
(415.435 2.79265 1.95544)
(441.661 -1.29868 0.0226685)
(437.442 -2.00542 0.0350048)
(411.994 -1.04644 -0.0182656)
(431.118 -0.200238 0.942047)
(430.629 -1.59152 -0.0277801)
(422.654 -16.6284 -0.290249)
(447.022 -0.225736 0.00394024)
(445.555 -0.723889 -0.0126355)
(451.829 1.69089 3.62612)
(429.944 -2.00016 0.034913)
(446.335 -1.50814 -0.0263248)
(446.682 -0.59547 0.010394)
(409.8 -15.7888 -0.275594)
(447.778 0.374288 0.0727543)
(422.086 -9.43897 -0.164758)
(450.533 0.0102791 -0.0210753)
(439.539 0.00220337 0.126231)
(446.35 -0.250123 0.00436592)
(432.814 -16.0676 0.280461)
(447.666 -0.972847 0.0169811)
(416.031 -2.58705 1.31817)
(427.173 -2.28275 -0.0398455)
(430.685 -14.7774 -0.25794)
(448.957 -0.275197 0.378777)
(424.264 -0.869816 -0.0151827)
(299.674 16.363 0)
(330.92 -3.11092 0)
(321.339 -1.13269 0)
(347.38 -1.78213 0)
(312.757 8.28553 0)
(346.36 -0.583404 0)
(348.893 13.2287 0)
(274.337 7.09973 0)
(385.891 -0.251259 0)
(447.014 -0.448966 -0.00783673)
(391.158 -28.3743 0)
(378.552 -7.5196 0)
(348.838 7.29182 0)
(390.776 -16.1231 0)
(379.276 7.48913 0)
(384.615 5.14056 0)
(381.162 4.01538 0)
(358.134 23.1479 0)
(387.099 -0.285861 0)
(455.46 0.096553 0.418217)
(400.541 1.93653 0)
(374.777 1.38344 0)
(414.175 -7.23326 0.126257)
(396.223 -4.57802 0)
(361.803 -17.0728 0)
(360.16 0.813014 0)
(412.478 -6.62645 0)
(412.683 0.548339 0)
(379.953 0.753892 0)
(381.304 -1.47014 0)
(403.703 -0.531569 0)
(414.597 -4.26186 0)
(329.772 12.8871 0)
(358.5 1.12379 0)
(394.328 17.8891 0)
(340.456 10.2512 0)
(404.611 -5.78578 0)
(381.916 -0.472969 0)
(373.975 0.795788 0)
(382.22 -16.8066 0)
(357.68 0.99158 0)
(322.851 -3.34131 0)
(377.167 5.39559 0)
(383.585 -2.1561 0)
(386.18 -0.541834 0)
(400.038 0.63371 0)
(410.816 2.32455 0)
(411.672 -6.67838 0)
(378.67 -8.02352 0)
(366.391 5.1801 0)
(383.133 -0.236949 0)
(404.782 -1.73417 0)
(377.21 -22.8563 0)
(394.684 -0.308199 0)
(261.514 3.65681 0)
(361.512 5.5366 0)
(389.924 5.44147 0)
(333.707 0.668104 0)
(352.07 2.47289 0)
(395.188 -5.5001 0)
(423.517 -5.10971 0)
(407.035 -24.4971 0)
(391.642 4.84099 0)
(437.746 1.62179 0)
(404.34 0.958528 0)
(427.258 -0.349842 0)
(362.698 1.88742 0)
(372.063 1.62226 0)
(428.886 -1.13961 0)
(450.507 1.31449 8.47817e-11)
(375.836 -0.936382 0)
(323.171 0.745801 0)
(383.735 -7.44256 0)
(374.964 15.8431 0)
(366.079 12.9143 0)
(325.422 25.5316 0)
(379.487 5.21919 0)
(371.994 6.96317 0)
(373.108 -0.324956 0)
(368.806 11.784 0)
(389.374 4.99362 0)
(425.365 -1.67159 0)
(323.408 11.1401 0)
(374.361 5.82007 0)
(342.084 1.06857 0)
(402.011 1.25096 0)
(388.228 1.73142 0)
(411.265 2.06367 0)
(378.425 11.2571 0)
(418.77 -10.6778 0)
(409.85 0.0745038 0)
(379.325 29.2718 0)
(381.27 1.46957 0)
(430.289 1.67349 0)
(358.351 1.57033 0)
(407.946 -6.00374 0)
(445.908 1.92767 0)
(436.889 4.91442 0)
(430.003 -0.0145865 0)
(376.406 0.0649227 0)
(438.68 -5.34783 0)
(365.401 -0.519401 0)
(328.385 16.4634 0)
(332.073 -0.190686 0)
(374.914 16.914 0)
(379.816 1.87433 0)
(406.059 -0.256376 0)
(420.841 -1.00442 0)
(395.209 -3.55305 0)
(394.922 -5.23681 0)
(414.353 -2.64398 0)
(384.242 -2.54651 0)
(436.467 1.67456 0)
(406.412 -0.141772 0)
(390.424 -2.57329 0)
(388.79 -13.708 0)
(396.186 7.0611 0)
(423.746 -5.28333 0)
(324.878 2.52081 0)
(424.654 -12.5368 0)
(425.202 0.20505 0)
(412.842 -0.724366 0)
(384.497 -3.08229 0)
(391.44 13.7383 0)
(437.193 -0.700201 0)
(445.859 -8.48663 0)
(396.114 10.0895 0)
(418.517 -7.0084 0)
(393.969 -0.853354 0)
(421.146 -2.12763 0)
(405.757 3.13183 0)
(387.336 -7.8021 2.68648)
(379.424 -6.30988 0.110139)
(375.712 0.0163056 -0.0334313)
(366.811 -0.296303 -0.969165)
(375.852 -5.81687 -5.23753)
(383.289 -1.4473 1.30316)
(372.691 -2.75612 -0.0481083)
(366.823 -5.33264 -0.0930815)
(363.615 -6.98924 2.40659)
(362.342 0.130241 -0.564134)
(389.204 -9.20483 0.160671)
(384.584 -2.57482 -0.0449436)
(388.138 -3.80918 0.0664895)
(378.91 -1.43546 0.025056)
(341.071 -1.14071 -0.0199112)
(396.976 -8.91708 0.155648)
(375.691 0.105963 -0.0205971)
(383.812 -1.68076 0.0293377)
(375.367 -3.60252 0.0628823)
(391.414 -4.51465 0.0788035)
(394.028 -8.6473 0.150939)
(370.924 -0.457259 -0.00798148)
(382.853 0.0017386 -0.0996044)
(375.155 -1.63392 5.69816)
(350.264 -11.0969 0.193697)
(375.058 -0.515712 -0.00900178)
(371.965 -2.74566 0.999339)
(376.748 -3.22453 0.0562844)
(381.886 -5.57065 -0.0972361)
(400.921 -7.63116 0.133202)
(368.564 -0.703801 -0.0122849)
(367.823 -3.45541 -0.0603145)
(363.893 -0.120283 0.682161)
(366.942 1.44518 0)
(381.068 -3.16649 -2.75259)
(370.889 -4.91708 0.0858279)
(363.97 -0.324168 1.30017)
(391.227 -11.8225 0.206362)
(356.124 -5.37291 0.0937846)
(407.528 -6.25061 -0.109105)
(396.58 -1.33873 0.0233677)
(358.777 -6.59441 -0.115106)
(344.01 -4.84994 0.084656)
(399.264 9.1993 -1.95537)
(400.205 -8.61256 0.150333)
(360.064 -2.21895 -0.0387319)
(400.154 -2.13505 -0.0372674)
(366.375 -3.409 0.0595043)
(341.082 -9.23033 -0.161116)
(362.819 -4.4948 -5.55062)
(353.555 -3.17843 -0.0554798)
(356.646 -3.27059 -6.41889)
(392.989 -8.04526 0.14043)
(381.974 -0.0334792 -0.000584382)
(366.262 -9.14918 0.1597)
(399.319 -4.60882 -0.0804473)
(374.972 0.888876 -0.82889)
(372.305 -7.34002 0.128121)
(365.446 -4.49659 -0.0784882)
(363.33 1.32461 5.73752)
(354.765 -1.17655 -2.30912)
(369.689 -3.69628 0.0645188)
(395.209 -9.27527 0.161901)
(387.299 -8.3114 0.145076)
(377.183 1.30852 -2.68286)
(376.815 -8.83801 1.3998)
(372.478 -1.19343 -0.0208313)
(399.995 -5.14114 -2.61954)
(383.884 -7.72288 0.134803)
(353.717 -1.16338 -0.0203069)
(382.629 -2.9814 0.0520405)
(396.21 2.10372 -0.936639)
(384.931 -5.44405 0.0950262)
(386.544 -9.37102 0.163572)
(384.712 -0.99061 0.831221)
(372.232 -0.0225472 -0.000393563)
(383.502 -6.67332 0.116483)
(379.029 -11.6919 -0.204084)
(386.491 -4.71167 -0.0822425)
(381.093 -2.17434 0.0379532)
(378.407 -8.12065 0.141747)
(316.022 -7.58604 -0.132415)
(364.465 -1.75809 -0.0306876)
(382.589 -7.78949 0.135966)
(381.524 -13.3169 -0.232447)
(357.97 -4.34819 0.0758979)
(384.396 -16.9587 -0.296014)
(369.955 -14.4181 0.251669)
(365.327 -28.7526 0.501878)
(375.667 0.376167 1.62936)
(360.982 -1.98863 -0.0347117)
(393.607 1.5254 3.27123)
(364.229 -0.0179021 1.02561)
(366.053 -10.8677 0.189696)
(415.775 4.99794 -0.971501)
(376.613 0.187831 -0.312603)
(379.485 -2.95654 4.06932)
(370.993 -8.69868 0.151836)
(377.394 0.0960439 -0.416012)
(367.813 5.75925 1.11949)
(384.622 -2.86287 -0.0499717)
(376.66 2.06624 -8.28725)
(345.247 -13.227 0.230879)
(354.557 0.0830542 4.75817)
(385.958 -7.48471e-10 -6.26047)
(411.7 -18.6688 -0.325865)
(376.049 -4.6083 -0.0804381)
(349.356 -19.4804 0.340032)
(359.407 -0.188396 -0.657014)
(390.818 -7.12743 0.12441)
(394.311 -2.41901 -0.0422239)
(400.369 -0.308071 17.6494)
(374.926 -1.56517 -0.832214)
(399.295 -2.76234 0.0482169)
(358.211 -4.11776 0.0718758)
(392.551 -0.130428 -7.47219)
(367.491 7.12702 -15.284)
(390.534 -2.30062 0.0401575)
(396.492 -1.21935 -5.73659)
(361.645 -2.3898 -4.89982)
(385.576 -2.10989 -0.0368283)
(372.993 -0.768669 1.5086)
(359.889 -0.108061 -6.1908)
(345.378 -0.535208 15.3263)
(375.598 3.7975 0.73816)
(380.143 -8.54396 5.76298)
(407.427 -3.50135 0.617383)
(380.779 -0.12221 -7.0014)
(401.348 -0.0125857 -0.360408)
(384.939 -5.96461 -0.104113)
(386.689 -1.35498 -0.0236513)
(359.162 -0.0375526 1.07537)
(377.294 -2.53263 -2.12513)
(359.795 -1.04787 0.0182906)
(379.426 -4.25456 -0.0742637)
(404.51 -1.17589 0.0205252)
(370.709 -4.39583 -0.0767295)
(400.997 2.42629 -1.69891)
(402.604 -13.1779 0.23002)
(361.758 -0.788048 0.0137554)
(358.72 -10.1114 -0.176494)
(370.978 -45.2075 0.7891)
(369.05 -0.307824 0.0053731)
(408.194 -3.64967 3.28618)
(378.522 0.853395 0)
(395.493 -17.7177 0.309263)
(369.743 -5.96279 0.104081)
(370.809 -1.08165 0.37244)
(386.935 -0.826795 -2.54461)
(396.996 0.803177 -0.0420927)
(388.396 -3.10768 -0.0542447)
(374.915 0.524738 -2.27289)
(390.079 -9.1648 8.54632)
(397.378 -18.9958 -0.331573)
(378.626 -12.541 -0.218903)
(388.427 -7.7353 -6.96489)
(376.752 -0.0711525 -0.265545)
(378.219 -5.11717 0.0893206)
(390.379 -5.21806 0.0910816)
(400.942 -3.54605 -0.0618966)
(396.08 -25.9046 21.7366)
(366.169 -15.3729 0.268336)
(385.597 1.16031 0.516601)
(351.763 -0.257509 -0.00449483)
(362.709 -14.6698 -0.256062)
(390.179 -11.4341 0.199583)
(388.646 0.00540366 -0.0277994)
(405.448 -0.185856 0.221495)
(385.52 -1.80661 -0.0315345)
(405.374 -3.74478 0.0653654)
(374.325 -14.0302 0.244898)
(373.976 -1.09401 0.951005)
(386.917 -0.902477 0.0157528)
(382.798 11.2234 -2.59112)
(367.667 -1.18479 4.4217)
(373.321 -1.68077 -0.0293379)
(378.976 -6.3623 -0.111054)
(365.038 7.37473 -15.8152)
(365.486 -0.0518006 -2.96765)
(345.003 -9.52714 -0.166297)
(411.251 10.6368 -2.06758)
(385.737 -2.34932 0.0410075)
(375.885 -5.78766 -0.101024)
(378.141 -1.31948 -0.0230315)
(383.308 1.84675 -3.96036)
(367.056 -29.1748 -0.509249)
(390.202 -2.90504 0.0507076)
(406.311 -14.5723 -0.25436)
(405.658 -2.96707 10.3474)
(359.707 0.630553 1.35223)
(366.001 -7.25164 -0.126578)
(390.4 -0.949382 0.0165715)
(376.16 -4.3474 -3.91442)
(376.906 -2.21672 0.038693)
(360.91 -9.3475 -0.163161)
(228.071 17.9683 0)
(414.716 18.4338 -8.20728)
(361.022 -31.6549 0.552539)
(293.187 -2.92623 0)
(316.787 4.44739 0)
(299.763 0.368282 0)
(332.208 13.3193 0)
(333.082 8.66124 0)
(292.733 -9.74358 0)
(338.906 1.97486 0)
(358.193 -11.9821 0)
(344.528 -2.60917 0)
(291.178 1.62959 0)
(381.975 -13.9002 -0.242629)
(348.766 1.37991 0)
(356.015 0.660658 0)
(314.197 7.28128 0)
(325.55 20.7753 0)
(357.143 -1.62996 0)
(346.229 14.728 0)
(345.553 -0.279362 0)
(367.963 -8.03659 0)
(331.301 6.40867 0)
(349.685 17.1284 0)
(275.111 -16.3966 0)
(360.553 -2.32079 0)
(347.073 1.13316 0)
(358.128 0.533793 0)
(378.355 -0.776819 0)
(340.19 2.70486 0)
(358.072 1.30052 0)
(365.782 -4.83568 0)
(369.393 1.05816 0)
(352.156 9.80332 0)
(359.446 1.98681 0)
(356.682 15.965 0)
(371.885 0.349293 0)
(367.973 -3.51474 -0.06135)
(390.324 -8.62696 0.150584)
(334.569 -1.11656 0)
(345.164 -1.21945 0)
(362.968 2.2095 0)
(353.169 -0.277377 0)
(257.395 21.7505 0)
(348.688 -2.14903 0)
(353.714 -0.41281 0)
(406.073 0.0872975 0.25353)
(362.807 -0.0183264 0)
(350.345 2.71033 0)
(408.968 -0.407006 0.00710431)
(343.268 -4.47957 0)
(349.186 -5.50573 0)
(348.504 -2.34457 0)
(355.877 28.7972 0)
(351.57 3.05087 0)
(353.948 10.9163 0)
(354.461 -29.9131 0)
(260.495 19.0351 0)
(343.272 -3.20235 0)
(366.203 5.20062 0)
(336.742 5.44289 0)
(382.111 -14.4712 0)
(369.323 -0.412167 0)
(321.428 9.57166 0)
(326.783 17.5071 0)
(395.481 -6.95732 -9.57593)
(348.282 3.05607 0)
(363.535 23.7666 0)
(382.638 -5.09937 0)
(367.214 -3.56157 0)
(352.332 5.78563 0)
(365.344 -13.6233 0)
(366.941 -1.89043 0)
(357.859 12.8427 0)
(327.808 17.8855 0)
(369.88 0.278 0)
(371.645 0.573559 0)
(375.238 -3.95982 0)
(384.117 -1.18812 -0.0207387)
(371.28 -1.28851 0)
(369.705 3.04254 0)
(357.46 0.60896 0)
(331.811 16.5529 0)
(353.636 -0.684671 0)
(364.505 0.619574 0)
(353.956 -2.06663 0)
(381.924 -4.07342 0)
(364.171 10.5832 0)
(393.419 3.9711 0)
(371.517 1.76433 0)
(381.279 0.684796 0)
(340.193 9.50242 0)
(362.005 -0.0819687 0)
(391.086 2.82971 0)
(385.133 0.331516 0)
(369.038 -0.1909 0)
(360.844 -8.42693 0)
(364.327 7.25237 0)
(371.483 6.62004 0)
(381.047 9.33405 0)
(301.148 13.3929 0)
(362.365 2.88859 0)
(377.506 3.42881 0)
(305.652 11.5277 0)
(388.099 -1.70247 0)
(382.684 -0.0558901 0)
(359.405 19.495 0)
(391.899 3.59462 0)
(378.64 -1.30322 0)
(363.025 -0.699093 0)
(396.135 2.13502 0)
(381.43 1.81628 0)
(374.852 5.63372 0)
(386.192 6.70887 0)
(381.206 -3.11616 0)
(389.765 -7.17006 0)
(354.236 -2.29981 0)
(363.32 7.07261 0)
(335.037 -0.776794 0)
(368.227 6.13529 0)
(386.899 -6.15498 0)
(360.416 11.9999 0)
(381.231 -0.844267 0)
(366.34 8.8049 0)
(378.495 12.3897 0)
(382.845 1.82282 0)
(375.093 -32.9968 0)
(386.64 -0.315579 0)
(398.047 2.5101 0)
(376.81 4.72309 0)
(387.908 -5.53208 0)
(328.601 -1.55139 0)
(385.73 -4.27079 0)
(335.012 4.36328 0)
(403.143 -1.38987 0)
(370.238 4.41723 0)
(363.385 6.73503 0)
(344.145 18.8205 0)
(357.011 5.83035 0)
(370.398 -10.3456 0)
(405.813 -0.118213 0)
(382.839 -11.133 0)
(408.409 -0.289044 0)
(311.555 1.21369 0)
(392.441 -2.24998 0)
(371.337 -0.810052 0)
(373.576 11.4872 0)
(383.741 3.92838 0)
(371.307 -2.87274 0)
(316.83 -10.4846 -0.183009)
(345.206 -6.98544 0.121931)
(341.891 -1.86193 0.0325)
(351.815 2.1801 -1.96297)
(336.962 -1.65618 -0.0289087)
(340.168 -0.887475 -0.0154909)
(335.997 -0.957493 0.0167131)
(348.606 0.66809 -2.89382)
(357.573 -10.5536 2.24324)
(326.029 -7.59306 -0.132537)
(330.161 -5.98881 -0.104535)
(341.05 2.15127 9.31817)
(324.877 -13.8626 -0.241973)
(343.475 -3.48617 -0.0608513)
(337.858 -8.79946 0.153595)
(345.504 0.200985 -0.334496)
(322.65 -19.2112 -0.335333)
(358.635 3.81689 3.43675)
(345.896 -4.25343 -0.0742439)
(338.8 -1.7151 -0.0299371)
(353.125 5.8468 -2.85167)
(370.765 -21.8237 0.380935)
(323.4 -12.1315 0.211756)
(340.328 0.0108777 0.62318)
(331.001 -14.2068 0.247981)
(350.307 0.758387 0.682855)
(354.793 -5.22695 0.0912368)
(344.442 -4.76806 0.0832269)
(364.873 -0.130959 0.0022859)
(341.202 -2.90912 0.0507788)
(343.349 -6.24954 0.109086)
(349.41 -4.35933 0.0760924)
(280.069 8.50771 1.65373)
(351.206 0.548445 -0.877696)
(342.374 -1.97399 0.0344562)
(336.349 -2.95147 -0.051518)
(329.594 -5.25764 0.0917725)
(339.979 2.47641 -2.30929)
(356.076 9.53194 1.68074)
(359.549 -1.60157 0.0279554)
(333.763 3.38245 14.651)
(333.68 -4.11287 -0.0717904)
(342.306 -0.842895 0.0147128)
(351.785 0.49468 -0.0872254)
(337.521 -0.633699 0.0110613)
(340.812 -5.17938 0.0904065)
(353.523 -7.26934 0.126887)
(335.896 -2.83989 0.0495705)
(354.526 -0.682869 -0.0119195)
(338.278 -9.72475 0.169746)
(348.375 6.08788 1.07346)
(337.507 -14.0348 2.47472)
(362.503 -6.66824 0.116395)
(350.042 -7.04798 0.123023)
(358.627 -0.911721 0.0159142)
(332.192 1.06013 -4.59192)
(364.49 -5.53851 -0.0966751)
(344.311 -1.80947 -1.62926)
(346.114 -0.266913 0.00465899)
(352.938 -8.32848 0.145374)
(373.235 -14.9744 -0.261378)
(338.279 -1.91407 -0.0334103)
(350.778 -8.87778 0.154962)
(333.407 2.00675 0.426547)
(345.748 -6.87083 1.08823)
(340.012 0.818101 -3.84886)
(329.88 -4.32589 -0.0755087)
(342.517 15.8552 3.95315)
(346.501 -0.0826474 -0.00144261)
(336.577 -0.0853014 0.00148894)
(348.042 -2.6381 0.0460482)
(343.776 16.0508 -14.9676)
(351.324 -0.663367 -0.0115791)
(351.725 -2.0637 -0.036022)
(366.154 -3.80763 5.24075)
(334.719 -3.95091 -0.0689633)
(357.489 -9.48359 -0.165537)
(328.434 -8.62316 -0.150518)
(369.459 -6.03852 0.105403)
(346.182 -21.0473 -0.367383)
(347.398 -9.03011 -0.157621)
(358.557 0.869145 1.39092)
(331.502 -4.27783 -0.0746698)
(338.282 -6.39462 -0.111619)
(344.534 -9.52296 -0.166224)
(350.868 -7.64933 0.13352)
(343.322 3.34207 -3.00921)
(340.547 -3.05175 -0.0532686)
(336.635 -1.11602 0.0194803)
(318.969 -11.917 0.208012)
(343.445 -2.01252 0.0351287)
(334.218 2.6145 11.3246)
(347.282 -7.67034 -0.133886)
(339.777 -12.2446 -7.65129)
(348.171 -2.10599 0.0367602)
(339.226 -9.86263 0.172153)
(335.509 -1.06075 -0.0185155)
(353.857 -6.09821 -0.106445)
(347.593 0.81721 -1.30781)
(332.78 8.14352 2.03041)
(364.752 -0.0807459 -4.62593)
(345.82 -7.38212 -0.128855)
(314.785 3.05957 -1.36221)
(300.248 -7.44808 0.130007)
(356.343 1.65055 -2.01192e-10)
(351.593 -4.32939 0.0755698)
(335.57 -10.879 14.9737)
(327.944 -9.44144 -0.164801)
(339.12 -0.414449 -0.00723424)
(333.507 -0.949117 0.201741)
(359.054 -23.6885 0.413485)
(345.221 0.904326 0.402632)
(335.091 -12.0313 10.833)
(338.701 -9.00111 0.157115)
(305.422 24.7369 0)
(350.861 2.99754 -3.10404)
(331.97 9.78234 9.12218)
(361.678 -7.72532 0.134846)
(347.771 -4.41155 0.0770039)
(331.532 -1.65194 -7.77178)
(344.993 -7.93286 0.138469)
(340.586 0.834121 3.61298)
(319.379 -13.871 -0.24212)
(366.137 3.90593 -16.9185)
(334.383 -9.87594 -0.172385)
(350.909 -4.06067 -0.0708793)
(341.126 1.70534 0.331485)
(343.121 -9.23147 1.96221)
(378.951 -22.8725 -0.399241)
(356.45 -0.69047 0.0120522)
(332.093 0.082235 -4.71124)
(341.322 -13.1059 0.228764)
(340.561 -2.22477 0.0388335)
(352.656 -3.5647 -0.062222)
(342.586 0.965915 -4.18384)
(343.539 -1.26245 -0.0220362)
(363.847 -0.996927 -0.0174014)
(343.348 -8.78316 0.153311)
(343.221 -0.692389 -0.0120857)
(341.143 -4.1749 0.0728732)
(344.619 -9.34001 -0.163031)
(330.398 -15.3565 9.59583)
(348.781 -1.28541 0.20359)
(347.09 5.13646 -22.2485)
(341.007 4.74747 -1.45145)
(354.125 -4.30246 -0.0750996)
(341.391 -0.501958 -14.3742)
(370.693 -2.04094 -0.0356248)
(353.225 -6.5834 -0.114914)
(349.535 -2.33477 -0.0407535)
(342.513 -5.46273 0.0953523)
(357.541 -3.05747 -0.0533683)
(342.844 -27.7118 -0.483711)
(354.882 -4.54453 0.0793251)
(347.163 -9.53994 0.16652)
(341.019 -13.9594 -0.243663)
(359.326 -4.25856 -0.0743334)
(325.483 6.08076 2.70733)
(336.033 0.0496396 -0.022101)
(359.303 -4.08349 -0.0712776)
(351.363 4.7604 1.01185)