/*--------------------------------*- C++ -*----------------------------------*\
  =========                 |
  \\      /  F ield         | OpenFOAM: The Open Source CFD Toolbox
   \\    /   O peration     | Website:  https://openfoam.org
    \\  /    A nd           | Version:  7
     \\/     M anipulation  |
\*---------------------------------------------------------------------------*/
FoamFile
{
    version     2.0;
    format      ascii;
    class       vectorField;
    location    "0.7/lagrangian/reactingCloud1";
    object      UTurb;
}
// * * * * * * * * * * * * * * * * * * * * * * * * * * * * * * * * * * * * * //


2429
(
(-4.4274 -1.82233 -1.23394)
(0 0 0)
(0 0 0)
(0 0 0)
(-4.77039 -2.50555 6.73377)
(0 0 0)
(0 0 0)
(0 0 0)
(0 0 0)
(0 0 0)
(0 0 0)
(0 0 0)
(0 0 0)
(0 0 0)
(0 0 0)
(0 0 0)
(0 0 0)
(1.69901 -1.095 0.65291)
(0 0 0)
(0 0 0)
(0 0 0)
(0 0 0)
(0 0 0)
(0 0 0)
(0 0 0)
(0 0 0)
(1.16716 -0.188577 -0.395474)
(0 0 0)
(0 0 0)
(0 0 0)
(0 0 0)
(0 0 0)
(0 0 0)
(0 0 0)
(0 0 0)
(0 0 0)
(0 0 0)
(0 0 0)
(0 0 0)
(0 0 0)
(0 0 0)
(0 0 0)
(0 0 0)
(0.28067 1.15798 -1.71272)
(0.0202969 -2.47622 2.08986)
(3.93206 -4.87181 -8.14362)
(-0.0658217 -0.115 -0.0203197)
(-0.0184317 0.0385585 -0.153892)
(-3.78546 -5.9348 0.0768327)
(-1.55728 -2.22138 0.0248008)
(0 0 0)
(0 0 0)
(0 0 0)
(0 0 0)
(-2.08279 -13.5465 0.598378)
(0 0 0)
(0 0 0)
(0.0207191 0.134914 -0.398344)
(0 0 0)
(0 0 0)
(0 0 0)
(0 0 0)
(0 0 0)
(0 0 0)
(0 0 0)
(2.41314 0.372142 -2.34542)
(0 0 0)
(0 0 0)
(0 0 0)
(0 0 0)
(0 0 0)
(0 0 0)
(0 0 0)
(0 0 0)
(0 0 0)
(0 0 0)
(0 0 0)
(0 0 0)
(0 0 0)
(0 0 0)
(0 0 0)
(0 0 0)
(0.499415 -1.39841 3.06109)
(0 0 0)
(-1.48388 -0.851939 -1.51024)
(-5.43079 -0.574621 2.6777)
(0 0 0)
(-1.86485 -0.540186 0.185618)
(0 0 0)
(0 0 0)
(0 0 0)
(-0.982151 -0.486211 0.216896)
(0 0 0)
(0 0 0)
(0 0 0)
(0 0 0)
(0 0 0)
(0 0 0)
(0 0 0)
(0.235206 -0.0562836 -0.125602)
(0 0 0)
(0 0 0)
(0 0 0)
(0 0 0)
(0 0 0)
(0 0 0)
(0 0 0)
(0 0 0)
(0 0 0)
(0.0881376 -0.0639451 0.190413)
(0.393518 -0.141846 0.00387692)
(0 0 0)
(2.19693 -1.85282 -3.75785)
(-0.00974666 1.04898 -0.692621)
(-9.08175 1.28211 2.43003)
(0 0 0)
(0 0 0)
(-0.749774 1.49346 -0.332412)
(-2.93217 0.421255 -2.54512)
(0 0 0)
(0 0 0)
(-14.5959 -2.16725 2.23577)
(0.376885 0.529605 -2.2689)
(0 0 0)
(0 0 0)
(0 0 0)
(0.850246 -0.174439 1.18219)
(0 0 0)
(0 0 0)
(0 0 0)
(-10.0138 -1.69188 -4.09442)
(0 0 0)
(-16.8166 -7.55718 10.1651)
(-0.00261421 0.0010475 -0.00613837)
(0 0 0)
(-4.75938 3.80765 -0.0857227)
(-2.58956 -1.08112 -3.17265)
(-8.76188 -1.61747 2.34343)
(3.99209 3.79872 1.69897)
(0 0 0)
(2.76568 4.10519 -7.93329)
(0 0 0)
(0 0 0)
(0 0 0)
(2.41862 -2.34756 0.559207)
(-0.178179 0.218094 -2.79056)
(0 0 0)
(3.02276 -0.0292386 1.28371)
(-0.403833 -10.5659 5.47904)
(1.7464 -10.6539 0.137046)
(0 0 0)
(0 0 0)
(3.68772 0.90193 1.7655)
(-8.50902 2.78785 -2.15738)
(-10.5091 -5.58324 -3.49435)
(2.42839 -2.7503 -0.80589)
(0 0 0)
(-0.680526 4.34883 1.99532)
(-1.09209 -0.881499 -0.0484984)
(1.19138 0.208877 1.90112)
(0 0 0)
(-0.790373 -2.94638 0.708676)
(-4.60623 1.68427 2.50956)
(-4.36551 6.96991 2.80297)
(2.9176 -6.25064 1.38481)
(0.48083 1.03489 0.268351)
(0 0 0)
(1.92509 -8.62945 8.27887)
(3.07665 1.89175 -4.38298)
(-1.83889 4.24487 1.17105)
(0.631878 1.64684 2.39835)
(0 0 0)
(0 0 0)
(0.538535 1.0249 0.776569)
(-8.25647 6.10502 -2.90783)
(7.87024 -11.4125 -2.64066)
(-1.71228 2.15946 -0.650357)
(0.659576 -5.3809 -2.25572)
(0.14589 -0.0771321 0.158343)
(0 0 0)
(5.91284 -4.55793 1.94989)
(0 0 0)
(-9.54091 -8.0076 -8.3661)
(0 0 0)
(0.249361 -0.7136 -1.72522)
(0 0 0)
(-1.19456 -1.16699 3.39203)
(-1.69588 -8.88552 -7.65399)
(-1.87516 1.09975 2.37003)
(-11.7502 11.6642 4.09409)
(8.82099 -15.2422 1.25136)
(0 0 0)
(0 0 0)
(-8.78018 -0.235789 -3.72175)
(-1.15601 0.453295 -0.231235)
(1.23569 -1.97176 0.979182)
(0 0 0)
(-0.956243 -0.204353 0.759308)
(0 0 0)
(0.657407 4.64075 -2.65495)
(3.30497 -4.95522 -10.5206)
(-3.11433 -3.38994 4.10973)
(0 0 0)
(0.605541 0.717299 -1.03525)
(0 0 0)
(-4.40178 3.61646 -1.16925)
(-4.35005 -6.79962 3.4642)
(-2.96747 6.72198 0.747834)
(-6.98884 2.36973 -1.92286)
(9.14988 1.67581 -5.86869)
(0.413568 2.06123 -1.43607)
(1.32479 -1.04353 -0.702777)
(0 0 0)
(0.900311 -1.53037 0.756887)
(-2.4054 -12.1517 -0.866148)
(3.88456 -5.053 2.67074)
(9.66562 -0.881433 0.235641)
(0 0 0)
(-5.21155 9.4129 4.58172)
(-0.633651 3.53738 -1.70547)
(0 0 0)
(-8.72336 -10.7573 2.54336)
(-1.87863 19.5385 -0.991123)
(-0.261955 -0.321292 0.789645)
(-0.0903692 7.54629 1.48603)
(0 0 0)
(2.19472 2.68306 -8.59499)
(0 0 0)
(-2.96266 -0.653135 1.20127)
(0 0 0)
(8.35148 -1.57506 -2.50082)
(1.10647 2.24703 2.67096)
(0.962438 -3.0318 1.4219)
(-1.83513 0.166146 -0.264774)
(0 0 0)
(0 0 0)
(0.108932 0.0140006 -0.0445564)
(-0.822487 -0.087641 -0.245426)
(0 0 0)
(-0.105433 0.181441 -3.53355)
(2.19013 1.49514 0.677939)
(8.08889 -9.8393 0.960362)
(-1.77247 2.44133 5.49357)
(0 0 0)
(0 0 0)
(-12.2942 5.87602 -0.376447)
(-0.498156 -0.620372 -0.84747)
(3.3704 -1.81083 -2.45695)
(-0.442778 -0.656409 1.42576)
(7.98224 -7.69162 -0.799989)
(-0.943923 -0.86879 0.940608)
(-3.32145 -3.3797 -5.82731)
(-0.352593 -0.0337519 -0.199462)
(-0.00349989 -0.0903135 0.0877043)
(-1.22546 -0.447368 0.108284)
(6.81414 -4.80899 -4.2182)
(1.7665 0.646543 1.76822)
(-4.33387 7.75632 -2.29706)
(-1.73258 2.90867 5.83851)
(3.47098 20.9973 -0.938813)
(-6.85539 -15.0242 1.22425)
(3.37557 -1.77315 -2.5113)
(0.22705 0.27373 -0.482156)
(-0.0264751 -0.0952427 -0.065241)
(5.74227 1.44646 0.178717)
(0 0 0)
(0.153592 -6.1528 -2.95167)
(-3.18041 3.78412 7.18643)
(-4.18619 -3.91998 -0.239755)
(0.361811 4.24968 -2.54264)
(0.107948 2.25709 -0.808161)
(-0.999257 -0.66745 0.0728661)
(0 0 0)
(0.595817 -4.84542 -1.7055)
(0 0 0)
(-1.39839 1.19241 -2.08574)
(12.4241 -34.5066 -6.0058)
(0.700197 0.643295 -0.0296613)
(-6.2988 6.8 -0.644497)
(0 0 0)
(2.48081 0.314495 1.18702)
(1.98089 2.44216 -0.97769)
(5.15982 -9.72409 6.08866)
(0.0142804 -0.258854 0.268341)
(1.25446 -0.014003 0.424927)
(5.83121 2.27299 -0.68706)
(0 0 0)
(0 0 0)
(-0.741296 0.630101 -0.663801)
(-5.04056 -3.50357 0.311652)
(6.87516 -4.95189 -0.892601)
(0.379519 -6.02563 0.00969617)
(-1.39803 2.89196 -2.94049)
(-0.76457 2.87776 -0.980387)
(-1.27488 1.60497 -0.805446)
(-0.886298 0.309448 1.02422)
(1.44496 0.0429624 1.56226)
(0 0 0)
(2.29745 -3.97129 -1.67779)
(0.702279 0.987395 2.43409)
(1.72575 3.63728 2.95361)
(11.7786 14.5935 14.7184)
(6.69809 -9.34113 3.62477)
(3.85986 -1.15987 -0.219947)
(0.464472 2.6375 -4.18435)
(14.8172 -3.4798 -9.52865)
(-0.350176 -4.66679 -3.23748)
(-0.604995 0.398425 0.289094)
(0 0 0)
(0.17331 0.161388 0.216353)
(-8.91875 -15.2567 -1.02218)
(0 0 0)
(1.60132 -5.05483 0.450115)
(0.114958 2.65031 3.05832)
(0 0 0)
(-1.16996 -1.14581 0.661698)
(-1.02208 -1.32374 1.38242)
(-0.562162 -2.4245 2.20469)
(2.82339 -4.31115 3.70683)
(-2.50809 -2.10501 -2.19926)
(-0.186426 -0.243112 -0.356216)
(0.897789 -0.24252 0.597785)
(-2.20023 -0.63772 -0.34084)
(-0.519998 -0.934615 0.288472)
(1.73853 -0.858776 1.14977)
(0.00804284 -0.145789 0.151132)
(-1.70927 -1.0425 -0.494324)
(-3.06851 7.33662 5.60592)
(-1.45886 0.958052 -2.93896)
(0.419347 0.224479 -1.31861)
(0.801524 3.59635 -0.561667)
(20.4873 6.5578 20.1051)
(-2.08862 0.463943 -0.0839225)
(1.06513 -1.79048 0.610607)
(0.800485 0.324418 -0.121864)
(-18.3909 -0.957259 -2.52059)
(-2.76556 2.05162 0.360909)
(0.0292458 0.00729768 0.024501)
(-7.21667 -14.5366 -14.0162)
(-2.97181 -5.9217 -0.941999)
(0.0452827 -5.37548 0.281566)
(-1.09675 7.42527 -4.51127)
(0.102258 -2.58595 1.69872)
(0.362338 3.38652 0.68195)
(-0.00819335 0.281044 0.117968)
(-2.09457 3.56256 -1.09554)
(-0.788341 0.515411 -0.854768)
(3.61795 10.843 0.999447)
(-1.03857 -0.129262 -0.944995)
(-6.6443 -7.23995 -0.70781)
(0.269001 2.21639 -0.585033)
(3.90795 2.24886 -0.694462)
(2.81486 -1.04996 -0.405167)
(22.2534 -7.66596 -4.3883)
(-4.19827 3.77927 4.7774)
(5.40415 3.22346 0.723438)
(1.88669 -1.62076 3.77878)
(-2.82321 -3.42381 -4.4003)
(-5.38977 5.24339 -2.32455)
(-5.81845 -13.2759 0.671141)
(-2.54218 -2.72801 -5.68357)
(3.69188 -6.34622 -2.04484)
(-1.46604 1.58478 -0.482494)
(-0.00677693 -0.0441373 0.0521088)
(-1.20405 -0.637007 0.730942)
(-1.39541 2.73345 1.99518)
(1.41541 0.881754 1.15743)
(15.3681 7.67433 -0.312923)
(4.26822 -3.308 2.0055)
(1.11988 0.40902 -0.00158403)
(-0.325138 -9.67654 0.856603)
(0.222559 2.7566 1.30306)
(3.07609 3.78339 6.24064)
(21.0574 -11.6366 1.43109)
(-0.152423 -0.498239 0.0441744)
(-0.323804 -1.3309 -0.0418068)
(-0.667716 -0.594707 -0.140825)
(3.94367 -2.02095 5.73814)
(0.600677 15.4344 -1.84177)
(1.42507 0.961946 2.57973)
(1.91488 0.0664926 1.17126)
(0.0881054 0.371569 0.39316)
(4.03265 -2.80058 0.8236)
(-0.177346 0.343761 0.528979)
(0.417101 -3.93635 -0.828471)
(-2.27451 -2.08727 -0.336334)
(2.08609 13.2433 -3.72645)
(0 0 0)
(0.58307 1.91225 -3.86851)
(0.0249485 0.458471 0.475607)
(-0.0767418 -0.0197506 -0.0190893)
(-0.227579 -2.19556 -0.828664)
(0.0161161 -1.89441 2.13287)
(0.806905 -0.151211 -0.0591771)
(-1.96469 2.06178 -1.0459)
(0.547675 1.54005 4.5423)
(0 0 0)
(0.501547 5.14994 -2.0838)
(-1.47473 -1.62976 -0.868229)
(-4.36721 0.942504 1.38771)
(0 0 0)
(-1.71374 -2.32049 2.06376)
(0.588041 -3.19551 0.382473)
(-0.202418 -0.346279 2.46183)
(-0.00219577 -0.0809162 -0.0329083)
(-5.10139 -1.52939 -4.74295)
(4.52791 -2.74648 -1.33585)
(-0.705091 -0.94372 2.99702)
(0.506085 -1.65591 0.541644)
(-0.0657488 -0.956408 1.97435)
(3.63417 -0.892069 -4.21585)
(7.09023 -2.09803 -0.344031)
(2.78392 -1.2905 0.816434)
(3.39005 -1.15325 0.621325)
(0.0492883 -1.14021 0.0917473)
(-7.03548 -3.8871 -3.90574)
(-0.00908043 -0.0326582 -0.00690426)
(-0.0122379 -2.7578 -1.78408)
(-0.217462 -0.246178 -0.655142)
(-1.42744 -2.26512 2.70181)
(-0.416562 -1.00467 -2.49333)
(-1.9576 -2.62637 2.59817)
(2.72548 -2.35293 -1.61956)
(-1.96859 -1.2615 1.04122)
(1.68273 -1.98863 0.587025)
(-2.19197 -0.574456 0.354695)
(-2.56844 -1.99278 -3.04573)
(-0.149011 -0.182764 0.449181)
(-0.825648 -2.23275 2.08781)
(1.57848 -0.893291 2.143)
(0.632007 -0.333698 0.150183)
(2.64762 -2.05025 -2.2523)
(-0.738229 -0.366575 0.512628)
(-0.0630345 -0.066664 -0.203211)
(-2.14278 -1.37312 1.13335)
(2.23313 -0.322346 0.0741578)
(7.13685 -9.26273 6.37062)
(-1.81927 1.90917 -0.968489)
(-0.156694 -0.567013 -0.837837)
(-6.96464 2.10178 1.0481)
(-2.38993 -0.649526 -3.95217)
(9.29864 -1.94202 -6.75269)
(-3.16142 0.702243 -0.127029)
(-0.814097 -3.3461 -0.105109)
(-1.19175 0.704744 -0.334874)
(10.8725 10.4417 -3.61995)
(11.63 10.5357 -0.424722)
(2.77564 16.7909 -0.750742)
(-1.43742 -9.49454 7.80652)
(2.42082 -1.72544 -1.0096)
(3.78002 3.17043 5.83359)
(-2.05091 -1.3699 0.149553)
(-2.46305 3.73224 -9.04142)
(-4.64999 7.90894 -2.43212)
(0.106655 0.245969 0.258768)
(0.362011 -3.41644 -0.719047)
(-8.21328 -20.7853 -1.29894)
(1.95702 -0.32639 2.13951)
(4.43247 1.6223 4.43678)
(3.41721 3.77877 -16.1657)
(-1.35032 0.953995 -1.02462)
(0.118661 -2.8226 3.31179)
(-2.12116 1.80872 -3.16377)
(0.233315 2.39571 -0.969364)
(-3.31966 -8.22917 -0.433472)
(-1.66188 -4.50357 -1.22982)
(1.19582 -10.246 -5.08369)
(-5.40895 -0.933852 -10.759)
(2.79061 1.75972 -0.90464)
(2.04087 2.63899 0.785584)
(1.48332 0.924056 1.21295)
(-4.50416 -2.05575 0.570352)
(-6.71867 7.25326 -0.687458)
(1.56515 1.0565 2.83331)
(-14.7245 3.16123 -19.9702)
(-28.0322 7.35351 1.26795)
(3.97481 -2.88966 1.14277)
(-1.24323 -0.433107 -0.0522511)
(0.48807 0.588415 -1.03645)
(-1.5472 -1.42893 2.00568)
(-4.44659 -4.1928 0.183401)
(-2.91247 2.65273 -2.08193)
(-1.84818 5.54954 1.77536)
(3.54449 1.07569 0.181486)
(-3.20202 -0.269763 -1.28953)
(-1.33865 -1.124 0.3561)
(-0.0648419 1.3619 -2.20013)
(19.802 23.8266 -5.40308)
(-3.47231 -1.63453 3.55671)
(0.279272 5.83931 -2.0908)
(1.15621 -0.338982 0.539576)
(0.860462 7.80053 -1.29324)
(-1.43694 -0.187004 -0.387847)
(-0.969747 -2.05729 0.429495)
(-0.943098 -1.42126 0.855929)
(12.7942 6.26603 -0.240692)
(3.08581 -1.80063 -1.4922)
(2.95401 -0.451705 0.263087)
(9.71215 -1.99709 -7.50608)
(1.30211 0.0387152 1.40782)
(7.69927 -0.234815 2.12456)
(1.33698 -1.46285 -0.623801)
(-2.21563 0.979749 -1.5057)
(0.355146 -0.0841831 0.364292)
(3.87047 13.13 -2.4226)
(-0.978166 1.64216 3.29626)
(1.52891 -0.0964375 0.297906)
(7.98132 8.17607 -2.55149)
(5.16764 0.43938 1.32808)
(0.446348 2.53458 -4.02107)
(-0.66037 2.11992 -6.29478)
(3.16489 2.12137 1.49575)
(-4.78591 -1.38966 -2.21714)
(7.34771 0.607468 -0.14935)
(0.028878 0.00962676 -0.108263)
(-0.654612 -2.34765 -1.68068)
(0.561174 -6.33515 -4.56253)
(-3.74442 -1.08685 -0.443892)
(2.05816 -0.95437 -0.0190464)
(4.63446 -6.68273 -3.35229)
(-0.362268 -4.93725 -3.87202)
(-3.09163 -7.32488 -3.95598)
(0.0169046 -0.132275 -0.0927797)
(-0.663387 -0.572005 -0.75626)
(9.68791 -5.44631 -8.91444)
(-0.708542 -1.27793 1.08656)
(2.23539 -1.51466 -7.66401)
(-1.01164 -2.36605 -1.14796)
(-0.0590523 -2.31616 2.02809)
(1.05137 -2.67193 0.37021)
(0.105758 -0.236348 -0.0391638)
(7.48819 -4.13809 0.508908)
(10.0267 -6.42932 0.921514)
(0.259472 -2.40719 8.78627)
(-1.31926 -1.01859 -0.103051)
(1.59699 -0.566425 0.60916)
(-0.0993376 -1.35384 -1.06175)
(0.336206 -0.0275513 -0.706057)
(-12.9235 -2.33287 9.90547)
(1.76096 -2.42984 -4.82779)
(-3.46978 -1.69975 1.85963)
(10.3483 -4.49754 5.47823)
(-5.81811 -13.2751 0.671101)
(3.47719 -6.05417 2.61386)
(1.36068 -0.495149 -4.44966)
(-3.48787 -5.06591 -8.68672)
(3.21287 -2.41293 1.29998)
(0.560508 -11.4038 -2.35775)
(1.39882 -2.3481 3.46209)
(0.214196 -3.4008 0.0054724)
(-1.96708 -0.808123 1.1986)
(2.27092 -7.87832 2.90509)
(0.914827 -0.278509 -1.05628)
(1.1055 -0.378092 -0.026075)
(-1.58512 -5.13531 -4.63289)
(1.55381 -4.541 0.438211)
(-0.121701 -0.377348 0.0786201)
(-4.10048 -1.73575 0.35781)
(0.93984 -0.176123 -0.0689264)
(-10.3566 -17.3152 20.6839)
(0.605301 -0.314446 -0.194855)
(-0.849717 -0.650909 -1.66369)
(-7.16393 -19.4818 0.478276)
(0.747075 -1.11127 -0.516354)
(-7.57855 -1.7788 -0.0390663)
(0.629284 -0.251218 -0.595275)
(-3.73974 -1.88708 4.16031)
(4.41275 -4.33777 7.95992)
(-3.28345 -7.06666 -2.59391)
(1.50836 -3.4092 1.75401)
(-1.48708 -1.29888 1.04222)
(-7.99577 -2.00573 -3.76107)
(0.244398 -1.04659 0.107494)
(-1.88789 -0.963093 1.31394)
(-5.49182 -1.59176 -0.850744)
(1.37179 -16.6309 -18.0055)
(-0.866583 -0.225771 2.41293)
(-2.33889 -0.723999 -1.39861)
(7.33703 -4.00099 7.85544)
(-2.88621 -2.00047 -1.05986)
(-1.05607 -1.50837 1.9304)
(0.00506652 -0.59556 0.670525)
(-7.83952 -15.7912 -15.2259)
(1.30053 -0.381294 0.606926)
(-5.44375 -9.44041 5.99814)
(2.60107 -0.0234484 6.02838)
(15.5135 -0.12625 16.9293)
(-1.58839 -0.250161 -1.01828)
(-1.71561 -16.0701 -12.8814)
(0.0557512 -0.972996 0.316328)
(-0.532567 -2.90351 -6.44984)
(0.647923 -2.28309 0.798966)
(-3.08702 -14.7796 -7.34079)
(1.01168 -0.468194 0.743225)
(10.1104 -0.869948 -3.81849)
(-18.7448 16.2765 -4.06571)
(20.4723 -3.32205 0.998832)
(2.81414 -1.2401 4.4743)
(-5.83227 -1.32775 -3.85445)
(-1.34143 8.10641 4.54783)
(3.44237 -0.295425 0.308496)
(13.5321 13.4014 -4.55081)
(0.639758 6.71423 -0.497576)
(-0.20871 0.404557 0.622532)
(-0.954434 -0.449034 2.34812)
(-0.930219 -27.6846 2.45074)
(-3.99703 -6.82952 -0.306475)
(-2.35087 7.70348 2.72141)
(-13.2846 -15.6304 -8.66949)
(4.83119 8.15504 -4.30561)
(6.34588 5.8249 0.5351)
(2.12693 4.70663 -6.14715)
(-5.11532 23.722 -3.25517)
(-3.96789 0.391503 -1.71419)
(8.24025 -0.429218 -2.66149)
(-3.34478 2.40946 -2.8426)
(-0.570143 2.067 0.446484)
(0.603037 -7.23436 -0.588571)
(-7.31232 -4.06035 5.65875)
(-5.42774 -16.4583 -5.33893)
(-13.4689 1.48812 -1.73724)
(-0.163295 -6.45702 2.44442)
(1.62664 0.734358 -0.0326942)
(-4.80329 1.47561 0.867396)
(1.82257 -0.759213 15.9483)
(1.12483 0.069416 0.699551)
(-1.44783 -4.1339 -3.22326)
(3.77946 12.8212 -2.36564)
(0.0882199 1.62119 1.68178)
(28.2074 18.4905 -3.79412)
(-3.98375 10.5154 3.92503)
(0.630978 -5.13136 -1.80615)
(-0.0671456 0.256691 -0.135113)
(0.52153 1.46974 1.15318)
(-3.3884 -16.065 33.0342)
(-1.75966 1.49571 -1.57571)
(-2.90627 -3.43614 -1.50013)
(-3.4193 6.1195 -1.81231)
(-2.43569 -1.41072 5.32041)
(5.29231 0.183771 3.2371)
(-6.06678 1.30929 1.92777)
(0.969834 2.96259 -6.74198)
(-5.77907 -6.16807 -8.05603)
(-8.11782 -7.27278 -16.0277)
(-2.62268 5.80546 2.56034)
(7.93515 0.449626 0.14369)
(-0.339668 -1.03464 -0.0139791)
(-10.05 -22.1028 -2.36557)
(3.54539 0.449454 1.69641)
(7.11996 3.46352 -1.89848)
(-5.03393 6.12747 -2.28371)
(4.53615 6.1896 -4.6865)
(-0.843104 0.689257 -0.808397)
(-5.93163 2.92696 0.520097)
(3.1222 -4.73892 -9.06997)
(-0.346395 -4.61641 -3.20253)
(19.8424 -23.7434 11.1529)
(4.53799 5.59471 -2.23978)
(5.68394 1.945 -1.11202)
(-10.4101 1.58494 7.76543)
(3.18621 0.143042 0.0805444)
(-0.827976 2.42283 -0.454024)
(8.56406 2.15726 0.26654)
(-0.331225 -0.738041 0.900852)
(2.53142 -1.31449 -0.493105)
(-2.43455 -0.232301 1.47551)
(-0.729254 0.546906 0.490008)
(-22.3145 -6.73371 12.653)
(-28.4964 16.5693 7.26065)
(-0.161493 13.4855 2.65559)
(9.38916 25.2168 -6.61364)
(-1.57879 5.94239 -2.02443)
(14.7988 7.39004 -0.301331)
(14.4686 0.125799 -28.2261)
(-6.27275 12.4566 -11.4676)
(2.23737 5.74324 6.78868)
(5.87228 -1.10749 -1.75844)
(17.9489 10.7061 2.40277)
(8.86379 6.37511 6.06425)
(0.836242 1.17574 2.8984)
(-5.72619 1.9416 -1.57546)
(0.107665 2.48216 2.86428)
(0.231835 2.72304 -1.62923)
(-2.93712 11.9775 -3.8831)
(7.18801 -10.0244 3.88989)
(-1.11167 0.732099 0.531205)
(-3.17548 29.9978 0.278507)
(-1.74599 2.19806 -1.10308)
(13.3139 2.26168 -3.18777)
(9.86333 1.80648 -6.3263)
(7.32148 -5.27335 -0.950546)
(0.248936 1.98388 3.04225)
(0.201341 5.17346 -0.617343)
(-1.00442 0.350691 1.16073)
(1.99125 0.72728 -0.00281656)
(2.93303 -5.06994 -2.14195)
(0.0772746 0.0257602 -0.289701)
(5.40608 16.2021 1.49341)
(-2.34146 -0.249496 -0.698679)
(1.39652 17.5746 -13.8927)
(1.55206 2.58462 -2.2974)
(0.487891 0.454331 0.609064)
(-2.82955 -0.507332 -0.242253)
(-0.505584 -2.78627 -0.486067)
(3.00073 -4.46354 -2.074)
(-0.20925 -2.01873 -0.761922)
(-1.59952 -1.76767 -0.941699)
(0.197258 1.94967 0.482361)
(0.628266 0.57721 -0.0266142)
(0.0151864 -1.78514 2.00984)
(-17.418 -12.9932 8.08417)
(1.23552 7.84358 -2.20705)
(15.1162 -4.5922 -10.0367)
(-20.3379 2.68134 -0.909458)
(-2.3969 -12.1087 -0.863087)
(-8.12113 0.513604 1.3739)
(-0.0147145 -0.0958337 0.113142)
(-5.48374 -2.29946 -3.75848)
(1.19855 14.5201 -1.79284)
(4.31746 -0.39372 0.105257)
(-1.90147 -8.48428 1.02445)
(8.00667 10.8631 -9.55664)
(0.274038 -6.46723 -12.3632)
(-0.0254188 -0.0914426 -0.062638)
(-6.39578 -1.73823 -5.28048)
(-10.8222 3.68636 -7.83165)
(15.9696 -8.25167 -2.3228)
(-2.39854 -6.31084 -1.83637)
(-0.104482 -0.0371958 -0.431679)
(-0.130587 -1.01345 -13.7786)
(-2.26363 -7.82737 -5.54664)
(8.982 -1.94754 -20.6428)
(1.56618 -2.75654 0.32467)
(3.03029 -5.33345 0.628183)
(-5.47074 -7.39197 2.99599)
(0.782279 -0.578974 1.69471)
(8.52592 -9.20623 -0.904852)
(1.37737 -2.57521 1.66103)
(1.24004 -3.80976 -3.72868)
(6.67707 -1.43568 5.64259)
(-22.3093 -1.14089 -12.0234)
(11.7221 -8.91844 5.62567)
(1.00382 -0.107946 -0.0735678)
(7.81808 -1.68101 6.60682)
(-12.4133 -3.60307 -1.47157)
(7.97877 -4.51534 10.8323)
(2.64322 -8.64862 2.82894)
(-1.62916 -0.457328 -0.980683)
(0.0653267 -0.0996196 -0.375917)
(0.899434 -5.92779 6.2541)
(-10.2458 -11.0986 22.6844)
(-6.1324 -0.51579 0.146916)
(1.5706 -2.92187 2.55386)
(-0.235896 -3.22502 1.97905)
(3.02666 -5.5715 -0.201875)
(18.0179 -7.63233 -1.05082)
(-3.59395 -0.703908 -2.20662)
(0.947074 -3.45594 9.43546)
(3.14902 -0.692684 -0.869049)
(0.31249 1.46863 6.74912)
(3.24937 -4.19564 1.07464)
(2.64349 -4.91783 4.29843)
(-0.49342 -1.33997 -3.32759)
(3.0602 -11.8243 -6.74778)
(-6.90364 -5.37373 -3.98685)
(23.2724 -6.25156 -4.59863)
(14.2113 -1.33894 -2.06748)
(-5.09242 -6.59541 6.88775)
(-20.4514 -4.85068 12.2372)
(5.99031 -9.40482 -4.38581)
(5.94908 -8.61387 -1.30355)
(-19.313 -2.21929 -3.99666)
(22.2225 -2.13537 -0.742213)
(-10.3684 -3.40952 -5.36629)
(-17.9511 -9.23174 1.51524)
(-4.0751 -7.14231 9.54278)
(-17.869 -3.17892 10.3786)
(-9.45241 -7.20408 -5.47773)
(-2.4458 -8.04648 -0.717226)
(-13.8192 -0.0334843 4.9275)
(4.07028 -9.15058 -9.51214)
(8.34889 -4.60952 22.4031)
(-1.12472 -1.21538 12.0004)
(-22.707 -7.34114 -3.94615)
(0.0463562 -4.49727 -2.12286)
(-1.30219 -5.88844 -1.93606)
(-17.3264 -2.59158 15.4598)
(3.72113 -3.69684 -2.06625)
(-0.217266 -9.27669 -3.20369)
(-3.04371 -8.31266 6.85015)
(0.914684 -2.98495 -4.22825)
(-7.11873 -8.94817 -1.47391)
(-0.826794 -1.19361 1.53523)
(3.82887 -5.77004 3.71776)
(7.95785 -7.72406 1.83993)
(-7.00949 -1.16356 -0.323998)
(-1.51195 -2.98185 -2.60302)
(8.08335 -2.30281 -0.473936)
(-3.10264 -5.44488 -1.00347)
(7.42052 -9.37244 -3.93104)
(-0.940701 -1.29315 1.45483)
(0.047341 -0.0225506 -0.879177)
(4.18277 -6.67434 3.3145)
(-4.99982 -11.6937 -5.67358)
(13.2644 -4.71239 31.1936)
(5.27124 -2.17467 -13.2554)
(-0.892808 -8.12189 1.77338)
(-44.649 -7.58719 -11.9942)
(0.991769 -1.75836 2.84661)
(-11.1135 -7.79067 -4.83758)
(13.4361 -13.3189 20.7785)
(-8.14783 -4.34885 5.38651)
(1.66768 -16.9612 1.9509)
(7.77483 -14.4203 4.23736)
(-14.238 -28.757 -9.48126)
(-11.0412 -1.67222 2.1295)
(-14.0481 -1.98894 4.72719)
(-4.97206 -3.6094 3.56925)
(-0.932291 -1.02576 -3.49658)
(6.92309 -10.8693 1.03069)
(17.5313 -5.09148 6.18506)
(0.2985 -0.364693 -0.539674)
(-9.2239 -5.02996 -15.3633)
(-2.9096 -8.70001 -7.14852)
(1.94 -0.426955 0.0774958)
(2.60832 -5.86705 -5.02842)
(2.63307 -2.86331 4.47554)
(-2.63705 -8.54095 6.7195)
(-19.0325 -13.2291 1.17676)
(-7.80259 -4.7589 -2.25653)
(-2.4979 -6.26047 -2.1094)
(33.7878 -18.6716 2.29627)
(15.3379 -4.609 -0.874005)
(-16.4307 -19.4834 8.88612)
(-1.19332 -0.683491 -1.77558)
(-0.552265 -7.12851 0.77658)
(4.50305 -2.41937 -3.28263)
(27.529 -17.6521 2.53008)
(3.38091 -1.77266 -4.47003)
(14.8441 -2.76276 3.44976)
(-3.52208 -4.11839 -1.73164)
(14.392 -7.47333 -2.80347)
(2.70824 -16.864 5.6433)
(3.59183 -2.30097 -0.755134)
(-4.19472 -5.86475 0.434902)
(-2.26035 -5.45155 -13.5293)
(23.3119 -2.11022 -4.30914)
(1.01638 -1.69314 2.73787)
(-5.34922 -6.19175 -6.89106)
(-15.0713 -15.3357 -26.4419)
(-2.71771 -3.86858 -1.52075)
(10.7697 -10.3059 2.04081)
(14.2143 -3.55537 2.93424)
(4.30969 -7.00246 -7.18258)
(-0.595527 -0.360628 -1.53917)
(-5.10408 -5.96551 -4.78517)
(0.641771 -1.35519 0.104533)
(-0.396399 -1.07602 8.6752)
(-8.15851 -3.30611 -0.947287)
(-0.461813 -1.04803 -3.83839)
(3.79455 -4.25521 1.88534)
(2.15064 -1.17607 -0.710119)
(3.08967 -4.3965 2.39511)
(7.94076 -2.96195 -1.14298)
(0.0823564 -13.1799 9.17209)
(2.26277 -0.788168 -0.457908)
(-2.82768 -10.1129 -13.0217)
(11.7365 -45.2144 -5.16806)
(2.56865 -0.307871 -0.906317)
(5.2431 -4.91112 1.25335)
(-1.07069 0.875312 -1.02661)
(29.3263 -17.7204 1.52288)
(-0.09839 -5.9637 1.76849)
(2.53693 -1.14397 0.0377206)
(0.936236 -2.67556 -1.7897)
(1.59683 -0.804279 0.046851)
(-1.46748 -3.10815 -1.61322)
(1.76899 -2.33268 -4.82452)
(-2.39171 -12.5313 -10.7945)
(3.66825 -18.9987 -0.162042)
(-4.63823 -12.5429 11.7286)
(-14.8968 -10.4089 -0.719745)
(-0.469924 -0.274912 0.0681231)
(-3.63816 -5.11795 -4.71868)
(12.008 -5.21885 6.35682)
(4.72237 -3.54659 1.91075)
(10.3014 -33.8161 10.7502)
(0.0960748 -15.3753 10.6999)
(4.47227 -1.27011 1.04184)
(-13.1907 -0.257548 0.449322)
(-10.6031 -14.672 1.40314)
(14.7678 -11.4358 -12.5629)
(9.48204 -0.0283197 -5.43604)
(0.236661 -0.289141 -0.427873)
(5.28316 -1.80689 -0.124611)
(0.133434 -3.74535 -0.249467)
(1.18832 -14.0323 -25.312)
(1.78696 -1.44957 -2.59965)
(-3.8262 -0.902614 12.587)
(2.47625 -11.5186 10.1596)
(-8.26238 -4.57768 -21.8765)
(1.89003 -1.68102 -0.615758)
(-3.02599 -6.36327 -6.50841)
(-1.5922 -17.4501 4.0764)
(0.11737 -2.9681 1.94975)
(-22.51 -9.52859 1.96424)
(36.1521 -10.8359 1.31101)
(2.7352 -2.34968 5.47824)
(11.1455 -5.78854 -6.06328)
(-0.773595 -1.31968 4.47701)
(4.24354 -4.36978 2.96271)
(1.98224 -29.1793 28.0736)
(-2.57185 -2.90548 11.7215)
(6.16825 -14.5745 1.78724)
(7.61389 -10.7644 -16.7481)
(-6.46852 -1.49202 -2.68735)
(-6.53756 -7.25275 -3.5503)
(5.19553 -0.949527 -11.0457)
(-7.47833 -5.85 -11.9034)
(-7.68019 -2.21706 -3.77358)
(-1.5889 -9.34892 -4.44059)
(-45.4386 17.7314 -2.20724)
(19.9298 -20.1784 19.509)
(-1.06379 -31.6598 2.80264)
(-5.34236 -3.04763 -2.87048)
(6.90026 4.44207 -9.34291)
(0.148094 0.246091 3.20447)
(14.5931 13.3951 1.23053)
(17.8983 8.70666 -4.77244)
(-19.9816 -9.73186 8.8246)
(0.12121 2.22744 2.31069)
(5.81299 -11.7431 5.53747)
(-7.72873 -2.3655 -1.86803)
(-1.99829 1.44251 -2.13806)
(10.5996 -13.9023 7.22543)
(-1.22898 1.64069 -2.87396)
(-0.692697 0.826942 0.656093)
(-4.7767 7.36404 -3.42275)
(12.3169 20.7909 -10.9769)
(-1.19978 -1.49413 -2.04109)
(-5.67419 14.9774 5.59056)
(-0.00701134 0.0028094 -0.0164632)
(10.8968 -7.84849 -1.41473)
(16.2248 6.44991 -4.99989)
(8.25648 17.4018 14.1309)
(-9.95203 -16.6388 19.8759)
(4.96536 -2.11051 4.84478)
(-2.14386 1.41186 1.02444)
(0.776313 0.722914 0.969118)
(21.0639 -0.599752 15.1043)
(1.98974 2.96786 3.00773)
(6.19779 1.577 5.78615)
(3.46574 -4.81052 2.3136)
(8.56814 1.19181 0.501292)
(-4.86137 10.0562 -10.2249)
(0.786041 2.21517 1.73806)
(2.96794 16.248 12.6047)
(13.6785 0.585694 -2.87702)
(-11.9618 -3.51528 -2.79591)
(-15.0764 -8.62827 16.25)
(-0.974899 -0.861488 0.812467)
(-6.61263 -0.89528 -10.4121)
(-0.0220792 2.37627 -1.569)
(-0.27354 0.045786 0.249757)
(7.27235 21.6815 0.909132)
(-8.02712 -1.82742 -5.30499)
(0.500097 -0.0791557 0.721118)
(0.259096 -0.268139 0.436381)
(1.18942 0.24226 0.0180902)
(-13.5492 2.9241 4.30536)
(1.12931 -0.407068 0.0111259)
(-2.39983 -4.14294 -8.09536)
(-16.3775 -5.27481 2.92785)
(-0.267978 -1.99731 -8.55466)
(11.0989 29.1256 -12.2145)
(0.102377 3.40365 -2.49015)
(-3.43298 11.2494 3.97408)
(0.737356 -29.5381 -14.1703)
(-13.6806 18.7463 -0.636965)
(-3.52997 -2.84928 -0.156762)
(0.659445 5.44792 -6.50686)
(-5.77986 5.76751 -0.823601)
(10.2779 -14.3335 5.56203)
(8.2996 -0.0802805 3.52469)
(-8.01861 9.76053 -3.63775)
(-14.0736 17.8189 -1.80358)
(7.95273 -11.8365 -16.96)
(-0.631428 3.43251 0.499698)
(24.2972 24.0624 -8.17108)
(12.967 -4.83677 -1.86645)
(9.05279 -3.15327 -1.83198)
(4.35952 6.16261 -7.33434)
(7.64076 -13.2076 -5.57993)
(3.39311 -1.49523 5.39481)
(0.587729 13.2613 3.40062)
(10.1535 17.9029 1.37812)
(5.52365 0.70024 2.64297)
(0.651309 0.915229 -3.92097)
(2.42009 -3.64823 4.67251)
(-11.5872 -1.1883 -9.52978)
(-5.73724 -1.10167 4.79386)
(1.93388 3.44942 -5.93479)
(-10.7062 1.03695 -5.44284)
(-15.524 16.9403 11.0907)
(0.242524 -0.250988 0.408468)
(-7.0692 1.01272 0.936565)
(-0.352084 -1.62268 0.0960791)
(0.393577 -4.00878 -4.41963)
(8.08764 11.0356 -8.3557)
(30.3133 4.42445 6.51291)
(-1.09012 2.17139 -0.483305)
(-1.30693 0.708612 -0.824484)
(-10.2672 9.92149 -10.4192)
(-0.103357 0.395123 -0.207978)
(12.156 3.06205 0.37833)
(2.18442 0.341531 -0.787865)
(8.2058 0.28494 5.01917)
(0.962396 -7.9495 -27.3665)
(8.10726 7.71455 3.45031)
(0.604096 7.09545 -4.24531)
(7.93116 9.77802 -3.91452)
(-19.4105 13.4171 -17.3814)
(-2.69327 3.39061 -1.70156)
(9.68893 3.92069 -0.536175)
(-14.4259 11.5411 -0.259829)
(16.7383 -1.21901 2.98616)
(-0.140943 0.227758 -0.14221)
(3.37888 19.9685 -13.1467)
(8.52592 3.84909 -0.171365)
(-0.451333 -0.876278 -1.05916)
(0.244 -0.177026 0.527139)
(13.7149 2.51189 -8.79667)
(-3.40284 2.17658 -24.8727)
(-9.21462 6.0191 -6.2099)
(4.46169 7.13555 -0.106621)
(-7.00013 -2.86725 -0.0828183)
(0.857023 -6.96965 -2.45319)
(6.44369 -1.89962 5.87943)
(-2.14454 7.62139 2.26825)
(-0.468449 -0.548559 0.444792)
(4.62412 6.68329 -0.294073)
(-1.08888 -5.78139 -4.20741)
(-0.105216 12.5306 2.26708)
(-1.77327 -0.34701 2.85802)
(-2.4923 9.38075 -3.19581)
(-5.66532 12.8882 8.42411)
(-4.5087 2.28959 -7.54109)
(7.08963 -32.4118 9.66642)
(0.626934 0.205297 -0.833288)
(0.505628 2.76807 2.14737)
(4.54578 5.33152 -2.49442)
(-3.99834 -5.09322 1.7901)
(2.83519 -1.4971 4.94502)
(9.80409 -3.65698 -1.41119)
(2.38681 4.52304 -4.5314)
(9.69818 -0.920634 -5.44358)
(-21.5842 4.93524 11.666)
(-6.73781 7.35252 4.81364)
(18.8658 18.8586 0.175472)
(0.677336 6.33058 1.2748)
(-5.67193 -9.70689 7.11812)
(0.208743 -0.0391177 -0.0153089)
(-9.47914 -10.5718 2.61306)
(1.78697 -0.238101 5.73476)
(-0.494832 1.04697 2.91767)
(-6.10297 -1.79351 -1.42648)
(0.113883 -0.174628 -0.108728)
(2.02393 12.1246 -0.192494)
(7.57225 4.5845 -8.66772)
(-3.05509 -2.21819 -6.46844)
(-20.0914 -10.4862 6.23459)
(-2.65533 -6.98651 -2.03298)
(2.90004 -1.86221 1.09382)
(2.61641 -2.93361 -3.8557)
(0.885951 -1.65643 1.06841)
(-4.76127 -0.88761 5.55426)
(-0.123396 -0.957639 -13.0198)
(2.64881 -2.96994 -3.90344)
(23.3131 -10.7894 2.47447)
(-13.093 -7.59422 -4.55048)
(-8.83496 -5.98972 12.7184)
(6.60478 -9.56327 -1.44723)
(-19.8097 -13.8647 6.10059)
(-5.26841 -3.4867 -7.76466)
(-7.08631 -8.8008 -4.74538)
(4.8156 -0.390234 -6.14212)
(-14.3903 -19.2142 0.528381)
(11.0764 -5.13614 -0.102502)
(6.01514 -4.25408 1.20715)
(0.474123 -1.71536 -2.02284)
(3.2976 -6.50516 0.205352)
(21.8811 -21.8271 18.7368)
(-25.0068 -12.1333 -9.83432)
(-1.1382 -0.623275 0.279854)
(-4.95451 -14.209 -1.63696)
(1.1097 -1.02051 0.298262)
(4.54574 -5.22775 4.11895)
(-2.45771 -4.76879 -22.4617)
(14.5291 -0.130979 33.6735)
(-8.33175 -2.90956 -9.68495)
(-9.2196 -6.25049 13.2721)
(-0.678164 -4.35999 7.2239)
(-70.4159 -8.66695 -13.9674)
(-0.57935 -1.03496 1.68775)
(1.95376 -1.97429 -2.57223)
(1.30237 -2.95192 -2.48641)
(-8.59181 -5.25844 -6.74369)
(-8.41521 -3.38607 3.96201)
(8.63929 -9.67898 -50.6427)
(8.65053 -1.60181 -2.82795)
(-1.31349 -15.0364 -10.985)
(-1.84575 -4.11349 4.27352)
(0.741501 -0.843023 3.23751)
(-0.489307 -0.502311 0.245185)
(0.0675994 -0.633796 -0.409114)
(-3.29793 -5.18017 4.37542)
(0.213521 -7.27045 8.48843)
(-4.96585 -2.84032 2.14081)
(3.10488 -0.682973 -0.856866)
(1.0567 -9.72624 -11.5641)
(0.922989 -6.18179 -25.1317)
(-16.1381 -14.2513 21.7695)
(20.6023 -6.66925 17.7381)
(12.3385 -7.04905 -35.5913)
(5.08547 -0.91186 3.1753)
(-3.52105 -4.7127 14.9664)
(10.861 -5.53935 -4.4868)
(-6.20565 -2.43489 -3.6226)
(-2.12102 -0.266954 -22.532)
(12.3164 -8.32975 -4.7904)
(22.0996 -14.9766 20.3665)
(-0.674901 -1.91436 9.65442)
(-3.32522 -8.87913 -2.0306)
(-8.58677 -2.05158 -7.20325)
(0.205469 -6.95647 -3.6601)
(-1.76559 -3.93485 4.08793)
(-6.244 -4.32655 -2.01824)
(-1.943 -16.3406 11.8672)
(1.29993 -0.0826599 -0.559791)
(-7.05905 -0.0853144 4.16962)
(4.6768 -2.6385 11.3023)
(5.11565 -21.9467 -8.46888)