/*--------------------------------*- C++ -*----------------------------------*\
  =========                 |
  \\      /  F ield         | OpenFOAM: The Open Source CFD Toolbox
   \\    /   O peration     | Website:  https://openfoam.org
    \\  /    A nd           | Version:  7
     \\/     M anipulation  |
\*---------------------------------------------------------------------------*/
FoamFile
{
    version     2.0;
    format      ascii;
    class       scalarField;
    location    "0.7/lagrangian/reactingCloud1";
    object      yH2O;
}
// * * * * * * * * * * * * * * * * * * * * * * * * * * * * * * * * * * * * * //


2429
(
0.022
0.022
0.022
0.022
0.022
0.022
0.022
0.022
0.022
0.022
0.022
0.022
0.022
0.022
0.022
0.022
0.022
0.022
0.022
0.022
0.022
0.022
0.022
0.022
0.022
0.022
0.022
0.022
0.022
0.022
0.022
0.022
0.022
0.022
0.022
0.022
0.022
0.022
0.022
0.022
0.022
0.022
0.022
0.022
0.022
0.022
0.022
0.022
0.022
0.022
0.022
0.022
0.022
0.022
0.022
0.022
0.022
0.022
0.022
0.022
0.022
0.022
0.022
0.022
0.022
0.022
0.022
0.022
0.022
0.022
0.022
0.022
0.022
0.022
0.022
0.022
0.022
0.022
0.022
0.022
0.022
0.022
0.022
0.022
0.022
0.022
0.022
0.022
0.022
0.022
0.022
0.022
0.022
0.022
0.022
0.022
0.022
0.022
0.022
0.022
0.022
0.022
0.022
0.022
0.022
0.022
0.022
0.022
0.022
0.022
0.021973
0.022
0.022
0.022
0.022
0.022
0.022
0.022
0.022
0.022
0.022
0.022
0.022
0.022
0.022
0.022
0.022
0.022
0.022
0.022
0.0219999
0.022
0.012888
0.0209427
0.022
0.0219838
0.0219999
0.0217482
0.0217482
0.022
0.022
0.022
0.022
0.022
0.022
0.0219563
0.022
0.0216715
0.0209145
0.0214235
0.022
0.022
0.0219829
0.0217372
0.0219997
0.0212004
0.022
0.0219884
0.0219986
0.0219996
0.022
0.0219999
0.0176694
0.0177518
0.022
0.0218207
0.022
0.0183281
0.0219867
0.0159218
0.0219514
0.022
0.022
0.0219915
0.0121279
0.0204258
0.0219932
0.022
0.0219972
0.0219997
0.0219963
0.022
0.013288
0.0219999
0.0185194
0.022
0.0219989
0.0170103
0.0219875
0.0152647
0.022
0.0219997
0.022
0.0145705
0.0219907
0.0208357
0.022
0.0189273
0.022
0.0219879
0.0184798
0.0154243
0.0219998
0.0219041
0.022
0.0145854
0.0217629
0.0120321
0.0102491
0.00904495
0.0200136
0.0190502
0.022
0.0219892
0.017538
0.0219614
0.0158078
0.0219998
0.00707475
0.021902
0.0219999
0.0217763
0.000100395
0.0193893
0.0174784
0.022
0.00999556
0.022
0.0179976
0.022
0.0122513
0.0144474
0.0218015
0.0219485
0.022
0.022
0.0208716
0.0214014
0.0219996
0.0185281
0.021802
0.0177833
0.0219869
0.0219985
0.0219996
0.0167946
0.0218113
0.0217302
0.0219968
0.0219886
0.0218989
0.022
0.022
0.022
0.022
0.022
0.000345943
0.00709661
0.0128736
0.00932912
0.0219976
0.020905
0.020546
0.0121253
0.015221
0.0219999
0.0218947
0.00804659
0.0218202
6.2141e-05
0.0192603
0.019368
0.0219999
0.0175612
0.022
0.0194753
0.021986
0.0100083
0.0157032
0.0219996
0.0160331
0.016538
0.0136506
0.0195364
0.0208431
6.07726e-05
0.0219999
0.0219964
0.0185543
0.0219671
0.0173445
0.021856
0.01532
0.0169764
0.0159508
0.0219834
0.0166768
0.0219997
0.0199876
0.0150511
0.0219414
0.0110864
0.012263
0.0213792
0.00828914
0.0118185
0.00771546
0.0183753
0.0219998
0.0219849
0.022
0.0219987
0.0218974
0.011946
0.0219997
0.0219993
0.0219985
0.0219994
0.0219982
0.0219996
0.0219984
0.0219997
0.0219982
0.0219991
0.0219993
0.0219999
0.022
0.0011476
0.0107256
0.00623409
0.0107774
0.0167057
0.0156299
0.0218288
0.0202774
0.0151387
0.0102187
0.0219968
0.014129
0.0219884
0.0116879
0.0113319
0.0138348
0.00145944
0.0219959
0.0156529
0.0219916
0.00569513
0.00934778
0.0219878
0.0219944
0.0123107
0.0206936
0.0148385
0.0186379
0.0196649
0.0201228
0.0131057
0.0172832
0.0219986
0.0174641
0.00729448
0.021982
0.0187424
0.0175561
0.0198971
0.0134022
0.00656849
0.0219573
0.0166275
0.0219466
0.0218664
0.0147801
0.0219933
0.0186425
0.0219519
0.0219953
0.0191578
0.0074324
0.0147349
0.0219999
0.0193688
0.0217114
0.0143896
0.0123709
0.0219971
0.00949261
0.0219995
0.0166803
0.0216546
0.0125881
0.0113484
0.0135143
0.0135143
0.0100937
0.0216421
0.0219998
0.0158874
0.0163406
0.0168892
0.0219993
0.0219543
0.0219377
0.0219046
0.0219046
0.0219665
0.0219309
0.0219854
0.0219377
0.0219543
0.0219869
0.0219869
0.0219377
0.0219727
0.0219438
0.0219377
0.0219904
0.0219233
0.02198
0.0219923
0.0219923
0.0219727
0.0219233
0.0219438
0.0219882
0.0219894
0.0219543
0.0219046
0.0219438
0.021995
0.0219543
0.021982
0.0219493
0.0219964
0.0219971
0.0219971
0.00176762
0.00571283
0.0088015
0.0018345
0.010274
0.0145444
0.00113994
0.00704094
0.0109717
0.010274
0.00313048
0.000862706
0.0126329
0.0162629
0.0152991
0.0087844
0.00634192
0.00280621
0.00968588
0.0159383
0.00899047
0.019169
0.000146219
0.0126004
0.00756433
0.0219698
0.0147228
0.015695
0.0112671
0.0218451
0.0205887
0.0001094
0.0033495
0.0218871
0.00902285
0.0129041
0.00435702
0.00877293
0.0168293
0.0121706
0.0197798
0.0143827
0.0143827
0.0210159
0.0216836
0.021715
0.00812108
0.00716944
0.0160483
0.0202635
0.0154666
0.00856409
0.0165579
0.00547831
0.0219721
0.00640691
0.0187835
0.0180994
0.0150428
0.00840564
0.018193
0.0219179
0.00846158
0.0062025
0.0115004
0.0158806
0.0091952
0.00154153
0.00132265
0.0157812
0.0154371
0.0164729
0.021995
0.00601485
0.0219815
0.0159415
0.012909
0.0108526
0.0214881
0.0193915
0.0204536
0.0167419
0.0197779
0.0129365
0.0125687
0.0141138
0.0213319
0.0193915
0.0125687
0.0213319
0.0141138
0.0122133
0.0181074
0.0171992
0.0122133
0.0193915
0.0167419
0.0176555
0.0215636
0.0201337
0.0216449
0.0153918
0.0145296
0.0137094
0.0197779
0.0122133
0.0141138
0.0207337
0.0217095
0.0122133
0.0145296
0.0133169
0.0189805
0.0217095
0.0217095
0.0129365
0.0201337
0.0207337
0.0122133
0.0213319
0.0209725
0.0215636
0.0125687
0.0122133
0.0185507
0.0218024
0.0133169
0.021461
0.0122133
0.021461
0.0201337
0.0137094
0.0162867
0.0129365
0.0201337
0.0207337
0.0125687
0.0171992
0.0181074
0.0145296
0.0218337
0.0218579
0.0204536
0.0171992
0.0215636
0.0211707
0.0137094
0.0211707
0.015836
0.0218579
0.0149559
0.0218769
0.0176555
0.0217095
0.0137094
0.015836
0.0171992
0.0218769
0.0129365
0.00174241
0.00130363
0.00170748
0.00461436
0.0014351
0.00352953
0.00291869
0.000196046
0.00877359
0.0218922
0.00957833
0.00833432
0.00427353
0.0113444
0.00708617
0.00760177
0.00760177
0.00565259
0.0094022
0.021461
0.0114775
0.00721959
0.0129365
0.0114756
0.00606532
0.00702523
0.012809
0.0124513
0.00840844
0.00771493
0.0111025
0.0136186
0.0019415
0.00492485
0.00592637
0.00343707
0.0114528
0.00802277
0.00678191
0.00855457
0.00500092
0.00184219
0.0077757
0.00867529
0.0077757
0.0119371
0.0123733
0.0138882
0.00872574
0.0061789
0.00699385
0.0117017
0.00876435
0.00945864
5.45646e-05
0.00565597
0.00836563
0.0023203
0.00458905
0.00934704
0.0154798
0.00859348
0.00859348
0.0170566
0.0137864
0.0154798
0.00520754
0.00520754
0.0166144
0.0218922
0.00713305
0.00148574
0.0120288
0.0114998
0.00555842
0.00107746
0.00753179
0.00435113
0.00448945
0.00668246
0.00858422
0.0145386
0.000629891
0.00526174
0.00263168
0.0124069
0.00858422
0.0129687
0.00756997
0.0129687
0.0128823
0.0078753
0.0078753
0.0140447
0.00319695
0.0107242
0.0207366
0.0185071
0.0172551
0.0063709
0.0181954
0.00505209
0.00122331
0.00187736
0.00621768
0.00685393
0.0117674
0.0157229
0.00993394
0.00939095
0.0136257
0.00819772
0.0186841
0.0118051
0.00909262
0.0119702
0.00992323
0.0125767
0.00255211
0.0163351
0.0177999
0.0135114
0.00875387
0.00875387
0.017649
0.0217934
0.00856869
0.0146029
0.0095029
0.0165189
0.0141028
0.00659124
0.00784647
0.00717266
0.00608698
0.00749695
0.00701929
0.00659124
0.00575175
0.00633031
0.0055462
0.00766841
0.00803143
0.00863094
0.00672882
0.00575175
0.00842333
0.00701929
0.00717266
0.00863094
0.00803143
0.00930463
0.00672882
0.00803143
0.00701929
0.00544836
0.00784647
0.00645848
0.00733179
0.00749695
0.00803143
0.00672882
0.00608698
0.00544836
0.0060854
0.00733179
0.00620654
0.00585975
0.00884678
0.00575175
0.00822361
0.00803143
0.00575175
0.00585975
0.00954738
0.00954738
0.00766841
0.00733179
0.00733179
0.00535362
0.00608698
0.00659124
0.00608698
0.00979985
0.00979985
0.00564729
0.00907122
0.00717266
0.00979985
0.00597144
0.00585975
0.00672882
0.00597144
0.00979985
0.00907122
0.00717266
0.00822361
0.00687142
0.0100624
0.00717266
0.00544836
0.00822361
0.00884678
0.00884678
0.00749695
0.00842333
0.00672882
0.00749695
0.00822361
0.00687142
0.00717266
0.00749695
0.00544836
0.00575175
0.00954738
0.00620654
0.00608698
0.00803143
0.00564729
0.00766841
0.00863094
0.00701929
0.0103355
0.00597144
0.00535362
0.0103355
0.00717266
0.00884678
0.00687142
0.00717266
0.00597144
0.00784647
0.00749695
0.00585975
0.00564729
0.00884678
0.00733179
0.00544836
0.00597144
0.00544836
0.00930463
0.00907122
0.00672882
0.00659124
0.00822361
0.0055462
0.00749695
0.00585975
0.00863094
0.0106194
0.00575175
0.00564729
0.00672882
0.00597144
0.00544836
0.00749695
0.00633031
0.00954738
0.00717266
0.0109145
0.00907122
0.00842333
0.00535362
0.00842333
0.00544836
0.00717266
0.0109145
0.00620654
0.00954738
0.0109145
0.00535362
0.0055462
0.00535362
0.00608698
0.0112212
0.00766558
0.00608698
0.00645848
0.00633031
0.00842333
0.00979985
0.00907122
0.00687142
0.00930463
0.00954738
0.00803143
0.0112212
0.00733179
0.00784647
0.00749695
0.0100624
0.00842333
0.00608698
0.00784647
0.00585975
0.00687142
0.00701929
0.00749695
0.0115397
0.00766841
0.0115397
0.00687142
0.00672882
0.00907122
0.00766841
0.00717266
0.00659124
0.00784647
0.00608698
0.00597144
0.00620654
0.00701929
0.00803143
0.00585975
0.00749695
0.00749695
0.00597144
0.00954738
0.0106194
0.0103355
0.00608698
0.00672882
0.00842333
0.00822361
0.00822361
0.00564729
0.000433693
0.00979985
0.00564729
0.00127282
0.00184258
0.00130374
0.00229251
0.00212637
0.00195695
0.00372238
0.00478763
0.00478763
0.000999847
0.00659124
0.00456917
0.00509749
0.00234114
0.00198743
0.00529249
0.0047168
0.00427458
0.00512967
0.00209239
0.00392545
0.00070864
0.0050159
0.00451263
0.00521371
0.00518121
0.00365121
0.00473598
0.00564311
0.00551738
0.00515532
0.00532681
0.004885
0.00526074
0.00766841
0.0115397
0.00346025
0.00477559
0.00577651
0.00487124
5.69287e-05
0.00518038
0.0048895
0.0115397
0.00565965
0.00587429
0.0118703
0.00421514
0.00598191
0.00448547
0.00416142
0.00475662
0.00525851
0.00493593
0.000361588
0.0043012
0.00605691
0.00396302
0.00662855
0.00562752
0.00293567
0.0038271
0.00863094
0.00451001
0.00368929
0.00644711
0.00538719
0.00443238
0.00532332
0.00588844
0.00533088
0.00207904
0.00601637
0.00663487
0.0069235
0.00979985
0.00733682
0.00634263
0.00638764
0.00433327
0.00489411
0.00671247
0.00502181
0.00782689
0.00517158
0.00583304
0.00683897
0.00802825
0.0045827
0.00578112
0.00759439
0.00803143
0.00562777
0.00554613
0.00515496
0.00665313
0.00695615
0.00216214
0.00602989
0.00644292
0.00210675
0.00676907
0.00807445
0.00510918
0.00812222
0.00761117
0.00576453
0.00813909
0.00846066
0.00831938
0.00808976
0.00881162
0.00889941
0.00426502
0.00610226
0.00313467
0.00589222
0.00885505
0.00551233
0.00816685
0.00647177
0.00843261
0.00871566
0.0063506
0.00860981
0.0103596
0.00687673
0.00940123
0.00234451
0.00732813
0.00281265
0.00962142
0.00951705
0.00660501
0.00227945
0.00498661
0.00732121
0.0115127
0.00948547
0.0118612
0.00143182
0.0105502
0.00677763
0.00677763
0.00741507
0.00702923
0.0034885
0.00429201
0.0036616
0.00441825
0.00344728
0.00405956
0.00344728
0.00417261
0.00332779
0.0036616
0.0036616
0.00332779
0.00405956
0.00441825
0.00405956
0.00375387
0.0034885
0.00429201
0.00370721
0.00357329
0.00448411
0.00441825
0.00435424
0.00380166
0.00344728
0.00441825
0.00455188
0.00423149
0.00455188
0.00448411
0.00469349
0.00448411
0.00455188
0.00462165
0.00375387
0.00336697
0.00357329
0.00435424
0.00429201
0.00455188
0.00336697
0.00340679
0.00385063
0.00469349
0.00353048
0.00400526
0.00476749
0.00375387
0.00462165
0.00353048
0.00429201
0.00484373
0.00385063
0.00353048
0.00484373
0.00340679
0.00484373
0.00455188
0.00435424
0.00375387
0.00462165
0.00361697
0.00484373
0.00385063
0.00411532
0.00385063
0.00344728
0.00405956
0.00411532
0.00400526
0.00395237
0.00361697
0.00435424
0.00469349
0.00423149
0.0036616
0.00332779
0.00492229
0.00492229
0.00411532
0.00448411
0.00462165
0.0034885
0.00380166
0.00423149
0.00395237
0.00344728
0.0034885
0.00395237
0.00390085
0.00448411
0.0036616
0.00375387
0.00462165
0.00395237
0.00375387
0.0034885
0.00370721
0.00429201
0.00405956
0.00455188
0.00423149
0.00417261
0.00400526
0.00500329
0.00500329
0.00357329
0.00344728
0.0036616
0.00332779
0.00476749
0.00417261
0.00400526
0.00508681
0.00326853
0.00435424
0.00361697
0.00508681
0.00462165
0.0032892
0.00344728
0.00423149
0.00332779
0.00332779
0.00395237
0.00500329
0.00423149
0.00423149
0.00500329
0.00508681
0.00336697
0.00455188
0.0034885
0.00441825
0.00423149
0.00435424
0.00517297
0.00411532
0.00411532
0.00390085
0.00517297
0.00429201
0.00448411
0.00340679
0.00429201
0.00385063
0.00517297
0.00435424
0.00455188
0.00429201
0.00423149
0.00517297
0.00517297
0.00462165
0.00353048
0.00462165
0.00517297
0.00340679
0.00340679
0.00517297
0.00395237
0.00353048
0.00361697
0.00526187
0.00526187
0.00526187
0.00370721
0.00455188
0.00526187
0.00336697
0.00417261
0.00508681
0.00476749
0.00380166
0.00361697
0.00441825
0.00370721
0.00060132
0.00219366
0.000303967
0.00110007
0.00226254
0.00317763
0.000809029
0.00318632
0.00259222
0.00328697
0.00411532
0.00234792
0.00324674
0.00315276
0.00250295
0.00166898
0.00210364
0.00304746
0.00276939
0.00169716
0.00411532
0.00271599
0.0036616
0.0033163
0.00273214
0.000804773
0.00307331
0.00345952
0.00271782
0.00361697
0.00326197
0.00290414
0.00325441
0.000558472
0.00287925
0.00212901
0.00254449
0.00352453
0.0036616
0.000879553
0.00311857
0.00361415
0.00395237
0.00290873
0.00342151
0.00365868
0.00417261
0.00469349
0.00319617
0.00362092
0.00276002
0.00182652
0.00335721
0.00526187
0.00517297
0.00255559
0.0016557
0.002292
0.0030563
0.000988053
0.00361276
0.0036999
0.00372375
0.00350697
0.00346719
0.00382918
0.00335208
0.00245157
0.00381141
0.00394076
0.00144373
0.00345545
0.00393085
0.00337466
0.00320225
0.0038251
0.00406396
0.00172725
0.00306863
0.0036908
0.00323523
0.0026991
0.00386267
0.00337119
0.00248834
0.00429201
0.00354161
0.00416882
0.00393817
0.00309176
0.00279192
0.00393817
0.00391594
0.00216503
0.00432009
0.00425223
0.00526187
0.00219878
0.00441362
0.00440649
0.00423021
0.00353119
0.00120119
0.00401345
0.00289791
0.00391942
0.00466792
0.00468811
0.00435753
0.00451583
0.00526187
0.00476749
0.00368122
0.00267014
0.00453873
0.00286915
0.00474106
0.00484284
0.00450684
0.00462842
0.00323482
0.00120809
0.00337547
0.00319969
0.00467222
0.00478479
0.00214563
0.00273124
0.00421155
0.00109576
0.00451678
0.00499698
0.00471883
0.00250482
0.00508681
0.00391407
0.00508681
0.00335125
0.00503561
0.00496858
0.00154331
0.00522794
0.00262924
0.00246884
0.00266194
0.0026948
0.00259673
0.00228642
0.00214891
0.00276099
0.00296362
0.00214891
0.00289525
0.0026948
0.00262924
0.00217508
0.00272782
0.00272782
0.00225764
0.00253231
0.00220193
0.00276099
0.00256441
0.00262924
0.00299823
0.00272782
0.00214891
0.00259673
0.00286141
0.00266194
0.00289525
0.00228642
0.00282777
0.00243752
0.00243752
0.00266194
0.00214891
0.00250045
0.00225764
0.00306842
0.00272782
0.0026948
0.00306842
0.00222947
0.00272782
0.00253231
0.00225764
0.00256441
0.00222947
0.0027943
0.00231574
0.0026948
0.00272782
0.00292931
0.00282777
0.00228642
0.00286141
0.00237568
0.00220193
0.00220193
0.00217508
0.00228642
0.00272782
0.00246884
0.00220193
0.00237584
0.00214891
0.00217508
0.0026948
0.00237584
0.00292931
0.00262924
0.00225764
0.00296362
0.00286141
0.00243752
0.00246884
0.00217508
0.00306842
0.00299823
0.00299823
0.00292931
0.00310409
0.00253231
0.00259673
0.0024065
0.00310409
0.00310409
0.0024065
0.00243752
0.00299823
0.00289525
0.00231574
0.00237584
0.0026948
0.00314017
0.00296362
0.00217508
0.00296362
0.00289525
0.0026948
0.00237584
0.00299823
0.00237584
0.00234557
0.0027943
0.00253231
0.00310409
0.00306842
0.00262924
0.00228642
0.00266194
0.00262924
0.00292931
0.00314017
0.00220193
0.00225764
0.0026948
0.00231574
0.00314017
0.00243752
0.00243752
0.0022575
0.00246884
0.00217508
0.00231574
0.00282777
0.00299823
0.00243752
0.00276099
0.00256441
0.00272782
0.00228642
0.00282777
0.00228642
0.00246884
0.00214891
0.00220193
0.00217508
0.00222947
0.00259673
0.00222947
0.00250045
0.00214891
0.00276099
0.00286141
0.00259673
0.0027943
0.00250045
0.00314017
0.0024065
0.00303315
0.00306842
0.00234557
0.00296362
0.00253231
0.00243752
0.00321368
0.00259673
0.00253231
0.00286141
0.00321368
0.00231574
0.0027943
0.00246884
0.0026948
0.00276099
0.00299823
0.00250045
0.00321368
0.00282777
0.00299823
0.00243752
0.00231574
0.00289525
0.00321368
0.00321368
0.00317669
0.0022011
0.00321368
0.00253231
0.00256441
0.00246884
0.00250045
0.00246884
0.00325117
0.00289525
0.00237584
0.00325117
0.0024065
0.00325117
0.00120759
0.00133808
0.000968449
0.0009283
0.00111188
4.2495e-05
0.00152533
0.000556731
0.000816464
0.000952075
0.0021429
0.00170393
0.00222947
0.00177748
0.00203256
0.00207548
0.00214759
0.00115349
0.00216917
0.00126192
0.00170309
0.00216059
0.00190065
0.00128475
0.00146258
0.000907621
0.00134703
0.00117207
0.00213065
0.00184366
0.00209424
0.00213401
0.00144258
0.00197589
0.00126517
0.00185968
0.00217494
0.00234557
0.00325117
0.00222947
0.00314017
0.002139
0.001805
0.00191078
0.00197047
0.0022286
0.00190393
0.00197847
0.00256441
0.00169321
0.000155036
0.00224167
0.00137846
0.0017528
0.00325117
0.00206155
0.00225764
0.00204638
0.0026948
0.00155953
0.00325117
0.00228487
0.000853808
0.000956654
0.00162275
0.0021995
0.00220524
4.2495e-05
0.000967593
0.00127937
0.00224637
0.00219423
0.00224171
0.00123554
0.00223739
0.00186864
0.00152027
0.00219167
0.00215383
0.00234307
0.00208783
0.00195732
0.000439415
0.00237222
0.00232859
0.0022595
0.0023464
0.00205257
0.00229708
0.00212313
0.00145223
0.00187448
0.00217687
0.00220153
0.00232004
0.00240277
0.00189068
6.15337e-05
0.00117724
0.00090484
0.00231463
0.000595222
0.00240948
0.00213581
0.0023056
0.00215473
0.00244896
0.00239325
0.00321368
0.00244708
0.0023999
0.00253213
0.00124949
0.0024903
0.00195548
0.00178489
0.00246269
0.00146664
0.0021384
0.00243102
0.00250775
0.00237432
0.000594661
0.00237081
0.00254315
0.00258496
0.00282777
0.00156307
0.00253551
0.00210952
0.00262463
0.0026597
0.00168967
0.00179559
0.00164988
0.00257779
0.00262904
0.000922905
0.00247635
0.00239432
0.00242965
0.00136837
0.0012502
0.00237003
0.000155935
0.00199533
0.00160544
0.00216581
0.00221029
0.00268245
0.00243826
0.000104347
0.00252134
0.000274728
0.00172623
0.00263164
0.00262306
0.00252134
0.00023108
0.00256429
0.00274407
0.00286141
0.00234816
4.2495e-05
0.00274715
0.00282594
0.00278803
0.000785974
0.00167597
0.00209693
0.00252395
0.00265984
0.00292763
0.00250985
0.00292931
0.00119961
0.00141541
0.00278645
0.00209456
0.00294747
0.00281393
0.00260931
0.00299823
0.00188506
0.00149287
0.00286268
0.0029573
0.00282573
0.0029573
0.00210797
0.00276474
0.00280624
0.00160496
0.00273542
0.00267197
0.00325117
0.000276022
0.00258832
0.00200228
0.00261676
0.00284415
0.00300194
0.00151618
0.00310314
0.00276421
0.00204656
0.00286226
0.000743936
0.0030357
0.00307417
0.00293683
0.0026109
0.00238038
0.00162377
0.0028313
0.00289999
0.00321013
0.00117642
0.00299884
0.00314621
0.00295562
0.00310585
0.00143231
0.00191468
0.00154201
0.00143231
0.00147511
0.00163499
0.00143231
0.00198198
0.00205068
0.00175331
0.00145353
0.00180025
0.00200459
0.00189213
0.00200459
0.00191468
0.00175331
0.00132272
0.00168227
0.00195952
0.00151935
0.00132272
0.00156497
0.00143231
0.0018235
0.00175331
0.00143231
0.00170598
0.00170598
0.00189213
0.00170598
0.00149704
0.00189213
0.00156497
0.00200459
0.00139056
0.00191468
0.00191468
0.00198198
0.00193712
0.00198198
0.00147511
0.00143231
0.00168227
0.00189213
0.00134684
0.00172968
0.00189213
0.0016115
0.00193712
0.00141139
0.00207436
0.00134684
0.0013693
0.00163499
0.00200459
0.00186944
0.0016115
0.00141139
0.00189213
0.00145353
0.00143231
0.00145353
0.00205068
0.00132272
0.00202745
0.00170598
0.00177685
0.00141139
0.00158816
0.0013693
0.00154201
0.00205068
0.00132272
0.00175331
0.00149704
0.00205068
0.00172968
0.00191468
0.00189213
0.00165859
0.0016115
0.00141139
0.00189213
0.00193712
0.00163499
0.00184657
0.00165859
0.00134684
0.00195952
0.00193712
0.00207436
0.0013693
0.00205068
0.00186944
0.00149704
0.00193712
0.00207436
0.00193712
0.00151935
0.00139056
0.00143231
0.00191468
0.00163499
0.00156497
0.00205068
0.00154201
0.00143231
0.0013693
0.00205068
0.00170598
0.0016115
0.00132272
0.00154201
0.00191468
0.00200459
0.00139056
0.00202745
0.00207436
0.00209859
0.00180025
0.00207436
0.00156497
0.00132272
0.00145353
0.0016115
0.00186944
0.00198198
0.00163499
0.00191468
0.00186944
0.00170598
0.00170598
0.00200459
0.00139056
0.00158816
0.00165859
0.00170598
0.00147511
0.00143231
0.00158816
0.00151935
0.00151935
0.00158816
0.00149704
0.00209859
0.00175331
0.00202745
0.00184657
0.00177685
0.00165859
0.0013693
0.00191468
0.00200459
0.0016115
0.00195952
0.00184657
0.00172968
0.00198198
0.00186944
0.00209859
0.0016115
0.00172968
0.00198198
0.00200459
0.00209859
0.00165859
0.00184657
0.00180025
0.00177685
0.00170598
0.00168227
0.0016115
0.00189213
0.00184657
0.00205068
0.00209859
0.00177685
0.00141139
0.00207436
0.00151935
0.00186944
0.00158816
0.00172968
0.00170598
0.00141139
0.00172968
0.00168227
0.00149704
0.00184657
0.0018235
0.00172968
0.00168227
0.00168227
0.00189213
0.00139056
0.00207436
0.00149704
0.00202745
0.00132272
0.00193712
0.00147511
0.00132272
0.00186944
0.00145353
0.00154201
4.24952e-05
0.000340436
0.00195952
0.0016115
0.000902255
5.52161e-05
4.2495e-05
0.00195952
0.000330328
0.000684342
0.000362368
0.000653921
0.000928387
0.000563427
0.00143231
0.000956215
4.25033e-05
0.00120224
0.00111923
0.00132268
0.00132127
0.00102978
0.0010531
0.000771249
0.000622815
0.000884965
0.000400983
0.000757941
0.00101057
0.00127804
0.00129315
0.000482322
0.0013693
0.00123693
0.00102584
0.00131506
0.00172968
0.000860641
0.00134456
0.00113645
0.000352465
0.00107734
0.00101491
0.00127771
0.00129312
0.00128657
0.00139056
0.00125579
0.0013693
0.00136887
0.00132169
0.00121659
0.001171
0.00101924
0.00113382
0.00102968
4.26083e-05
0.000143339
0.00131142
0.00059462
0.001171
0.00139012
0.00168227
0.00133289
0.00189213
0.00134674
0.0016115
0.00137257
0.000987673
0.000772374
0.00131672
0.00138855
0.00138029
0.00126105
0.000917961
0.000972695
0.00212342
0.00108386
0.000995856
0.00123326
0.000656759
0.00137041
0.00132387
0.0010007
0.00131926
0.00141135
0.00112713
0.00117641
0.00114348
0.00131372
0.00137744
0.00132411
0.00116489
4.2627e-05
0.0013845
0.000631754
4.2495e-05
0.00140257
0.000981094
0.00149704
0.00120602
0.000881542
0.00127496
0.000759725
0.000861345
0.00102869
0.00125981
0.00142797
0.00121171
0.00107234
0.00168227
0.00137983
0.00141171
0.00209859
0.00133695
0.00138978
0.00126744
0.00104006
0.0014432
0.00129679
0.00107234
0.00142278
0.000920945
0.00198198
0.00205068
0.00142547
0.00125881
0.00134781
0.00144147
0.00180025
0.00117215
0.00145984
0.00149514
0.00149514
0.00145216
0.00189213
0.00105336
0.00122995
0.000310249
0.000527347
0.00149652
0.00113606
0.00117936
0.00143373
0.00209859
0.00117463
0.00149514
0.001487
0.00140363
0.00149232
0.00209859
0.00149561
0.00147283
0.00150292
0.00127932
0.00136252
0.0014003
0.00136115
0.0015182
0.00180025
0.00202745
0.00200459
0.00148123
0.00143557
0.00150655
0.00156497
0.00146126
4.2495e-05
0.00146016
0.00172968
0.00105064
0.000290729
0.0014793
0.00146126
0.00153888
0.00146835
0.0014793
0.00193712
0.00152499
0.00128482
0.00153026
0.00118401
0.00153888
0.00148024
0.00156497
0.00078773
0.000278187
0.00155595
0.00141145
0.00152407
4.24966e-05
0.00145815
0.00151507
0.00157771
0.000291609
0.00138762
0.000665121
0.0018235
0.00152618
0.00158688
0.00114557
0.00157985
0.00129721
0.00158755
0.00117583
0.00153149
0.00138757
0.00155618
0.00170598
0.00160923
0.00130381
0.00148621
0.00161113
0.00154797
0.001413
0.00136218
0.00144718
0.00160485
0.00207436
0.00157208
0.00198198
0.000755038
0.00160289
0.000935104
0.00159639
0.000413739
0.00163316
0.00209859
0.00154095
0.00145208
0.00126138
0.00141116
0.00163485
0.00163485
0.000868159
0.00142514
0.000351263
0.0016582
0.00149152
0.00158086
0.00103495
0.00146307
0.000727448
0.00090043
0.000815462
0.0016784
0.00160814
0.00205068
0.00166604
0.000686124
0.000922359
0.00158684
0.00161262
0.0016091
0.000160585
0.00163863
0.00162282
0.00169723
0.00117802
0.00122851
0.000968333
0.00101405
4.2495e-05
0.00150891
0.00167453
0.000636881
0.0014114
0.00136086
0.00177685
0.00207436
0.00171815
0.00172968
0.000873889
0.00171741
0.00153108
0.00172855
0.00148564
0.00170137
0.00122215
0.00172063
0.00127323
0.00144256
0.00153108
0.00166909
0.000535628
0.00173003
0.0016178
0.000139153
0.00152278
0.000778026
0.00174271
0.00174
0.00174
0.00193712
0.000851625
0.00132889
0.00174271
0.00165398
0.00176902
0.00161814
0.00177927
0.00173975
0.00132591
0.00176674
0.000339086
0.00212342
0.00136584
0.000826866
0.00103678
0.00159883
4.2495e-05
0.000909658
0.00212342
0.0013357
0.00109272
0.00181036
0.00174076
0.00172966
0.00155676
0.00134258
0.00168606
0.000202231
0.00120806
0.00141006
0.00139676
0.00182614
0.000759071
0.00167857
0.00151967
0.00104235
0.00155231
0.00193712
0.00202745
0.00178894
0.00159811
0.000837863
0.00176966
0.00184836
0.00182013
0.00178145
0.00180533
0.000710236
0.0014113
0.00173968
0.00119667
4.2495e-05
0.00159792
0.00101655
0.0018793
0.00162535
0.00151354
0.00198198
0.00189016
0.000780517
0.00142855
0.00189428
0.00123278
0.00184407
0.00187818
0.00170906
0.00184079
0.00140138
0.000691517
0.00186062
0.00129338
0.0008595
0.00192177
0.00195892
0.00193784
0.00174755
0.0019558
0.00186868
0.00195144
0.00196375
0.00194479
0.00194197
0.00151028
0.00120993
0.00197226
0.00190072
0.00115538
0.00105965
0.00197923
0.00198189
0.00193652
0.00195071
0.00179221
0.00145818
0.000931234
0.00188989
0.0020035
0.00189457
0.00198775
0.000839788
0.0016442
0.0014908
0.00178322
0.00196476
0.00170082
0.00170082
0.00200026
0.00192373
0.0019616
0.00200676
0.00112532
0.00197013
0.00202113
0.00160343
0.00164618
0.00107091
0.00201881
0.00182889
0.00207183
0.00206891
0.00167702
0.000741521
0.00196854
0.00189239
0.00155964
0.00206709
0.00165023
0.00211631
0.00210136
)


// ************************************************************************* //
