/*--------------------------------*- C++ -*----------------------------------*\
  =========                 |
  \\      /  F ield         | OpenFOAM: The Open Source CFD Toolbox
   \\    /   O peration     | Website:  https://openfoam.org
    \\  /    A nd           | Version:  7
     \\/     M anipulation  |
\*---------------------------------------------------------------------------*/
FoamFile
{
    version     2.0;
    format      ascii;
    class       scalarField;
    location    "0.7/lagrangian/reactingCloud1";
    object      age;
}
// * * * * * * * * * * * * * * * * * * * * * * * * * * * * * * * * * * * * * //


2563
(
0.004115
0.00401
0.003905
0.0038
0.003695
0.00359
0.003485
0.00338
0.003275
0.00317
0.003065
0.00296
0.002855
0.00275
0.002645
0.00254
0.002435
0.00233
0.002225
0.00212
0.002015
0.00191
0.001805
0.0017
0.001595
0.00149
0.001385
0.00128
0.001175
0.00107
0.00106625
0.000965
0.00086
0.000755
0.00065
0.000545
0.00044
0.000335
0.00023
0.00022625
0.000125
2e-05
0.0706146
0.01126
0.010735
0.01042
0.010315
0.01021
0.01
0.0099
0.0098
0.0097
0.0096
0.0095
0.0094
0.0093
0.0092
0.0091
0.009
0.0089
0.0088
0.0086
0.0085
0.0084
0.0083
0.0081
0.0082
0.008
0.0079
0.0078
0.0077
0.0076
0.0075
0.0074
0.0073
0.0087
0.007
0.0072
0.0071
0.0068
0.0069
0.0067
0.0066
0.0065
0.0064
0.0063
0.0061
0.006
0.0059
0.005795
0.00569
0.005585
0.00548
0.005375
0.00527
0.0062
0.00506
0.005165
0.004955
0.00485
0.004745
0.00464
0.004535
0.00443
0.004325
0.00422
0.012625
0.012205
0.012415
0.0122012
0.011995
0.01252
0.0121
0.01189
0.0116762
0.011785
0.0115712
0.01147
0.011575
0.01231
0.013045
0.01273
0.011365
0.010945
0.01063
0.01168
0.01105
0.010525
0.011155
0.01084
0.010105
0.01567
0.01357
0.01378
0.01336
0.013255
0.01315
0.01294
0.012835
0.015775
0.01525
0.015355
0.014725
0.01483
0.0149312
0.01504
0.01462
0.014935
0.0144062
0.0142
0.014305
0.014515
0.01399
0.013885
0.014095
0.01441
0.013675
0.013465
0.01708
0.01698
0.01738
0.01668
0.01678
0.01768
0.01608
0.01618
0.01628
0.01658
0.01638
0.01648
0.01588
0.015565
0.01598
0.01546
0.01688
0.015145
0.02376
0.0229083
0.0224222
0.0183497
0.022815
0.020085
0.021765
0.01998
0.01948
0.01978
0.01938
0.020295
0.02061
0.01958
0.01968
0.01988
0.01918
0.01908
0.01928
0.01848
0.01898
0.01868
0.01858
0.02019
0.01828
0.01888
0.01808
0.01878
0.01838
0.01818
0.01778
0.01748
0.01758
0.01788
0.01728
0.01718
0.01798
0.024639
0.0264369
0.0229248
0.0232041
0.0221946
0.058894
0.0231591
0.022896
0.023513
0.0220153
0.0212357
0.0224642
0.0639738
0.02676
0.025335
0.0246
0.02397
0.023865
0.023655
0.02355
0.023445
0.024075
0.02334
0.051075
0.023235
0.02313
0.023025
0.02292
0.02271
0.0225
0.02229
0.022605
0.02606
0.022395
0.02208
0.02187
0.021975
0.02124
0.02103
0.021555
0.020925
0.02145
0.0208162
0.02418
0.02082
0.020505
0.020715
0.022185
0.021345
0.0204
0.021135
0.0205012
0.0319787
0.0283512
0.0251889
0.0337727
0.0334013
0.0334617
0.0319182
0.0246513
0.027933
0.025955
0.025573
0.0329506
0.0288672
0.0240295
0.0252878
0.0336636
0.0256685
0.0283758
0.029076
0.0254837
0.0270369
0.0294514
0.0400612
0.0269659
0.0315107
0.0297388
0.0283152
0.0236853
0.0296111
0.0273594
0.0293926
0.0298632
0.0261793
0.036645
0.03227
0.031535
0.031745
0.03017
0.030065
0.030485
0.02926
0.02906
0.03059
0.02916
0.02886
0.02856
0.02956
0.02936
0.02946
0.02846
0.02826
0.02976
0.02816
0.02996
0.02896
0.02876
0.02836
0.02776
0.02806
0.02766
0.02786
0.02746
0.02736
0.02726
0.02756
0.02696
0.02866
0.02716
0.02796
0.02636
0.02656
0.02686
0.02666
0.02966
0.02616
0.02646
0.02596
0.02544
0.025755
0.02523
0.025125
0.02481
0.02502
0.02706
0.02626
0.02586
0.02565
0.025545
0.024705
0.024915
0.02439
0.0251212
0.024495
0.024285
0.0296335
0.0320289
0.0386407
0.0393722
0.0365104
0.03622
0.0438844
0.0346427
0.0319163
0.0411026
0.0298733
0.0306933
0.0328912
0.0352801
0.0353183
0.0331919
0.0327816
0.0353962
0.0331966
0.0312315
0.0599542
0.0369246
0.0335647
0.0323511
0.0342743
0.0335282
0.0334234
0.0381525
0.0368246
0.0367244
0.106509
0.0305104
0.0331837
0.0366373
0.0308974
0.0363477
0.0320647
0.0324162
0.0360027
0.0334888
0.0319973
0.0342703
0.0345286
0.0342209
0.0357183
0.0365039
0.0374557
0.0314737
0.0325138
0.0347582
0.0355117
0.0317589
0.0371943
0.0349476
0.0349254
0.0312703
0.0350065
0.0370003
0.0376888
0.0350813
0.037892
0.0347956
0.0349893
0.0335632
0.0323636
0.0386963
0.04036
0.039845
0.039445
0.038245
0.047425
0.037845
0.036745
0.036445
0.036545
0.036345
0.037145
0.036145
0.038445
0.037545
0.036845
0.037045
0.036245
0.03542
0.03563
0.036945
0.03584
0.035315
0.039045
0.035
0.035525
0.034265
0.03521
0.03437
0.034685
0.03395
0.035735
0.0341795
0.034055
0.036045
0.034895
0.03374
0.037345
0.033425
0.034475
0.035945
0.033215
0.03311
0.03353
0.03416
0.033845
0.0329
0.03332
0.03458
0.033635
0.03479
0.032165
0.032375
0.032795
0.03269
0.031955
0.03143
0.031325
0.04015
0.03164
0.03206
0.031115
0.03185
0.0308
0.030905
0.03101
0.032585
0.033005
0.03038
0.03122
0.03248
0.0302712
0.030275
0.030695
0.02986
0.0397838
0.0436241
0.041841
0.0409632
0.0420869
0.0402735
0.0433231
0.039467
0.0403252
0.0395267
0.0388547
0.0438441
0.0420678
0.0481186
0.0416544
0.0408835
0.0389091
0.040802
0.0424541
0.0393727
0.0461979
0.0431443
0.0371963
0.0440295
0.0433756
0.0402125
0.0484739
0.0410858
0.0408139
0.0429401
0.0407658
0.0398537
0.0439438
0.0539308
0.0407909
0.0373358
0.0400024
0.0418047
0.0429374
0.0432998
0.0436387
0.0435598
0.0471858
0.043464
0.0392234
0.0403562
0.0451098
0.0376708
0.0418241
0.0416118
0.0407371
0.041153
0.041731
0.0408905
0.0404333
0.039285
0.0420822
0.0419428
0.0412033
0.0399151
0.0455468
0.0419187
0.0404945
0.0411472
0.0424284
0.0390418
0.0436837
0.0409705
0.0385743
0.0400337
0.0388481
0.0409948
0.0405875
0.0402035
0.0450415
0.0420278
0.0383708
0.0425267
0.0405859
0.0405521
0.04219
0.0376414
0.0443684
0.0446055
0.0392368
0.0409638
0.0441674
0.0421361
0.0425369
0.0378493
0.0444244
0.0436415
0.0386132
0.0422708
0.038726
0.0397867
0.0413306
0.0401098
0.04138
0.0398499
0.0453909
0.0439098
0.052335
0.055275
0.0395298
0.0454
0.044245
0.043405
0.04393
0.043615
0.043195
0.04351
0.048725
0.04288
0.044035
0.04435
0.042775
0.04309
0.04246
0.044665
0.0433
0.046725
0.046225
0.044455
0.0399634
0.04267
0.04204
0.0431912
0.041515
0.04561
0.0451631
0.04141
0.046525
0.04183
0.041305
0.05118
0.04162
0.04225
0.04078
0.0405662
0.040675
0.04372
0.043825
0.040255
0.0455049
0.042985
0.039945
0.047725
0.040465
0.0405315
0.039745
0.039645
0.039545
0.040885
0.045085
0.042355
0.039345
0.0412
0.045715
0.040045
0.04099
0.039145
0.038745
0.042145
0.041095
0.038345
0.038945
0.038545
0.038645
0.038045
0.037645
0.037745
0.037245
0.037945
0.038845
0.038145
0.039245
0.0458929
0.0502119
0.0442871
0.0555855
0.0536836
0.0529821
0.0502939
0.0550354
0.0548766
0.047621
0.0468763
0.0570512
0.0484753
0.0561693
0.0523923
0.0524677
0.050461
0.0561674
0.0486674
0.0535419
0.0527856
0.055043
0.0574963
0.053167
0.0521138
0.0513201
0.050069
0.04844
0.0468858
0.0513731
0.0502874
0.0544082
0.0564553
0.0455735
0.0550499
0.0478759
0.0540495
0.048695
0.055539
0.0507809
0.0526011
0.052474
0.0486954
0.0511959
0.0508383
0.0508332
0.0536949
0.0463036
0.0502525
0.0565405
0.0504591
0.0550473
0.0543268
0.0464163
0.0490846
0.0505854
0.0456408
0.045142
0.052025
0.0525592
0.0452799
0.0488027
0.0579291
0.0565309
0.0462706
0.0478352
0.0482938
0.050553
0.055465
0.0448006
0.0486544
0.0467952
0.0491381
0.0521824
0.0524575
0.0520355
0.0467902
0.0476355
0.0524177
0.0490821
0.0495219
0.0503221
0.0481706
0.0512514
0.0506303
0.0537362
0.0533959
0.0485066
0.052112
0.0496524
0.0506291
0.0489436
0.0464282
0.0539767
0.0512511
0.0544366
0.0442164
0.0528066
0.0520886
0.0543671
0.0446729
0.0455111
0.055658
0.0510045
0.047634
0.0467993
0.0558243
0.0485716
0.0480465
0.0504067
0.0454548
0.0540209
0.0527355
0.0478193
0.048198
0.047675
0.0553499
0.0511404
0.0501328
0.0445766
0.0480969
0.0463345
0.0537891
0.0497543
0.0482184
0.0509909
0.0488728
0.04729
0.0543143
0.0509315
0.0496535
0.0442412
0.050072
0.0492884
0.046829
0.0453092
0.0521473
0.0530738
0.0557917
0.055823
0.0498769
0.0442818
0.0507306
0.0516416
0.0527812
0.0498434
0.0535522
0.0449026
0.0543537
0.0543616
0.0524555
0.0564014
0.053353
0.0528962
0.0557597
0.0527128
0.0475664
0.0528978
0.0548153
0.0537446
0.0473476
0.0446121
0.051516
0.0446644
0.0464275
0.0480201
0.0504327
0.0529017
0.0525503
0.0442639
0.0452302
0.0550375
0.0505545
0.0537305
0.047122
0.0525138
0.051339
0.0489694
0.0440915
0.0534386
0.046128
0.045617
0.0543322
0.052103
0.04905
0.0526068
0.0549258
0.0532966
0.0528611
0.0438645
0.0480522
0.0470091
0.0506146
0.0510089
0.045141
0.0535668
0.091047
0.0532625
0.0441312
0.0534014
0.0465456
0.0511103
0.0557807
0.0475506
0.0485832
0.0482547
0.0511238
0.0480687
0.0530671
0.046134
0.0511471
0.0530687
0.0448234
0.0503232
0.0523459
0.0509414
0.210265
0.0480422
0.065985
0.06347
0.06221
0.063155
0.066185
0.064205
0.064625
0.06578
0.06179
0.067285
0.057005
0.056805
0.0571782
0.059405
0.059805
0.056005
0.055905
0.05475
0.062735
0.055065
0.058705
0.0558
0.06074
0.062945
0.055485
0.056105
0.05412
0.05496
0.054435
0.05559
0.053805
0.05391
0.054225
0.060425
0.05328
0.056505
0.053385
0.054015
0.052965
0.057305
0.05433
0.058905
0.05265
0.056305
0.0515885
0.05307
0.052125
0.05244
0.054645
0.06494
0.05538
0.057505
0.056605
0.0520162
0.0525412
0.053175
0.05139
0.05286
0.05349
0.0516
0.05076
0.057705
0.050865
0.050235
0.050445
0.0448098
0.051285
0.052755
0.052545
0.056705
0.049625
0.05202
0.049225
0.0485397
0.056405
0.051705
0.049525
0.0470351
0.053595
0.0555862
0.057405
0.048625
0.049425
0.05181
0.048525
0.0492531
0.051915
0.050025
0.048025
0.049825
0.05517
0.048825
0.048925
0.047125
0.049025
0.046825
0.05055
0.046925
0.0506512
0.047825
0.048325
0.046325
0.0537
0.046125
0.048225
0.04582
0.05013
0.056205
0.0451862
0.049325
0.046425
0.047225
0.0446612
0.046025
0.047525
0.048125
0.047325
0.04519
0.046625
0.049125
0.04456
0.055695
0.058805
0.047025
0.04414
0.05454
0.04498
0.047925
0.045925
0.050655
0.057217
0.0608039
0.0628333
0.0560674
0.0567577
0.0555933
0.0584532
0.0683321
0.0660143
0.075099
0.0698116
0.0667407
0.0681061
0.0585799
0.0602182
0.0603031
0.0641501
0.0630547
0.0661235
0.0590511
0.0639905
0.0683662
0.0635428
0.0640763
0.0716019
0.0662732
0.0675338
0.0584157
0.0589285
0.0590666
0.0727605
0.0599001
0.0590866
0.065206
0.0633591
0.0681229
0.0667171
0.0637889
0.062631
0.0677817
0.0637253
0.0638578
0.060267
0.0645616
0.07046
0.056181
0.05773
0.0672548
0.0665036
0.0585599
0.0742943
0.0607453
0.0556178
0.0565722
0.0652962
0.0692188
0.0671057
0.0599264
0.0630742
0.0612374
0.0593081
0.0588577
0.0690439
0.0564628
0.0576689
0.0601235
0.0565152
0.0643895
0.057101
0.056851
0.0755816
0.0567044
0.0657295
0.0674879
0.0598211
0.0610918
0.062564
0.0588335
0.0609593
0.0589812
0.0662369
0.057121
0.060071
0.060417
0.0582891
0.0646842
0.063488
0.0660377
0.0702757
0.0727185
0.0644598
0.0655336
0.0746774
0.0689375
0.0608355
0.070564
0.0603369
0.0621557
0.0631587
0.0677071
0.0697398
0.0674493
0.0676881
0.0574039
0.0670272
0.0652156
0.0609565
0.061235
0.0660709
0.0702516
0.0717479
0.0622454
0.0696129
0.0694871
0.0604168
0.0723216
0.0565599
0.0723556
0.0564836
0.0561702
0.0590417
0.0628102
0.062039
0.0576332
0.0602107
0.0575785
0.0658555
0.0637904
0.0617191
0.061059
0.05696
0.0635728
0.0622329
0.0681183
0.061737
0.0578632
0.0568097
0.0650021
0.0698868
0.0695902
0.0588299
0.0628442
0.0582753
0.0615075
0.058886
0.06476
0.0674939
0.0660646
0.0625524
0.0686325
0.0656315
0.0587031
0.0560479
0.0660569
0.0591327
0.0665153
0.0587345
0.0625424
0.0570749
0.0604078
0.0685308
0.0572953
0.0656827
0.067041
0.0560599
0.0575168
0.0661023
0.0619523
0.0654759
0.0653396
0.0623334
0.0639619
0.0626572
0.0620197
0.0597777
0.0606287
0.0571557
0.0586555
0.0652763
0.0628079
0.0685164
0.0690549
0.0611114
0.0641774
0.0658768
0.0604304
0.0569413
0.0630869
0.0617903
0.068938
0.0611767
0.0583781
0.0659111
0.0702724
0.0706279
0.0652013
0.0732279
0.0606494
0.0776539
0.0663063
0.0624951
0.0612172
0.080255
0.0648189
0.0623606
0.0565878
0.0608091
0.06407
0.0702503
0.0696959
0.0737384
0.0625031
0.0609379
0.0600934
0.0668958
0.0594303
0.0671184
0.0664186
0.0608763
0.0613139
0.0597826
0.071134
0.0685508
0.0679251
0.0601738
0.0636613
0.0661461
0.0586902
0.0632263
0.0679436
0.0609066
0.0701714
0.0707368
0.0640254
0.0630887
0.0692404
0.0571609
0.0612931
0.0656012
0.0600916
0.0672199
0.0567299
0.0695499
0.0641287
0.0607355
0.0664777
0.0667712
0.0622682
0.0639948
0.0581051
0.0630101
0.068705
0.078465
0.09078
0.085105
0.078365
0.0569024
0.07408
0.07387
0.07282
0.0747683
0.0741812
0.073135
0.0632842
0.0703
0.069785
0.073345
0.0701912
0.071875
0.077465
0.07555
0.07198
0.07135
0.072085
0.069385
0.07219
0.0613523
0.070825
0.068285
0.068685
0.067085
0.068885
0.07345
0.067685
0.067785
0.072295
0.068385
0.068085
0.067385
0.073555
0.068985
0.07492
0.070405
0.0647607
0.067585
0.0558296
0.0598666
0.069985
0.065465
0.069285
0.07009
0.07093
0.065885
0.07051
0.072715
0.0562393
0.066285
0.069485
0.0641
0.066385
0.068585
0.069185
0.078665
0.080485
0.07072
0.064835
0.0612307
0.062525
0.0615799
0.066685
0.063575
0.06326
0.067485
0.06284
0.067885
0.08185
0.062105
0.06116
0.06137
0.061475
0.06452
0.067185
0.200224
0.068485
0.0571228
0.071035
0.063995
0.063785
0.069085
0.061055
0.060005
0.06536
0.06389
0.060845
0.061895
0.0602112
0.059305
0.06053
0.06263
0.06557
0.060215
0.0571954
0.06032
0.058305
0.06011
0.069685
0.059005
0.058105
0.059705
0.059905
0.058605
0.059505
0.057905
0.06305
0.056905
0.057105
0.059105
0.061265
0.0614712
0.057805
0.057205
0.06368
0.060635
0.058205
0.058405
0.064415
0.066485
0.0799434
0.0782444
0.0747452
0.0791773
0.0788316
0.0768521
0.0883874
0.0776835
0.0774556
0.0863101
0.0739444
0.0850595
0.0949713
0.074103
0.0778363
0.0873609
0.0803279
0.078987
0.0887592
0.0785841
0.0764626
0.0733838
0.0848585
0.0746964
0.0779114
0.0846414
0.0746895
0.0730243
0.0857021
0.0783499
0.0794617
0.0872843
0.0761807
0.0805009
0.0828821
0.0844825
0.0748909
0.0831956
0.0733895
0.0799984
0.0850043
0.0911444
0.0774697
0.0918932
0.0774428
0.0827012
0.0740729
0.0795202
0.0727228
0.0771726
0.0752773
0.0834344
0.0698982
0.0809789
0.072684
0.0757735
0.0809208
0.0705153
0.0749134
0.0743279
0.083484
0.0746466
0.0742308
0.090435
0.0920006
0.0764347
0.0751722
0.0865551
0.0786067
0.0780444
0.0722429
0.070141
0.0775924
0.0820308
0.0786139
0.0747869
0.0932387
0.0851926
0.0740012
0.0764314
0.0695252
0.0778142
0.0869871
0.0735362
0.0762491
0.0736893
0.0741181
0.076495
0.0843621
0.0835127
0.0723169
0.0864478
0.0912286
0.0835819
0.0920945
0.075111
0.0788042
0.0764354
0.0794327
0.0758757
0.0723476
0.0849924
0.0724005
0.0838462
0.0857967
0.0936929
0.0808934
0.0774893
0.0855344
0.0796966
0.0765889
0.0845196
0.0748427
0.0850632
0.0863153
0.0823603
0.0761546
0.0770345
0.0838549
0.0818593
0.0721882
0.074059
0.0775487
0.0785896
0.0842496
0.083354
0.0814375
0.07391
0.0773009
0.0904421
0.0876742
0.0731906
0.0708773
0.0749949
0.0742536
0.0777065
0.0841611
0.0743702
0.0757184
0.0804942
0.0758522
0.0762151
0.0745458
0.0785217
0.0835328
0.082607
0.0771125
0.0787176
0.0853406
0.0866316
0.0734644
0.0710268
0.0870574
0.0810719
0.105621
0.0761693
0.0853376
0.0730065
0.0716514
0.0754514
0.0770032
0.0773493
0.0756751
0.0808323
0.082431
0.074462
0.0753766
0.0784006
0.0803852
0.0814953
0.0884063
0.0761171
0.0868279
0.0752114
0.0723567
0.0908245
0.0795715
0.091421
0.0752405
0.099825
0.10076
0.095505
0.100865
0.0962069
0.12009
0.11032
0.093825
0.095925
0.091305
0.098625
0.0862099
0.102125
0.089145
0.088945
0.090885
0.085525
0.08479
0.087445
0.087345
0.084475
0.08374
0.084685
0.08269
0.0778145
0.08563
0.083635
0.0748365
0.086045
0.091515
0.088345
0.081955
0.086445
0.109505
0.084895
0.08332
0.087845
0.08122
0.086145
0.1016
0.08395
0.08458
0.08017
0.0820562
0.083845
0.084055
0.080905
0.081745
0.09372
0.08164
0.082375
0.079965
0.088645
0.08206
0.0806912
0.079665
0.092985
0.088445
0.079365
0.079165
0.08437
0.0802748
0.079465
0.079765
0.077665
0.0772627
0.079065
0.085945
0.08227
0.099725
0.076565
0.078065
0.076865
0.076365
0.076765
0.077165
0.076065
0.077365
0.075865
0.09057
0.078865
0.08353
0.080065
0.0756713
0.078265
0.079265
0.08059
0.081115
0.078165
0.086245
0.082585
0.075445
0.074605
0.081325
0.094665
0.080695
0.07576
0.075965
0.078565
0.074185
0.08143
0.0765801
0.075655
0.07366
0.093405
0.074395
0.0715367
0.09561
0.076965
0.076465
0.083215
0.076165
0.0745
0.073765
0.09141
0.07324
0.07513
0.072925
0.07177
0.0829
0.07303
0.077565
0.076265
0.078965
0.070195
0.069885
0.0877693
0.0932574
0.0919363
0.0984728
0.0902716
0.0986068
0.10891
0.0958375
0.0944056
0.0881091
0.0958402
0.0934362
0.0885855
0.114011
0.0935415
0.0976675
0.0910456
0.101791
0.0992006
0.0875323
0.0909144
0.108577
0.0990875
0.106615
0.111609
0.106359
0.0982765
0.0948828
0.0990079
0.108492
0.0882104
0.0894164
0.10448
0.092177
0.0986055
0.104648
0.0915925
0.107886
0.104254
0.091636
0.0935966
0.0911081
0.0875511
0.087315
0.0974119
0.103983
0.10941
0.0887546
0.0909601
0.0883682
0.0924777
0.107859
0.0887551
0.0878523
0.0946141
0.111564
0.0940442
0.0846369
0.0952552
0.0883777
0.0969337
0.0927851
0.0891843
0.0962766
0.087471
0.106756
0.0898324
0.0907313
0.0986109
0.0993028
0.0886271
0.0997729
0.0961791
0.108153
0.096168
0.0886148
0.0893552
0.11477
0.0961458
0.101996
0.091264
0.0891843
0.0890264
0.10119
0.0951902
0.101418
0.0925937
0.099231
0.107072
0.10961
0.0871534
0.102964
0.0999412
0.0954252
0.0949384
0.0966491
0.0922559
0.095308
0.0953733
0.086618
0.112128
0.097356
0.0959428
0.0926004
0.0983626
0.103579
0.101866
0.108153
0.0940272
0.107564
0.116363
0.0928702
0.0980793
0.0986807
0.105694
0.0953646
0.0928659
0.114214
0.112339
0.096737
0.0953167
0.115345
0.0896647
0.0940059
0.0901414
0.104138
0.0998078
0.0988436
0.103422
0.11842
0.101614
0.0909056
0.104828
0.0941444
0.0984724
0.0896228
0.0985159
0.0975575
0.115506
0.137745
0.0875637
0.148425
0.123135
0.0980814
0.0871954
0.125235
0.113365
0.10894
0.115985
0.0885028
0.116385
0.114415
0.109258
0.116985
0.11011
0.108605
0.103004
0.119185
0.109205
0.106732
0.107305
0.107805
0.118485
0.108005
0.10645
0.107204
0.107881
0.118285
0.090673
0.12471
0.12051
0.106705
0.127965
0.10538
0.107705
0.119585
0.10391
0.11263
0.12114
0.104435
0.0948565
0.10307
0.10454
0.118985
0.1037
0.102964
0.116685
0.108205
0.108405
0.103175
0.107605
0.0903544
0.109405
0.104225
0.1203
0.10661
0.13395
0.10265
0.111055
0.10202
0.10286
0.102226
0.126965
0.105275
0.110005
0.104149
0.118185
0.104645
0.105485
0.101705
0.115675
0.1058
0.10055
0.104015
0.0953972
0.0926057
0.10034
0.0987624
0.101285
0.11053
0.10139
0.10118
0.097925
0.0954593
0.098525
0.100025
0.10328
0.108705
0.0906626
0.101075
0.099212
0.0969247
0.0940068
0.112945
0.095085
0.096325
0.0968728
0.100445
0.098325
0.106905
0.098925
0.099125
0.102755
0.099925
0.097725
0.096425
0.10244
0.107905
0.097325
0.094245
0.0963413
0.09435
0.103595
0.11326
0.09498
0.097625
0.0869018
0.097125
0.096025
0.09456
0.098425
0.10097
0.096225
0.098125
0.09204
0.091725
0.097225
0.093195
0.10013
0.099625
0.122715
0.10412
0.0931895
0.09183
0.09099
0.09477
0.091935
0.10433
0.09267
0.096725
0.09036
0.089645
0.089345
0.090675
0.10496
0.089945
0.0891793
0.088845
0.09351
0.0922754
0.09582
0.0933
0.093615
0.088245
0.090255
0.0954
0.092565
0.0912
0.0894437
0.088145
0.087245
0.087545
0.094455
0.09246
0.086745
0.09015
0.086945
0.089745
0.11137
0.087945
0.086345
0.117485
0.095295
0.089545
0.086845
0.096825
0.102335
0.10349
0.107405
0.088745
0.094035
0.085
0.08542
0.098725
0.09393
0.086545
0.085315
0.164943
0.132585
0.116247
0.116753
0.173221
0.13803
0.145541
0.168753
0.143909
0.162055
0.152811
0.122302
0.14264
0.117992
0.11912
0.154902
0.139051
0.130837
0.126725
0.145661
0.120566
0.163576
0.128385
0.123419
0.171697
0.150513
0.16654
0.183647
0.126075
0.112386
0.140028
0.117462
0.123595
0.132911
0.131378
0.162727
0.131428
0.120475
0.114385
0.158711
0.116812
0.122686
0.115796
0.113693
0.143454
0.13671
0.146618
0.143587
0.12403
0.129397
0.122877
0.173376
0.124361
0.126455
0.128879
0.127178
0.118225
0.133334
0.129595
0.149805
0.117096
0.155469
0.140516
0.134173
0.146688
0.144047
0.136794
0.154456
0.126935
0.112164
0.153785
0.155261
0.13111
0.136968
0.112921
0.152518
0.123075
0.116475
0.127525
0.163089
0.149638
0.159345
0.127943
0.144635
0.128121
0.135306
0.153924
0.138649
0.11584
0.135315
0.116971
0.121117
0.130824
0.133798
0.117917
0.11603
0.132837
0.114773
0.132943
0.159323
0.136816
0.116527
0.131442
0.13214
0.149183
0.13718
0.153025
0.125951
0.144906
0.157698
0.15168
0.149483
0.139325
0.122841
0.142943
0.115046
0.127071
0.143163
0.127139
0.149727
0.120315
0.163442
0.159413
0.114426
0.1148
0.126571
0.114535
0.108918
0.167223
0.140568
0.21581
0.178365
0.194245
0.124522
0.158577
0.158568
0.13232
0.177865
0.171029
0.128043
0.15122
0.161998
0.113068
0.189145
0.18101
0.184055
0.130588
0.156864
0.175025
0.139504
0.170615
0.198625
0.172505
0.161475
0.17261
0.178965
0.17555
0.173975
0.179765
0.17471
0.158205
0.166885
0.19309
0.161895
0.159005
0.168585
0.16032
0.161051
0.166285
0.168485
0.16431
0.160615
0.166385
0.1641
0.179665
0.16389
0.17324
0.166685
0.17051
0.158905
0.156705
0.156205
0.16116
0.169885
0.1272
0.166485
0.157005
0.155275
0.157605
0.143169
0.121587
0.162105
0.153805
0.158005
0.161265
0.177478
0.159605
0.156905
0.158105
0.154855
0.158505
0.15412
0.159105
0.160005
0.172606
0.170405
0.16242
0.15307
0.173135
0.164835
0.166185
0.15223
0.159805
0.154093
0.154944
0.154435
0.123427
0.157958
0.170195
0.19183
0.153175
0.178065
0.15496
0.158405
0.1516
0.148802
0.168785
0.16368
0.157105
0.15475
0.120109
0.152335
0.158605
0.172085
0.165356
0.15454
0.15013
0.15202
0.149386
0.174815
0.148725
0.159405
0.1537
0.156805
0.1558
0.148816
0.152965
0.149309
0.133455
0.156305
0.156405
0.157405
0.158305
0.149728
0.149425
0.150865
0.18353
0.160215
0.155796
0.146336
0.15118
0.15097
0.144875
0.239865
0.155065
0.142351
0.151915
0.14582
0.135054
0.143634
0.142557
0.170825
0.133353
0.14414
0.149725
0.147725
0.157805
0.146625
0.162945
0.159305
0.147325
0.14183
0.150655
0.148925
0.147025
0.14204
0.152545
0.140875
0.156005
0.149225
0.141305
0.150235
0.151176
0.147525
0.150025
0.14123
0.141563
0.160845
0.147925
0.142985
0.146525
0.1433
0.15433
0.147125
0.139645
0.143615
0.139145
0.139245
0.138745
0.139045
0.14288
0.16284
0.137645
0.15286
0.139478
0.144665
0.140465
0.14477
0.148325
0.142145
0.143821
0.127758
0.16305
0.14246
0.149925
0.135525
0.13584
0.148825
0.134055
0.135465
0.14309
0.141095
0.135105
0.134895
0.139745
0.141725
0.125729
0.145295
0.137945
0.133186
0.159705
0.1329
0.14078
0.154645
0.162525
0.134685
0.13521
0.135315
0.139445
0.133635
0.137445
0.133425
0.130905
0.136945
0.15349
0.144245
0.14498
0.146225
0.13206
0.132264
0.129365
0.129665
0.15034
0.136445
0.129116
0.137145
0.13122
0.148125
0.147425
0.128665
0.124353
0.13716
0.151495
0.146125
0.13143
0.132168
0.135
0.13563
0.13479
0.136745
0.131745
0.13038
0.131955
0.130485
0.13164
0.130481
0.125889
0.131325
0.125445
0.126365
0.125655
0.13437
0.129565
0.14015
0.127765
0.127565
0.136245
0.145715
0.125756
0.12534
0.12324
0.134265
0.138845
0.132375
0.138145
0.13458
0.135735
0.12555
0.137245
0.125671
0.127265
0.12492
0.120394
0.123026
0.138645
0.128865
0.158805
0.125865
0.12282
0.122186
0.138945
0.130695
0.141196
0.128065
0.12219
0.1308
0.126265
0.131596
0.128465
0.151075
0.125231
0.12303
0.121559
0.119385
0.13101
0.131535
0.119985
0.118685
0.122505
0.12387
0.125025
0.12345
0.117985
0.124185
0.120651
0.119685
0.121665
0.122925
0.132795
0.122085
0.149325
0.12408
0.114015
0.128365
0.128396
0.118585
0.120825
0.14225
0.116185
0.116026
0.145085
0.114625
0.123975
0.119485
0.13311
0.117555
0.116256
0.112735
0.114205
0.112525
0.127465
0.11318
0.117185
0.12093
0.115255
0.113575
0.112819
0.113857
0.136845
0.151705
0.129865
0.112207
0.11368
0.117785
0.114378
0.114926
0.146025
0.119785
0.117085
0.120405
0.115885
0.113785
0.11536
0.119885
0.120077
0.126765
0.117885
0.12366
0.124605
0.116585
0.110635
0.117685
0.112
0.110425
0.11515
0.136145
0.112416
0.11074
0.12261
0.13017
0.11095
0.127865
0.13374
0.12072
0.129165
0.110845
0.116285
0.11305
0.12135
0.118785
0.127065
0.120195
0.11578
0.110238
0.111265
0.126465
0.110215
0.12198
0.11431
0.1224
)


// ************************************************************************* //
