/*--------------------------------*- C++ -*----------------------------------*\
  =========                 |
  \\      /  F ield         | OpenFOAM: The Open Source CFD Toolbox
   \\    /   O peration     | Website:  https://openfoam.org
    \\  /    A nd           | Version:  7
     \\/     M anipulation  |
\*---------------------------------------------------------------------------*/
FoamFile
{
    version     2.0;
    format      ascii;
    class       scalarField;
    location    "0.7/lagrangian/reactingCloud1";
    object      cellDensity;
}
// * * * * * * * * * * * * * * * * * * * * * * * * * * * * * * * * * * * * * //


2563
(
0.250545
0.250422
0.250126
0.249707
0.249729
0.249449
0.248497
0.247777
0.248534
0.248416
0.248527
0.248447
0.248264
0.248083
0.248136
0.248438
0.246539
0.248172
0.247542
0.247291
0.247427
0.247592
0.247868
0.24774
0.247576
0.247598
0.247721
0.247715
0.247866
0.247701
0.247645
0.247785
0.247734
0.247791
0.247746
0.247821
0.247782
0.247777
0.247646
0.247794
0.247793
0.247794
0.251955
0.249547
0.253098
0.251846
0.249872
0.249591
0.2489
0.252923
0.251038
0.250715
0.2533
0.251814
0.252563
0.250844
0.251716
0.252149
0.253964
0.252413
0.253279
0.252315
0.253981
0.252806
0.253253
0.254223
0.252068
0.253771
0.254232
0.2538
0.254084
0.253061
0.253501
0.25399
0.253463
0.252634
0.253725
0.252615
0.251658
0.253466
0.252758
0.25289
0.253599
0.253221
0.253243
0.25338
0.252969
0.253406
0.252782
0.252921
0.253266
0.253301
0.253272
0.253145
0.253164
0.252531
0.25272
0.251898
0.251623
0.251737
0.252083
0.25188
0.251845
0.250897
0.251043
0.251231
0.206527
0.209171
0.208398
0.211578
0.215338
0.214078
0.217715
0.220946
0.229262
0.232318
0.235562
0.235495
0.236671
0.24016
0.24021
0.243514
0.240606
0.242377
0.243371
0.246748
0.246852
0.243966
0.247363
0.24738
0.247638
0.307892
0.181484
0.194427
0.185004
0.187605
0.189668
0.199352
0.205058
0.203244
0.165447
0.178115
0.165082
0.165081
0.165196
0.165487
0.165757
0.167048
0.166986
0.167603
0.16814
0.168471
0.169056
0.169924
0.17015
0.170439
0.173044
0.176282
0.16358
0.163619
0.209706
0.163748
0.163888
0.164282
0.163954
0.163917
0.163891
0.172306
0.166327
0.164034
0.164049
0.16414
0.164627
0.1642
0.18745
0.164383
0.194587
0.163074
0.162663
0.163208
0.28251
0.162509
0.283921
0.162603
0.162645
0.163267
0.162658
0.194194
0.162656
0.162734
0.164739
0.168391
0.162707
0.162748
0.182081
0.162851
0.162886
0.162961
0.162915
0.209135
0.163043
0.168654
0.163139
0.178814
0.165366
0.165119
0.16326
0.163411
0.163392
0.163464
0.163472
0.163532
0.163453
0.162172
0.162164
0.162338
0.162314
0.162491
0.162592
0.162364
0.16225
0.16218
0.162302
0.162473
0.162172
0.162473
0.362618
0.217688
0.181703
0.162097
0.162107
0.162131
0.162152
0.162152
0.189972
0.163065
0.363751
0.181568
0.174794
0.169785
0.162154
0.162169
0.162189
0.162205
0.162253
0.356947
0.162213
0.16224
0.166126
0.176213
0.16231
0.162309
0.199983
0.162349
0.169048
0.162364
0.363576
0.162356
0.162453
0.162417
0.16238
0.179922
0.16244
0.220501
0.187213
0.161995
0.162027
0.162091
0.16204
0.161992
0.162008
0.162069
0.162091
0.162109
0.162091
0.162097
0.161986
0.162001
0.162143
0.162097
0.162001
0.162116
0.162005
0.161998
0.162143
0.162049
0.161995
0.162036
0.162122
0.161989
0.16204
0.162005
0.162129
0.162001
0.162064
0.161989
0.162015
0.162097
0.356599
0.336787
0.236094
0.297948
0.172997
0.162173
0.170184
0.161974
0.162
0.293714
0.167638
0.172696
0.161981
0.221744
0.229472
0.314621
0.171345
0.162085
0.353669
0.162152
0.228963
0.228708
0.238092
0.184128
0.161991
0.19537
0.162173
0.178014
0.161996
0.162133
0.162377
0.17469
0.164147
0.168018
0.181355
0.16214
0.162043
0.16214
0.162027
0.172908
0.258597
0.162021
0.17908
0.170774
0.165028
0.199814
0.162054
0.162054
0.162101
0.162061
0.16205
0.215142
0.194917
0.258666
0.202483
0.162069
0.162458
0.162074
0.162119
0.162082
0.162099
0.161981
0.161963
0.161929
0.16193
0.161931
0.161932
0.161937
0.161936
0.161965
0.161965
0.161978
0.161978
0.161976
0.161938
0.161965
0.161951
0.161963
0.161936
0.161951
0.161974
0.161971
0.161961
0.161961
0.161978
0.16194
0.161967
0.161961
0.161933
0.161928
0.161928
0.161931
0.161971
0.161974
0.16193
0.161976
0.161931
0.161957
0.161978
0.161931
0.161965
0.161971
0.161946
0.161938
0.161942
0.161933
0.161941
0.161928
0.161963
0.161967
0.161941
0.161957
0.161963
0.16193
0.161945
0.161946
0.161969
0.161938
0.161932
0.161942
0.161936
0.161935
0.161959
0.161935
0.161953
0.161959
0.161941
0.332076
0.225163
0.206354
0.190939
0.258494
0.240539
0.182597
0.161952
0.165707
0.161929
0.189664
0.161957
0.18087
0.161961
0.235646
0.161945
0.161933
0.161935
0.16884
0.185449
0.161934
0.178151
0.277672
0.162855
0.224152
0.161943
0.21513
0.177364
0.16198
0.162154
0.336353
0.161948
0.193831
0.21703
0.216686
0.164672
0.232874
0.161943
0.202561
0.277676
0.162612
0.162132
0.165852
0.16197
0.161984
0.162165
0.195708
0.35016
0.161953
0.35198
0.162042
0.180787
0.162249
0.196111
0.184255
0.161958
0.169408
0.212756
0.183309
0.195666
0.16222
0.222453
0.161961
0.171986
0.179618
0.197038
0.191188
0.162329
0.17913
0.221478
0.162467
0.170614
0.162114
0.161985
0.16193
0.162002
0.161968
0.161957
0.161932
0.161928
0.161983
0.161926
0.161935
0.161929
0.161925
0.162013
0.161927
0.161926
0.161962
0.161927
0.161925
0.161928
0.161975
0.16193
0.161941
0.161975
0.161926
0.161975
0.162002
0.161926
0.161983
0.161944
0.16193
0.161975
0.161938
0.161926
0.161948
0.161957
0.161927
0.161928
0.161926
0.161957
0.161968
0.161992
0.161992
0.162013
0.161932
0.161928
0.161926
0.161933
0.162002
0.161928
0.161944
0.161944
0.161932
0.161952
0.161933
0.161944
0.161925
0.161925
0.161957
0.161957
0.161938
0.161926
0.162025
0.161962
0.161935
0.161948
0.161983
0.161927
0.162025
0.161927
0.161926
0.161928
0.161926
0.161944
0.161935
0.161926
0.162025
0.161933
0.161927
0.161992
0.161938
0.161933
0.161983
0.161926
0.161968
0.16204
0.161927
0.161932
0.161975
0.161975
0.161952
0.161925
0.162002
0.161975
0.161928
0.161968
0.161925
0.161926
0.161944
0.161933
0.161957
0.161926
0.161952
0.161983
0.37808
0.368674
0.161926
0.2018
0.2018
0.16377
0.16377
0.173877
0.168386
0.17983
0.303823
0.167637
0.191216
0.198348
0.215234
0.180446
0.163353
0.207243
0.221985
0.319487
0.308913
0.239635
0.161928
0.191003
0.197724
0.283265
0.16248
0.325993
0.161925
0.177692
0.258447
0.205126
0.16929
0.261282
0.213813
0.167056
0.172023
0.161944
0.180712
0.16219
0.266929
0.165436
0.162089
0.328086
0.161974
0.347327
0.189988
0.16193
0.169149
0.161932
0.202984
0.162068
0.326329
0.351067
0.16495
0.199893
0.328131
0.16396
0.191622
0.185904
0.167366
0.309089
0.264631
0.175998
0.161972
0.200339
0.172098
0.17845
0.166507
0.163137
0.165883
0.200479
0.161933
0.22887
0.204735
0.162837
0.173622
0.162205
0.197794
0.185053
0.19137
0.175349
0.195651
0.197794
0.162373
0.163401
0.199932
0.164989
0.20206
0.183005
0.183005
0.163812
0.199932
0.164989
0.173622
0.187135
0.185053
0.20206
0.189243
0.185053
0.179049
0.169093
0.165788
0.163401
0.179049
0.175349
0.189243
0.193508
0.162494
0.20206
0.162645
0.19137
0.165788
0.195651
0.177162
0.183005
0.187135
0.164335
0.171996
0.173622
0.177162
0.193508
0.162373
0.175349
0.20206
0.169093
0.195651
0.197794
0.162494
0.167843
0.173622
0.162645
0.162373
0.183005
0.183005
0.162373
0.163812
0.20206
0.20206
0.162837
0.164335
0.165788
0.173622
0.199932
0.162111
0.166739
0.162837
0.162645
0.181001
0.181001
0.175349
0.162277
0.165788
0.185053
0.164335
0.170482
0.171996
0.163083
0.170482
0.173622
0.189243
0.185053
0.166739
0.185053
0.169093
0.171996
0.163401
0.162277
0.193508
0.175349
0.185053
0.162111
0.183005
0.177162
0.197794
0.162151
0.162494
0.195651
0.169093
0.163812
0.162645
0.199932
0.163812
0.163812
0.173622
0.162277
0.19137
0.185053
0.162373
0.164335
0.162645
0.20206
0.175349
0.173622
0.162151
0.164335
0.163083
0.183005
0.164989
0.167843
0.177162
0.165788
0.162494
0.175349
0.179049
0.171996
0.162205
0.173622
0.166739
0.163083
0.162373
0.185053
0.179049
0.20206
0.173622
0.166739
0.16208
0.177162
0.181001
0.185053
0.164989
0.173622
0.162277
0.19137
0.195651
0.185053
0.175349
0.187135
0.187135
0.20206
0.175349
0.166739
0.175349
0.197794
0.19137
0.164335
0.162277
0.179049
0.162205
0.162645
0.164989
0.175349
0.185053
0.185053
0.162111
0.162205
0.197794
0.171996
0.19137
0.162277
0.185053
0.177162
0.164335
0.16208
0.19137
0.162645
0.162373
0.197794
0.183005
0.166739
0.185053
0.19137
0.189243
0.189243
0.16208
0.164989
0.163812
0.171996
0.162837
0.162151
0.193508
0.183005
0.193508
0.16208
0.19137
0.163083
0.179049
0.197794
0.164989
0.164989
0.165788
0.171996
0.163401
0.189243
0.162645
0.177162
0.181001
0.162373
0.166739
0.177162
0.177162
0.360601
0.164335
0.36242
0.258064
0.324605
0.267349
0.328287
0.37483
0.358
0.363049
0.24999
0.337869
0.23754
0.227736
0.197794
0.308619
0.247638
0.239999
0.207014
0.201194
0.320204
0.203316
0.24128
0.255604
0.358437
0.370448
0.211354
0.307726
0.207447
0.226539
0.273289
0.276324
0.254837
0.196745
0.26163
0.305623
0.196948
0.245539
0.250391
0.212693
0.197131
0.198768
0.243016
0.303145
0.199785
0.216186
0.181001
0.18945
0.21332
0.216994
0.315983
0.364513
0.297204
0.239605
0.292395
0.196714
0.182883
0.225117
0.206578
0.223007
0.186679
0.177162
0.195335
0.299256
0.173783
0.192435
0.247978
0.16208
0.235374
0.225574
0.301065
0.281879
0.208058
0.246619
0.175978
0.164989
0.337992
0.294668
0.211167
0.162205
0.232731
0.337903
0.171431
0.197961
0.225605
0.170224
0.191162
0.163401
0.264914
0.245256
0.168256
0.211351
0.302489
0.223634
0.1635
0.183457
0.165877
0.199511
0.295803
0.170075
0.319272
0.281437
0.231693
0.179907
0.306894
0.172908
0.221828
0.17749
0.322119
0.377804
0.169265
0.252328
0.183884
0.180719
0.169694
0.162277
0.241744
0.310109
0.32159
0.178373
0.224784
0.253741
0.18302
0.376569
0.376154
0.236058
0.163713
0.368366
0.1892
0.299266
0.19466
0.362902
0.212431
0.229365
0.234437
0.208347
0.210401
0.204174
0.220267
0.25694
0.249334
0.259279
0.251972
0.247975
0.259279
0.218353
0.206271
0.229365
0.239222
0.236063
0.236063
0.212431
0.240755
0.246589
0.237658
0.24373
0.254505
0.249334
0.254505
0.208347
0.212431
0.210401
0.245174
0.225823
0.218353
0.231088
0.237658
0.246589
0.24373
0.24373
0.237658
0.247975
0.236063
0.242257
0.225823
0.24373
0.258121
0.208347
0.210401
0.239222
0.250666
0.216408
0.255735
0.224003
0.204174
0.206271
0.245174
0.24373
0.251972
0.212431
0.208347
0.231088
0.216408
0.220267
0.247975
0.206271
0.214433
0.216408
0.206271
0.242257
0.214433
0.206271
0.259279
0.208347
0.247975
0.254505
0.218353
0.229365
0.236063
0.218353
0.22761
0.224003
0.240755
0.214433
0.225823
0.231088
0.218353
0.231088
0.229365
0.250666
0.260415
0.258121
0.231088
0.246589
0.260415
0.260415
0.231088
0.246589
0.216408
0.231088
0.237658
0.242257
0.258121
0.254505
0.246589
0.214433
0.254505
0.225823
0.224003
0.214433
0.242257
0.259279
0.258121
0.236063
0.253251
0.255735
0.229365
0.260415
0.204174
0.258121
0.206271
0.206271
0.222151
0.237658
0.232778
0.216408
0.231088
0.206271
0.239222
0.236063
0.229365
0.218353
0.210401
0.240755
0.229365
0.251972
0.22761
0.204174
0.208347
0.249334
0.251972
0.255735
0.220267
0.236063
0.218353
0.229365
0.220267
0.240755
0.253251
0.246589
0.237658
0.249334
0.242257
0.220267
0.208347
0.242257
0.225823
0.236063
0.218353
0.220267
0.212431
0.214433
0.25694
0.210401
0.24373
0.242257
0.206271
0.212431
0.249334
0.229365
0.249334
0.240755
0.231088
0.242257
0.237658
0.236063
0.216408
0.224003
0.214433
0.210401
0.24373
0.240755
0.253251
0.250666
0.231088
0.239222
0.246589
0.222151
0.210401
0.234437
0.232778
0.25694
0.222151
0.220267
0.247975
0.251972
0.25694
0.24373
0.255735
0.224003
0.258121
0.250666
0.231088
0.225823
0.25694
0.232778
0.234437
0.210401
0.224003
0.24373
0.250666
0.260415
0.258121
0.22761
0.224003
0.229365
0.253251
0.222151
0.251972
0.249334
0.225823
0.224003
0.212431
0.260415
0.251972
0.25694
0.222151
0.225823
0.240755
0.220267
0.255499
0.254505
0.229365
0.25694
0.234437
0.22761
0.239222
0.255735
0.210401
0.229365
0.24373
0.214433
0.246589
0.210401
0.255735
0.242257
0.22761
0.253251
0.249334
0.220267
0.240755
0.216408
0.240755
0.258121
0.30407
0.332957
0.364181
0.328758
0.208347
0.276291
0.312461
0.322209
0.258121
0.259998
0.281127
0.225823
0.302536
0.261919
0.268999
0.264755
0.288168
0.286293
0.272961
0.265929
0.291084
0.282371
0.271399
0.268137
0.233358
0.282895
0.271303
0.260188
0.254731
0.256063
0.323523
0.25453
0.27666
0.305902
0.257522
0.255706
0.256255
0.343818
0.324013
0.282116
0.31199
0.231088
0.264375
0.204174
0.222151
0.254064
0.252861
0.303004
0.275845
0.265679
0.261292
0.295616
0.324305
0.208347
0.24667
0.313908
0.242257
0.371135
0.29956
0.266975
0.356645
0.374995
0.346
0.267499
0.222151
0.242715
0.236063
0.24663
0.277771
0.248169
0.295218
0.251452
0.268874
0.263253
0.236098
0.232892
0.246965
0.233589
0.233858
0.298094
0.24038
0.329288
0.212431
0.326675
0.26692
0.275874
0.295611
0.238303
0.228527
0.28043
0.26216
0.238904
0.252203
0.226582
0.222151
0.268543
0.336237
0.224049
0.245602
0.212431
0.239001
0.228497
0.269377
0.238868
0.242273
0.216747
0.252209
0.257293
0.227142
0.219475
0.220699
0.236439
0.215682
0.21449
0.237664
0.315766
0.241666
0.235245
0.226846
0.33559
0.229019
0.243332
0.212027
0.346232
0.214248
0.279899
0.278349
0.267775
0.275917
0.279899
0.271561
0.28356
0.278349
0.278349
0.288295
0.263691
0.284952
0.28356
0.270641
0.274222
0.284261
0.28213
0.280655
0.286979
0.263691
0.268749
0.26262
0.280655
0.272465
0.278349
0.28764
0.265772
0.268749
0.285635
0.279131
0.28213
0.286311
0.270641
0.28356
0.280655
0.289587
0.269704
0.286311
0.268749
0.280655
0.286311
0.289587
0.277552
0.285635
0.261528
0.285635
0.270641
0.275917
0.266783
0.279899
0.273352
0.28213
0.261528
0.28356
0.268749
0.273352
0.279131
0.261528
0.272465
0.271561
0.28764
0.274222
0.264742
0.276742
0.284261
0.272465
0.273352
0.28764
0.270641
0.270641
0.266783
0.261528
0.267775
0.28213
0.279899
0.268749
0.279131
0.289587
0.272465
0.275917
0.261528
0.278349
0.288295
0.270641
0.275917
0.271561
0.269704
0.269704
0.288944
0.286311
0.263691
0.281398
0.286979
0.277552
0.275077
0.271561
0.277552
0.268749
0.272465
0.261528
0.263691
0.288944
0.268749
0.284952
0.288944
0.28356
0.278349
0.278349
0.288944
0.275917
0.275077
0.28213
0.268749
0.289587
0.289587
0.271561
0.268749
0.263691
0.286311
0.28356
0.26262
0.261528
0.277552
0.279131
0.288944
0.284952
0.28356
0.266783
0.272465
0.280655
0.288944
0.266783
0.265772
0.268749
0.271561
0.275917
0.288295
0.272465
0.275077
0.281398
0.273352
0.275917
0.269704
0.278349
0.285635
0.280655
0.277552
0.273352
0.288295
0.284952
0.270641
0.263691
0.288944
0.28285
0.270641
0.277552
0.277552
0.265772
0.263691
0.273352
0.274222
0.275077
0.271561
0.28356
0.271561
0.266783
0.268749
0.279131
0.261528
0.268749
0.285635
0.275917
0.279131
0.274222
0.267775
0.289587
0.279131
0.288944
0.272465
0.376837
0.377514
0.376587
0.344481
0.286979
0.367119
0.371819
0.340046
0.319362
0.341433
0.360505
0.324532
0.371527
0.313426
0.292688
0.376874
0.289763
0.288952
0.297758
0.308503
0.290576
0.287889
0.288573
0.287115
0.272465
0.302598
0.291319
0.26262
0.292287
0.377085
0.299522
0.289639
0.313077
0.37112
0.285707
0.286121
0.369574
0.289035
0.305297
0.354214
0.335404
0.357494
0.28285
0.313336
0.310385
0.289483
0.291213
0.294634
0.323737
0.312395
0.284819
0.283851
0.36041
0.299972
0.288497
0.282725
0.343284
0.30407
0.283204
0.281276
0.355364
0.286982
0.278679
0.279142
0.278525
0.279419
0.279182
0.306658
0.376073
0.377454
0.280789
0.313081
0.288702
0.275917
0.277041
0.276752
0.27509
0.276272
0.278864
0.374078
0.283994
0.347551
0.276432
0.308379
0.291223
0.327132
0.288036
0.286494
0.352802
0.315041
0.295444
0.273433
0.280158
0.337476
0.366548
0.307087
0.276859
0.290278
0.300644
0.27677
0.333784
0.261528
0.305535
0.27169
0.309681
0.27169
0.266783
0.377195
0.289824
0.328791
0.266695
0.279756
0.307775
0.268047
0.298832
0.294501
0.285615
0.262803
0.268308
0.360646
0.317023
0.285783
0.275847
0.311794
0.267375
0.263761
0.29086
0.298237
0.295812
0.303055
0.295812
0.303055
0.310904
0.293975
0.298237
0.29149
0.301852
0.298237
0.290226
0.303656
0.29086
0.301852
0.297027
0.297632
0.302453
0.293359
0.297632
0.306065
0.298841
0.310299
0.310299
0.306668
0.299444
0.29459
0.303055
0.310904
0.29459
0.293975
0.302453
0.298237
0.300648
0.306065
0.298237
0.307271
0.292116
0.298237
0.300046
0.297027
0.29086
0.292739
0.303656
0.305462
0.310904
0.29459
0.295812
0.293359
0.297632
0.310904
0.290226
0.29149
0.297632
0.309086
0.297027
0.290226
0.301852
0.293975
0.304258
0.298841
0.293975
0.30125
0.292116
0.309086
0.293975
0.293975
0.303055
0.306668
0.293359
0.304258
0.301852
0.309691
0.298841
0.293359
0.29459
0.309691
0.29459
0.30486
0.293359
0.292739
0.29149
0.30486
0.299444
0.306065
0.295202
0.303055
0.310904
0.307876
0.29086
0.30848
0.300648
0.301852
0.292739
0.302453
0.293359
0.300046
0.300648
0.29086
0.306668
0.303055
0.297027
0.295812
0.304258
0.30125
0.300046
0.309086
0.297027
0.310299
0.304258
0.297027
0.303656
0.304258
0.309691
0.292739
0.299444
0.311587
0.30486
0.303055
0.298841
0.304258
0.29642
0.300046
0.293359
0.30848
0.30486
0.303055
0.307876
0.306065
0.303656
0.292739
0.305462
0.29459
0.290226
0.29149
0.290226
0.299444
0.310018
0.377636
0.29086
0.377584
0.37734
0.303055
0.290226
0.371674
0.374085
0.306065
0.36799
0.292739
0.349313
0.37739
0.335175
0.331316
0.332725
0.324966
0.305462
0.324966
0.324698
0.310299
0.311216
0.320359
0.361914
0.310988
0.310908
0.324869
0.340977
0.313034
0.297027
0.335179
0.328136
0.322279
0.351546
0.32256
0.350586
0.337541
0.314797
0.364393
0.323392
0.309076
0.298841
0.310578
0.335213
0.377595
0.309107
0.325601
0.360467
0.34635
0.329854
0.309111
0.30734
0.29642
0.337622
0.307298
0.377559
0.306668
0.377481
0.306879
0.366288
0.309101
0.308179
0.29149
0.377397
0.330386
0.355422
0.377078
0.345335
0.331313
0.306391
0.30848
0.377588
0.305977
0.311396
0.33265
0.298841
0.298841
0.309624
0.314842
0.328844
0.365917
0.305906
0.311963
0.304273
0.290226
0.308128
0.313039
0.336243
0.35373
0.297632
0.325187
0.302753
0.307049
0.298841
0.352647
0.302813
0.315213
0.304733
0.322923
0.301369
0.355701
0.312689
0.304192
0.321954
0.307368
0.307368
0.302663
0.321351
0.307368
0.37497
0.300758
0.297027
0.323457
0.348532
0.308527
0.32365
0.30939
0.292739
0.308549
0.301543
0.314148
0.31011
0.337193
0.304671
0.343029
0.299685
0.300952
0.300757
0.300111
0.325653
0.301787
0.377555
0.313527
0.308943
0.315992
0.297165
0.307947
0.296608
0.361961
0.348754
0.345393
0.300516
0.297331
0.295914
0.310013
0.323356
0.313159
0.296659
0.295747
0.296953
0.299011
0.315202
0.335424
0.310397
0.297053
0.296871
0.299406
0.298894
0.300214
0.29338
0.294248
0.296517
0.292746
0.322928
0.331715
0.292898
0.295163
0.292898
0.34096
0.340905
0.296803
0.292317
0.376948
0.318928
0.290981
0.291951
0.29094
0.318749
0.37753
0.374128
0.312788
0.305949
0.29025
0.341144
0.356343
0.292462
0.290226
0.293266
0.332381
0.323713
0.315775
0.313337
0.331101
0.326107
0.327929
0.329185
0.327344
0.330428
0.329185
0.319442
0.326688
0.317615
0.316997
0.331101
0.322509
0.323094
0.319442
0.329185
0.317615
0.328601
0.320067
0.317615
0.332857
0.328601
0.332857
0.332381
0.318219
0.31273
0.326688
0.315169
0.319442
0.323713
0.322509
0.332857
0.321887
0.317615
0.315169
0.331101
0.315775
0.31273
0.315775
0.311514
0.326107
0.321293
0.327929
0.326688
0.318219
0.316997
0.316391
0.331651
0.319442
0.314555
0.321293
0.320067
0.316997
0.323713
0.318839
0.328601
0.315775
0.331651
0.324287
0.324906
0.328601
0.328601
0.324287
0.331101
0.319442
0.314555
0.330428
0.332381
0.323713
0.321293
0.31395
0.326107
0.318839
0.31273
0.321293
0.328601
0.328601
0.331101
0.317615
0.327929
0.315775
0.325475
0.330428
0.326107
0.315169
0.324906
0.314555
0.317615
0.322509
0.322509
0.315775
0.315169
0.324287
0.314555
0.322509
0.331651
0.318839
0.315775
0.322509
0.321887
0.324906
0.323094
0.331101
0.315775
0.327344
0.332381
0.329185
0.329869
0.324906
0.316391
0.326107
0.315775
0.321887
0.327344
0.320067
0.329185
0.313337
0.328601
0.329185
0.316997
0.315169
0.319442
0.31395
0.311514
0.332857
0.327344
0.377531
0.377611
0.377665
0.317615
0.331101
0.331651
0.321887
0.377512
0.358584
0.318219
0.328601
0.332857
0.31395
0.377658
0.377641
0.37765
0.322509
0.331651
0.346323
0.325475
0.343804
0.377698
0.340364
0.332911
0.338829
0.345044
0.374374
0.345316
0.348009
0.335655
0.353031
0.335809
0.377677
0.33343
0.340099
0.333472
0.376482
0.362275
0.351563
0.333241
0.347043
0.331696
0.376721
0.359994
0.34687
0.331898
0.350277
0.336738
0.37759
0.332523
0.334258
0.334042
0.340471
0.377261
0.319442
0.364563
0.335336
0.333063
0.33235
0.327344
0.319442
0.355128
0.335196
0.333595
0.331175
0.357025
0.338812
0.358668
0.377205
0.331416
0.377361
0.376082
0.347611
0.355469
0.356231
0.377624
0.37765
0.341657
0.345929
0.334538
0.377635
0.331354
0.365795
0.329235
0.356246
0.351046
0.319442
0.353666
0.341138
0.377543
0.330584
0.371432
0.333198
0.329869
0.330486
0.339676
0.342025
0.330794
0.34262
0.334362
0.318839
0.377228
0.329871
0.368467
0.358765
0.329869
0.330081
0.33181
0.330533
0.371664
0.336868
0.33201
0.329212
0.354337
0.351344
0.33379
0.32992
0.377607
0.316997
0.341696
0.33884
0.330505
0.328601
0.358054
0.377299
0.33405
0.377644
0.331605
0.37746
0.354702
0.328601
0.377564
0.329646
0.328764
0.329808
0.348283
0.338291
0.355491
0.322509
0.328604
0.33555
0.377626
0.321293
0.335398
0.362595
0.332697
0.361681
0.330819
0.377541
0.377598
0.341434
0.329538
0.33571
0.34836
0.336055
0.375108
0.372329
0.335638
0.336947
0.328523
0.32996
0.369553
0.357831
0.327
0.327299
0.326933
0.335322
0.343136
0.339815
0.328261
0.338798
0.37742
0.37748
0.331014
0.329469
0.3772
0.331481
0.354049
0.328261
0.33162
0.374167
0.326718
0.336231
0.332337
0.324906
0.326547
0.36106
0.353589
0.377327
0.373028
0.377461
0.318219
0.377627
0.328375
0.354459
0.325769
0.325477
0.330044
0.374486
0.339055
0.324919
0.361752
0.327126
0.325172
0.327064
0.329596
0.320067
0.327462
0.32439
0.325027
0.377621
0.326133
0.374789
0.377591
0.377543
0.325343
0.327815
0.335313
0.336305
0.323995
0.335905
0.323927
0.327887
0.336211
0.35296
0.353779
0.348064
0.374252
0.342556
0.323704
0.324661
0.3314
0.37758
0.377181
0.323227
0.328173
0.323464
0.377499
0.377554
0.323118
0.319569
0.322002
0.377555
0.328181
0.333961
0.330631
0.324053
0.37707
0.377206
0.327416
0.327093
0.322745
0.351089
0.329081
0.377075
0.321465
0.320764
0.355379
0.323012
0.328895
0.321678
0.343887
0.320708
0.362935
0.327027
0.342978
0.354533
0.320318
0.321422
0.320645
0.327808
0.374736
0.329467
0.324443
0.319875
0.331609
0.335532
0.340697
0.325835
0.318279
0.323212
0.320645
0.325696
0.331829
0.349257
0.360953
0.377503
0.333359
0.326678
0.318227
0.319144
0.377129
0.334788
0.321486
0.318302
0.339106
0.360702
0.319871
0.318219
0.377594
0.345238
0.322133
0.318934
0.330737
0.347476
0.357525
0.317894
0.317701
0.317615
0.320715
0.320571
0.356478
0.318537
0.340983
0.317327
0.323152
0.327142
0.360864
0.343753
0.318442
0.377044
0.375321
0.319053
0.348177
0.377549
0.32736
0.317132
0.377624
0.318387
0.326171
0.377633
0.316684
0.337291
0.316338
0.315778
0.315775
0.316535
0.320502
0.317103
0.322043
0.319808
0.316075
0.319808
0.34642
0.321777
0.316262
0.324897
0.347828
0.377595
0.377522
0.318862
0.316438
0.322165
0.320553
0.314826
0.314919
0.377634
0.316472
0.336236
0.314628
0.319305
0.314607
0.321902
0.377449
0.329913
0.321716
0.318304
0.342899
0.37482
0.325797
0.315589
0.314253
0.314422
0.31362
0.323438
0.376984
0.336953
0.318005
0.316787
0.341023
0.313669
0.325699
0.377048
0.317823
0.377385
0.358512
0.330509
0.345033
0.343433
0.338805
0.315319
0.312176
0.31644
0.329107
0.322888
0.346443
0.340891
0.377289
0.311525
0.377339
)


// ************************************************************************* //
