/*--------------------------------*- C++ -*----------------------------------*\
  =========                 |
  \\      /  F ield         | OpenFOAM: The Open Source CFD Toolbox
   \\    /   O peration     | Website:  https://openfoam.org
    \\  /    A nd           | Version:  7
     \\/     M anipulation  |
\*---------------------------------------------------------------------------*/
FoamFile
{
    version     2.0;
    format      ascii;
    class       labelField;
    location    "0.7/lagrangian/reactingCloud1";
    object      cellId;
}
// * * * * * * * * * * * * * * * * * * * * * * * * * * * * * * * * * * * * * //


2563
(
2891
2802
2736
2608
2558
2480
2390
2317
2263
2196
2070
2003
1932
1861
1797
1752
1565
1604
1442
1364
1299
1238
1189
1111
1027
958
904
834
794
690
682
641
556
507
412
393
295
215
136
168
93
16
1068
3522
2764
3107
3457
3462
3476
2905
3193
3199
2769
3055
2916
3075
2931
2859
2499
2790
2645
2664
2435
2523
2448
2229
2551
2238
2161
2170
1889
2120
2041
1893
1906
1342
1762
1274
726
1548
1795
1651
1488
1501
1431
1357
1231
1146
1097
934
942
869
801
736
662
454
605
631
498
416
333
265
193
172
67
6
8358
8388
8087
7540
6711
5560
5576
5028
1581
1363
1164
1168
1093
873
872
599
818
629
511
259
266
448
195
201
42
7010
7585
6737
6471
5633
5079
2003
43
8895
9182
8898
8372
8362
8081
7789
6967
6391
5285
4739
4168
3884
3630
3074
2778
2489
1399
3
9687
9695
7428
7731
7719
6322
6074
5781
5775
4643
4645
4094
3821
3563
3252
3008
2129
1623
1012
5183
9089
4067
9023
9610
7907
9065
8790
8486
8508
7918
8223
7931
7926
7366
7379
7103
6246
5983
5701
5698
5711
4846
5167
4854
4621
3735
3460
2902
2924
2391
1236
954
968
695
679
9017
9296
4274
4832
1484
89
3716
6506
8738
5111
1763
9017
1763
9763
9518
9527
9828
9831
9557
9283
9001
8129
8140
6411
7294
7017
7298
7314
7318
6750
6202
6190
4754
5641
5075
4229
3667
3974
3127
2824
2854
2832
2575
1961
2573
2036
2022
1730
1154
888
309
315
8666
6155
2528
5318
8945
7550
3644
2528
1691
2528
2249
9503
8108
296
2249
8108
1412
7829
8387
296
4760
8666
5597
1133
9224
5318
7829
854
8108
3923
9224
6992
2249
9394
9703
9723
8874
9744
9755
9187
9204
8921
7480
8630
8348
8369
7494
6934
6361
7511
7522
6350
7521
6376
6097
6374
6668
6971
6385
6683
6112
6412
6125
6123
5555
5561
5279
4994
5008
4750
5008
4742
4439
3580
4177
3599
3044
2768
2476
2220
2220
1964
2227
2223
1635
1640
1627
1638
1668
1655
826
560
548
543
224
2456
9431
8873
8594
8315
6920
7199
2177
2177
503
503
782
6641
2177
4130
2456
7199
4130
1061
1340
2735
2735
503
6362
1898
2735
8036
9710
9710
8594
1340
1061
9152
782
8594
3293
503
8594
2177
1340
4967
6641
5804
8036
6083
9710
2456
1898
6083
3293
2456
8873
5246
4967
1619
6641
8315
5804
7199
7478
3014
7478
3851
3014
6083
9067
9378
9385
9671
9089
9094
9396
9700
9407
9431
8834
9141
8280
8582
7700
8584
8034
8308
8008
7440
8309
7723
6294
7456
6029
6630
6032
6048
6067
6063
4884
4688
5761
5194
4915
5498
4910
5519
4920
4620
4943
4946
4659
4392
4391
4387
3806
3200
3850
2639
3551
3254
3269
2410
2694
2719
2143
1846
2136
2131
2152
1564
1604
1583
1300
1293
1016
1034
1021
727
754
746
198
202
4337
8522
7406
6848
4616
3779
7964
2663
5174
4058
2105
8801
431
1547
7127
3500
1826
3779
7685
4337
5732
7685
1268
7685
8522
2942
7964
6011
4337
7685
5453
2942
6290
6848
431
152
1268
6848
7406
8243
8243
8801
4616
3779
1547
4895
8522
152
6011
6011
4616
6569
4895
6011
2384
2384
6848
6848
5453
2663
9080
7127
5174
6290
7964
3500
9080
3500
2663
3779
1268
6011
5174
1547
9080
4895
710
8243
5453
4895
7964
1547
7406
9359
3500
4616
7685
7685
6569
1826
8522
7685
152
7406
2384
2942
6011
4895
6848
989
6569
7964
8624
7538
2942
9602
9602
9628
9628
9339
9064
8497
6771
8506
8211
7928
7641
7938
8232
7086
7359
5927
6211
6794
152
7094
6532
5942
6838
5087
2105
6264
5392
5970
6270
5112
5687
5434
5430
5451
5145
5164
4273
4877
4886
3692
4610
3397
4302
4337
4315
4056
3458
3769
2578
2556
3481
2901
2577
3203
2905
2908
2920
1749
1762
2076
2096
1784
1520
1516
1245
970
687
388
425
98
107
2312
5660
917
9008
7334
8171
5939
8729
9008
1475
2870
9287
3707
9566
7055
7055
3149
9287
3707
5660
7613
7334
9566
7892
7334
6497
4823
3986
2870
6497
5939
7892
8450
1754
9566
2033
8171
3986
8729
6218
7055
7613
3428
5381
5660
6218
8450
1475
5939
9566
4823
8729
9008
1754
4544
5660
2033
1475
7055
7055
1475
3149
9566
9566
2312
3428
3986
5660
9287
359
4265
2312
2033
6776
6776
5939
1196
3986
7334
3428
5102
5381
2591
5102
5660
7892
7334
4265
7334
4823
5381
2870
1196
8450
5939
7334
359
7055
6218
9008
638
1754
8729
4823
3149
2033
9287
3149
3149
5660
1196
8171
7334
1475
3428
2033
9566
5939
5660
638
3428
2591
7055
3707
4544
6218
3986
1754
5939
6497
5381
917
5660
4265
2591
1475
7334
6497
9566
5660
4265
80
6218
6776
7334
3707
5660
1196
8171
8729
7334
5939
7613
7613
9566
5939
4265
5939
9008
8171
3428
1196
6497
917
2033
3707
5939
7334
7334
359
917
9008
5381
8171
1196
7334
6218
3428
80
8171
2033
1475
9008
7055
4265
7334
8171
7892
7892
80
3707
3149
5381
2312
638
8450
7055
8450
80
8171
2591
6497
9008
3707
3707
3986
5381
2870
7892
2033
6218
6776
1475
4265
6218
6218
8860
3428
8578
9516
9186
9789
8625
7438
7751
7463
9801
7779
9530
9537
9008
7806
8405
8969
9274
9282
7239
8997
8409
8400
6358
6055
8429
7249
8432
7859
7272
6991
7283
8161
7279
6414
7880
7009
7565
7868
7319
7598
6731
5858
7317
7306
6776
7045
7028
6746
5570
4954
5583
6174
5586
6759
6490
6182
5913
5624
5926
6218
5920
4745
5659
5642
5052
80
4779
4784
4465
4197
5073
4494
4814
3707
3879
3911
4512
917
3942
3322
4538
3960
3666
3979
3964
2870
3089
3098
3701
3114
2791
3108
2869
2850
2864
2561
1958
2580
2223
2244
2266
2293
1952
2298
1991
2015
1385
1019
1462
1140
1172
1174
1182
1196
865
835
828
896
872
581
893
451
440
588
350
489
51
4
48
223
1124
3635
4472
566
845
8
2240
8936
7262
9494
7820
6983
9494
1961
287
3635
5309
4751
4751
1124
5588
6704
5030
6146
8378
7262
8378
566
1124
845
6425
3077
1961
3914
5030
6704
6146
6146
5030
6983
4751
5867
3077
6146
9215
566
845
5309
7541
1682
8657
2798
8
287
6425
6146
7820
1124
566
3914
1682
2240
6983
287
1403
1682
287
5867
1403
287
9494
566
6983
8378
1961
3635
4751
1961
3356
2798
5588
1403
3077
3914
1961
3914
3635
7541
9773
9215
3914
6704
9773
9773
3914
6704
1682
3914
5030
5867
9215
8378
6704
1403
8378
3077
2798
1403
5867
9494
9215
4751
8099
8657
3635
9773
8
9215
287
287
2519
5030
4193
1682
3914
287
5309
4751
3635
1961
845
5588
3635
7820
3356
8
566
7262
7820
8657
2240
4751
1961
3635
2240
5588
8099
6704
5030
7262
5867
2240
566
5867
3077
4751
1961
2240
1124
1403
8936
845
6146
5867
287
1124
7262
3635
7262
5588
3914
5867
5030
4751
1682
2798
1403
845
6146
5588
8099
7541
3914
5309
6704
2519
845
4472
4193
8936
2519
2240
6983
7820
8936
6146
8657
2798
9215
7541
3914
3077
8936
4193
4472
845
2798
6146
7541
9773
9215
3356
2798
3635
8099
2519
7820
7262
3077
2798
1124
9773
7820
8936
2519
3077
5588
2240
5556
8378
3635
8936
4472
3356
5309
8657
845
3635
6146
1403
6704
845
8657
5867
3356
8099
7262
2240
5588
1682
5588
9215
9692
9095
8208
9101
566
9170
9681
9110
9215
9486
9443
3077
9694
9761
9462
9752
9713
8597
9175
9468
9150
8602
8617
8622
4188
8042
8337
8637
8374
8652
7156
8089
7770
6898
8362
7521
8366
6292
6040
6645
6333
3914
7226
8
2519
7243
6964
6343
6652
6664
6950
6351
5482
566
6702
5215
5867
4017
4951
5263
3764
3452
4060
4703
2519
5013
4751
4726
4693
4724
4397
4720
4422
3868
4463
4191
4445
4187
4186
3836
4173
3246
1124
3249
3585
3577
3001
3614
3350
2735
3030
3052
2759
2788
2519
2745
2123
2797
2485
1124
2211
2222
1906
1931
1928
1679
1640
1636
1662
1672
1670
1373
1397
1402
1092
1030
809
814
821
452
539
528
556
160
272
5795
5237
1889
4400
5795
3005
7190
5237
5237
9143
773
7748
7190
2726
3842
7469
6632
6074
8585
773
2168
494
6074
3284
5237
8864
1331
2168
8027
5516
6632
8306
2726
7190
6074
9701
2447
8306
2168
6074
8306
9701
4958
8027
215
8027
2726
4400
1610
5795
3563
6632
215
7190
2168
3563
5516
215
3284
3005
8864
3842
1052
4679
7469
3284
3563
8864
2726
2726
1610
215
1889
6632
5795
2168
5516
9701
3284
4400
215
5237
9143
2726
4400
3005
2447
2447
9422
8306
773
6353
8585
4958
4121
3005
4958
2168
3284
215
773
9422
2168
7748
9422
7190
5237
5237
9422
4400
4121
6632
2168
9701
9701
3005
2168
773
8306
7190
494
215
4958
5516
9422
7748
7190
1610
3284
6074
9422
1610
1331
2168
3005
4400
9143
3284
4121
6353
3563
4400
2447
5237
8027
6074
4958
3563
9143
7748
2726
773
9422
6911
2726
4958
4958
1331
773
3563
3842
4121
3005
7190
3005
1610
2168
5516
215
2168
8027
4400
5516
3842
1889
9701
5516
9422
3284
9203
9733
8940
9553
8585
8399
8113
8447
9605
8723
8409
9036
7556
9338
9674
6691
9695
9421
9095
9069
8557
8857
8850
8580
3284
7963
8273
494
7989
5846
7690
7998
7662
6163
7736
7450
5608
6876
6559
5632
6225
6184
6911
6544
6270
6594
6309
6301
5967
5987
6328
6332
5622
6010
5755
6055
5095
5443
5771
5215
4794
5759
5230
5515
5232
5224
4942
4600
3924
3041
5217
4310
4353
4400
4104
4389
4120
4393
4097
3092
4083
3136
4107
3759
3788
3450
3514
3517
3405
3190
3221
3560
3531
3154
2547
2923
3259
2950
2933
2416
1766
215
1808
1867
1802
1867
1610
1099
1272
1216
1321
1008
967
751
700
706
439
490
469
327
396
159
174
124
190
200
422
3770
2654
6002
2654
6002
9629
1817
3770
701
5444
3770
143
6281
422
5444
3212
3491
5723
1538
3491
7397
4049
9350
9350
7676
4328
2096
6002
9629
2096
1817
5723
3770
4886
7397
3770
7955
980
3770
4607
3212
422
1259
6281
7118
9629
2096
2654
1538
3491
9629
143
701
3491
8792
3212
143
5444
1817
6560
4049
1817
5165
980
8792
1817
1817
6002
7676
1538
6560
5444
9071
4049
1538
2096
9071
2096
6839
1538
1259
701
6839
4328
7397
2375
6002
9629
8234
422
8513
4886
5444
1259
5723
1538
4607
4886
422
7676
6002
3212
2654
6560
5165
4607
8792
3212
9350
6560
3212
6281
6560
9071
1259
4328
9611
6839
6002
4049
6560
2933
4607
1538
8513
6839
6002
8234
7397
6281
1259
7118
2096
143
701
143
4328
9059
9366
422
9654
9668
6002
143
9425
9421
7397
9152
1259
9464
8829
9785
9518
9793
9820
7118
9820
9821
9350
9617
9277
8604
9623
9628
8980
8650
9031
3212
8388
8969
8709
8065
8708
8067
8381
9021
7764
8145
8497
4049
8766
7550
6584
8211
7858
6934
7519
7845
7927
7950
2933
7264
7952
6030
7676
6035
7667
6925
7644
7651
701
5202
7005
6385
6052
6406
6723
7099
7083
6027
7104
7068
6440
4049
4049
6795
6493
6171
5532
6535
6223
6558
143
6521
6219
5872
5273
3491
5622
5713
6245
4049
5275
5712
5651
5412
5069
5159
4712
5379
5133
4792
4837
4837
4860
4514
4837
4124
4592
3212
4229
4168
4552
4508
4549
1259
3991
4302
4254
3986
3079
4005
3623
3749
3459
3742
3746
3106
3455
2683
3416
3149
2850
3206
3152
2926
2472
2216
2502
2898
2917
2649
2026
1994
2018
2355
2363
2353
2342
2013
1967
2025
2070
1789
1778
1780
1775
1536
1523
1509
1258
1157
1138
1253
1234
1253
839
1118
664
687
478
607
417
406
418
328
453
502
341
357
141
2
251
120
143
116
9557
5651
2024
908
8999
6767
7604
8162
7325
8720
8162
3698
7046
2861
2582
8999
5093
5372
3698
8162
2861
7883
3977
2861
9836
7883
9836
9557
3140
629
7046
1745
3698
5651
5093
9836
4814
2861
1745
8999
2024
629
2024
71
6767
4535
7604
7046
3140
2582
2303
9278
3698
1466
4535
3977
2582
5651
3419
7883
2024
9278
5930
6209
7883
7883
5930
8999
3698
1466
8720
9557
5651
4535
1187
6767
3419
629
4535
7883
7883
8999
2861
7604
2024
6488
8720
6767
1745
6209
1466
2861
5093
5093
2024
1745
5930
1466
5093
9278
3419
2024
5093
4814
6209
5372
8999
2024
7325
9557
8162
8441
6209
2303
6767
2024
4814
7325
3977
8162
908
7883
8162
2582
1745
3698
1187
71
9836
7325
9310
8742
9014
2861
8999
9278
4814
9311
9645
3140
7883
9836
1187
9015
9299
9016
5093
9278
9693
6488
9709
9007
9733
9828
9745
9701
9057
9419
9403
9775
9661
9490
8452
9809
9735
9808
9052
9079
9387
9814
9128
9271
8494
8805
9129
9261
8833
9481
8186
9544
9508
9511
9451
8204
3698
8517
9495
9820
9249
7325
3698
8817
9211
8944
8990
8533
8899
8808
8210
8980
8200
8496
8565
8537
8535
7621
7618
8880
8574
8934
7899
8982
8236
8155
8256
7992
3698
8263
8602
7353
8707
7669
8379
8441
8415
8893
8316
8409
8593
8085
3419
7368
8440
7674
8250
8441
8426
7824
8414
7390
8349
8106
8157
7982
7991
7807
8134
7344
2582
8037
7773
7838
7883
7415
6528
7805
6502
7826
6521
7423
7883
7072
7562
7575
7560
7164
7495
7421
5093
7578
7512
6504
4535
7513
7127
7250
6850
7549
6795
6508
7197
7278
6948
6605
6665
6548
6553
7230
7222
6719
6989
6279
6579
7029
7022
7031
7232
6908
6925
7007
6650
5965
5962
6980
6710
5974
6694
6030
7007
6693
5714
7041
6664
6688
6209
6747
6015
6589
5132
5716
5963
3140
5667
6436
6029
6472
6487
6422
5992
6088
6206
5735
5880
6194
6165
6143
3977
5877
5921
5905
4831
5890
4877
5115
5400
5900
5874
5546
5541
5636
5543
5638
5308
5261
5196
5194
5210
4878
5232
5350
5623
5286
4838
4590
5362
5024
5355
4566
4562
5368
3689
4805
4004
4742
4711
4166
4489
3749
3742
4465
4467
4502
4364
4174
4029
4524
4248
4075
4499
4175
4229
3829
4251
3782
3904
4112
3798
3964
3946
3957
4181
3484
3891
3920
3681
3600
3863
3562
3911
2269
3646
3384
3630
3599
3253
3228
2613
3312
3062
3138
3405
2639
3306
3093
3133
3009
2671
3107
3140
2325
2707
2806
2832
3043
2700
2398
2848
2854
2861
2533
2534
2400
2551
2443
2568
2518
2498
2392
2433
2552
2080
1811
2546
2419
1773
2497
2282
1762
2268
1941
1761
2290
2177
2006
2023
2024
2003
2252
1996
1961
1692
2011
1692
1866
1681
1720
1666
1862
1488
1217
1698
1718
1679
1406
1454
1452
924
1433
1342
1460
1413
1461
1118
1221
1085
1400
1137
1040
976
1101
873
886
884
896
1111
685
1060
575
582
767
607
821
680
576
387
445
523
475
480
495
309
345
302
528
552
192
209
112
69
110
)


// ************************************************************************* //
