/*--------------------------------*- C++ -*----------------------------------*\
  =========                 |
  \\      /  F ield         | OpenFOAM: The Open Source CFD Toolbox
   \\    /   O peration     | Website:  https://openfoam.org
    \\  /    A nd           | Version:  7
     \\/     M anipulation  |
\*---------------------------------------------------------------------------*/
FoamFile
{
    version     2.0;
    format      ascii;
    class       vectorField;
    location    "0.7/lagrangian/reactingCloud1";
    object      coordinates;
}
// * * * * * * * * * * * * * * * * * * * * * * * * * * * * * * * * * * * * * //


2563
(
(-1.06003 0.203879 -1.30428e-12)
(-1.06666 0.331494 8.13877e-11)
(-1.08209 0.313796 -3.70665e-10)
(-1.09939 0.264453 -1.05177e-10)
(-1.12028 0.155167 -2.05691e-10)
(-1.13194 0.209723 -2.11014e-10)
(-1.13655 0.33986 -4.17777e-10)
(-1.15019 0.36649 -1.47318e-10)
(-1.17241 0.281115 -8.77435e-10)
(-1.1902 0.274286 -5.25787e-11)
(-1.20961 0.21381 -3.80439e-10)
(-1.22354 0.212844 -3.43592e-10)
(-1.24007 0.22465 -5.49358e-10)
(-1.25457 0.241159 -7.93149e-10)
(-1.27221 0.220598 2.53119e-12)
(-1.28955 0.0864476 -7.01933e-11)
(-1.30489 0.377181 2.52094e-07)
(-1.31806 0.159405 -1.65351e-10)
(-1.33382 0.305721 7.55492e-11)
(-1.34718 0.361782 3.74805e-10)
(-1.36494 0.343538 1.57298e-11)
(-1.38242 0.306451 -3.05322e-10)
(-1.3983 0.199147 -2.86331e-10)
(-1.41579 0.252506 -4.79246e-11)
(-1.43015 0.346873 -1.33463e-10)
(-1.44536 0.352239 -7.80399e-11)
(-1.46197 0.273052 -1.67503e-10)
(-1.48113 0.281875 6.5332e-11)
(-1.49564 0.124737 -5.14236e-11)
(-1.51145 0.325594 6.10575e-12)
(-1.51091 0.371456 4.74114e-12)
(-1.5281 0.219785 1.82203e-11)
(-1.54281 0.315976 3.7427e-11)
(-1.55973 0.208866 7.87698e-12)
(-1.57707 0.359469 7.24836e-12)
(-1.59366 0.0819109 2.12318e-12)
(-1.60934 0.254944 6.58862e-12)
(-1.62498 0.319438 -3.13248e-12)
(-1.64055 0.382802 8.83092e-13)
(-1.64013 0.20351 -1.28656e-12)
(-1.65795 0.239259 -3.62844e-12)
(-1.67301 0.295858 -1.96785e-13)
(-0.842341 0.448395 -9.51826e-07)
(-0.317237 0.330816 -4.16598e-06)
(-0.487265 0.439842 -2.19905e-06)
(-0.412891 0.400239 2.83413e-05)
(-0.335851 0.3176 1.40163e-09)
(-0.338516 0.292166 3.83375e-10)
(-0.339475 0.209042 8.72256e-10)
(-0.451247 0.398325 5.23832e-06)
(-0.388214 0.281867 -1.24095e-11)
(-0.388752 0.243451 -2.83039e-12)
(-0.476257 0.4067 5.84527e-07)
(-0.4291 0.301439 -9.60036e-12)
(-0.448416 0.327025 -3.13219e-11)
(-0.428497 0.178375 8.79487e-10)
(-0.450001 0.229656 -1.59231e-11)
(-0.46809 0.261669 1.78554e-09)
(-0.544279 0.40365 3.9228e-06)
(-0.490643 0.266046 -1.10099e-11)
(-0.514309 0.330356 4.70854e-10)
(-0.519283 0.207493 1.02656e-09)
(-0.557348 0.377534 -4.17021e-11)
(-0.546187 0.24269 1.25668e-09)
(-0.563317 0.286756 1.24825e-09)
(-0.606825 0.39832 -9.37828e-07)
(-0.557169 0.0534008 -1.29383e-13)
(-0.603275 0.333127 1.01397e-09)
(-0.626193 0.399237 -6.11219e-08)
(-0.624602 0.338283 -8.07476e-11)
(-0.671509 0.410709 -6.29186e-07)
(-0.637735 0.216356 8.84324e-10)
(-0.65431 0.295493 5.99035e-10)
(-0.674189 0.381483 -1.49051e-10)
(-0.67682 0.289359 -3.32063e-11)
(-0.790276 0.443245 1.77962e-07)
(-0.714367 0.348235 -1.00052e-10)
(-0.801575 0.439975 -4.78772e-07)
(-0.900781 0.447238 -1.04694e-06)
(-0.754997 0.423798 -5.05453e-06)
(-0.716001 0.108654 1.80692e-10)
(-0.740047 0.171953 2.17922e-10)
(-0.759711 0.365683 -1.85485e-11)
(-0.765977 0.276254 7.76491e-10)
(-0.77907 0.289521 3.77621e-10)
(-0.79094 0.327505 7.53827e-10)
(-0.811394 0.256018 -3.94961e-12)
(-0.828287 0.380716 2.74361e-10)
(-0.835726 0.239361 -7.26597e-13)
(-0.861888 0.432793 1.64514e-06)
(-0.862248 0.374535 9.35652e-11)
(-0.871023 0.409847 -1.00018e-06)
(-0.889053 0.403071 4.35796e-10)
(-0.898047 0.381819 1.51416e-10)
(-0.918213 0.414305 -3.78286e-07)
(-0.952782 0.429094 -2.27696e-06)
(-0.933162 0.335995 3.36794e-11)
(-0.925943 0.158918 4.87818e-11)
(-0.951508 0.140997 1.56662e-10)
(-0.96339 0.226821 2.72403e-10)
(-0.973434 0.322553 8.76944e-10)
(-0.985355 0.319945 4.90889e-10)
(-0.997171 0.344332 -4.25199e-11)
(-1.02021 0.0387605 3.79524e-11)
(-1.02687 0.276409 2.15323e-10)
(-1.03581 0.38463 3.42557e-10)
(0.150301 0.218264 -1.47077e-06)
(0.154488 0.0848229 -5.76901e-11)
(0.141249 0.182294 3.28411e-07)
(0.120216 0.133855 -8.28879e-10)
(0.0854326 0.097383 -1.85875e-12)
(0.0496824 0.25331 -1.46792e-06)
(0.0490153 0.182456 -2.62639e-10)
(0.0350238 0.13461 -2.30291e-10)
(-0.0384553 0.166099 -1.91519e-11)
(-0.06878 0.237362 1.8652e-10)
(-0.0959098 0.217147 7.2078e-11)
(-0.10106 0.198646 4.02015e-11)
(-0.106146 0.236004 1.06424e-10)
(-0.144207 0.325148 -5.10795e-07)
(-0.141278 0.330189 -4.46615e-06)
(-0.183938 0.345552 4.00228e-07)
(-0.159405 0.262235 2.18295e-11)
(-0.191074 0.189332 1.78529e-12)
(-0.216364 0.0977367 7.16708e-10)
(-0.246747 0.368248 2.7442e-06)
(-0.245996 0.326373 -8.65166e-06)
(-0.231035 0.0684741 4.08601e-12)
(-0.259846 0.347885 -7.01746e-07)
(-0.268445 0.313351 3.16838e-10)
(-0.313093 0.150519 3.87832e-12)
(0.461184 0.28221 1.0177e-06)
(0.480915 0.210204 2.45903e-07)
(0.448565 0.256244 1.06368e-06)
(0.432418 0.199397 -2.82246e-08)
(0.38986 0.204667 -1.89082e-06)
(0.374721 0.185536 -1.32657e-08)
(0.239336 0.217437 -6.34477e-06)
(0.159708 0.247951 -5.12343e-07)
(1.15899 0.26466 1.20828e-06)
(1.19278 0.229542 1.86144e-06)
(1.1719 0.251593 2.54435e-06)
(1.13178 0.111205 2.99749e-12)
(1.12382 0.154962 1.05285e-11)
(1.1027 0.161773 4.25713e-07)
(1.08725 0.223223 7.07356e-07)
(1.03213 0.153439 1.78547e-13)
(0.988372 0.237118 4.02363e-07)
(0.90677 0.191971 -2.14261e-07)
(0.872453 0.136286 1.20102e-15)
(0.848675 0.194811 -7.11396e-07)
(0.834712 0.218592 -4.19336e-07)
(0.817138 0.103195 -7.22879e-12)
(0.779045 0.0961639 -8.57327e-13)
(0.759797 0.173188 4.05316e-06)
(0.745059 0.21685 -4.67571e-06)
(0.682443 0.099389 -5.41018e-11)
(0.59696 0.105647 -4.19548e-12)
(2.12493 0.147195 -6.56662e-13)
(2.11988 0.11136 -1.63971e-12)
(1.88557 0.266609 6.21761e-07)
(1.91505 0.157612 1.08687e-06)
(1.90284 0.212013 2.21356e-06)
(1.78855 0.220377 -2.75683e-07)
(1.75198 0.0806818 9.96882e-12)
(1.73051 0.146515 -9.6514e-14)
(1.71891 0.170271 -3.16213e-06)
(1.62242 0.242832 2.88041e-06)
(1.61706 0.236633 9.71885e-07)
(1.5617 0.205685 -4.99175e-06)
(1.5457 0.17794 -1.69732e-07)
(1.52648 0.0810558 1.6673e-11)
(1.48904 0.224122 7.62832e-07)
(1.48538 0.0680768 -2.58066e-13)
(1.39461 0.259677 1.28512e-07)
(1.36266 0.0243833 -2.542e-13)
(1.31398 0.264167 -1.35155e-07)
(2.73488 -2.12553e-33 1.85492e-35)
(3.29583 -2.07799e-33 1.81343e-35)
(2.60434 -2.13659e-33 1.86458e-35)
(3.28584 0.297456 1.30668e-05)
(3.37699 0.169787 6.43926e-07)
(3.13245 0.299852 3.62463e-08)
(3.27093 0.111731 -1.26449e-06)
(3.24722 0.0935855 -8.53955e-13)
(3.21561 0.201538 1.03374e-07)
(3.20156 0.104524 -3.47275e-13)
(3.10839 0.246652 -9.67849e-08)
(3.15144 0.133394 -3.36293e-06)
(3.12424 0.192166 -1.1957e-07)
(3.12242 0.210719 5.22597e-07)
(3.03096 0.22091 -1.67799e-06)
(3.04385 0.162401 -3.7816e-07)
(3.01057 0.150313 -8.0324e-07)
(2.88829 0.239817 2.47329e-06)
(2.84283 0.168349 3.48303e-06)
(2.80171 0.179173 2.86531e-06)
(2.81042 0.194966 4.61144e-06)
(2.80218 0.135663 -8.21434e-14)
(2.70916 0.26024 -3.66977e-07)
(2.72531 0.0753389 7.80916e-14)
(2.70413 0.226676 -1.68835e-06)
(2.67044 0.0180252 -8.90064e-13)
(2.58199 0.238564 -1.41562e-06)
(2.51662 0.220187 -1.78887e-09)
(2.4653 0.220803 -3.9166e-07)
(2.46234 0.124149 -4.27429e-12)
(2.4044 0.0133014 -8.0672e-13)
(2.27099 0.185668 2.89868e-06)
(2.22825 0.200268 2.02209e-06)
(2.22572 0.138415 -7.423e-13)
(2.21734 0.109372 3.52881e-13)
(2.1952 0.181722 3.87612e-06)
(5.02307 -1.9316e-33 1.68568e-35)
(5.1085 -1.92436e-33 1.67936e-35)
(4.13205 -2.00712e-33 1.75158e-35)
(4.21366 -2.0002e-33 1.74555e-35)
(3.63747 -2.04903e-33 1.78816e-35)
(3.40342 -2.06887e-33 1.80547e-35)
(3.99888 -2.0184e-33 1.76143e-35)
(4.50718 -1.97532e-33 1.72384e-35)
(4.97762 -1.93545e-33 1.68904e-35)
(4.25187 -1.99696e-33 1.74272e-35)
(3.69546 -2.04412e-33 1.78387e-35)
(5.02693 -1.93127e-33 1.6854e-35)
(3.67663 -2.04571e-33 1.78527e-35)
(5.19958 0.407985 -1.5272e-06)
(5.13207 0.257295 4.66104e-06)
(5.17694 0.215778 -1.8983e-07)
(5.23398 0.117147 1.05073e-14)
(5.19428 0.106915 -8.67638e-14)
(5.12826 0.0841562 1.63356e-14)
(5.09055 0.0612267 2.79041e-13)
(5.03915 0.0727575 2.02954e-13)
(4.8529 0.231435 1.36388e-08)
(4.8557 0.179277 1.19026e-07)
(4.51403 0.42885 -2.50415e-06)
(4.67575 0.221688 3.14545e-06)
(4.64565 0.213733 -8.78248e-08)
(4.67326 0.203947 -4.21763e-07)
(4.67154 0.13082 6.72373e-07)
(4.6781 0.114728 2.04934e-14)
(4.55421 0.15761 1.42741e-07)
(4.49147 0.113856 -8.70926e-16)
(4.4554 0.167902 -1.0246e-06)
(4.2089 0.352993 -1.49028e-06)
(4.36823 0.126481 1.1926e-07)
(4.26543 0.163255 -2.09555e-07)
(4.09775 0.201546 -2.9429e-06)
(4.01457 0.222419 5.42013e-06)
(4.03603 0.0970493 -6.24465e-15)
(3.89567 0.141654 6.8015e-07)
(3.85068 0.249445 -3.38162e-07)
(3.87315 0.113492 -1.59033e-15)
(3.84756 0.211973 -5.80636e-09)
(3.83055 0.113565 -2.21575e-14)
(3.73739 0.363337 -6.75693e-06)
(3.81503 0.125168 3.31699e-12)
(3.74503 0.028743 -1.53124e-13)
(3.73196 0.0937804 -2.3016e-06)
(3.68668 0.148454 -8.54974e-06)
(3.57416 0.22991 4.51947e-07)
(3.56499 0.172742 7.40648e-08)
(3.47709 0.264831 1.12508e-06)
(3.44662 0.241672 9.35839e-07)
(7.42253 -1.72824e-33 1.50821e-35)
(6.7267 -1.78721e-33 1.55968e-35)
(5.8102 -1.86489e-33 1.62746e-35)
(6.51761 -1.80493e-33 1.57514e-35)
(7.52184 -1.71982e-33 1.50087e-35)
(7.0914 -1.7563e-33 1.5327e-35)
(6.06877 -1.84297e-33 1.60834e-35)
(5.75029 -1.86997e-33 1.63189e-35)
(5.5599 -1.8861e-33 1.64598e-35)
(5.76202 -1.86897e-33 1.63103e-35)
(5.73151 -1.87156e-33 1.63328e-35)
(7.70386 -1.7044e-33 1.4874e-35)
(7.25643 -1.74232e-33 1.5205e-35)
(5.26015 -1.91151e-33 1.66815e-35)
(5.71323 -1.87311e-33 1.63464e-35)
(7.25762 -1.74222e-33 1.52041e-35)
(5.55325 -1.88667e-33 1.64647e-35)
(7.17957 -1.74883e-33 1.52618e-35)
(7.34308 -1.73497e-33 1.51409e-35)
(5.26717 -1.91091e-33 1.66763e-35)
(6.35553 -1.81867e-33 1.58713e-35)
(7.39307 -1.73074e-33 1.51039e-35)
(6.54839 -1.80232e-33 1.57286e-35)
(5.47908 -1.89295e-33 1.65195e-35)
(7.61809 -1.71167e-33 1.49375e-35)
(6.45306 -1.8104e-33 1.57992e-35)
(7.18032 -1.74877e-33 1.52613e-35)
(5.42361 -1.89765e-33 1.65606e-35)
(7.23545 -1.7441e-33 1.52205e-35)
(6.13223 -1.8376e-33 1.60365e-35)
(7.61525 -1.71191e-33 1.49396e-35)
(6.96617 -1.76692e-33 1.54197e-35)
(5.72838 -1.87182e-33 1.63352e-35)
(7.6708 0.488756 -2.85343e-06)
(7.76642 0.357501 -9.69742e-06)
(7.77748 0.264946 -2.57462e-06)
(7.51735 0.321201 -2.85981e-06)
(7.7976 0.172326 1.05249e-07)
(7.77204 0.122516 -2.58002e-06)
(7.6066 0.166302 -1.81186e-06)
(7.62102 0.0925055 4.70535e-07)
(7.51983 0.111809 1.56766e-07)
(7.11359 0.313839 -7.4627e-06)
(7.40973 0.163475 3.32419e-07)
(7.3507 0.179071 -1.32085e-06)
(7.31845 0.0822695 3.12049e-14)
(7.11253 0.252665 1.03237e-05)
(6.93459 0.263146 -7.14974e-06)
(6.80519 0.329059 -5.85544e-07)
(7.08878 0.175476 3.68146e-06)
(7.0659 0.126724 -5.52238e-07)
(6.77264 0.377508 3.5102e-06)
(7.08816 0.133619 1.70841e-07)
(6.78176 0.260783 -5.47989e-06)
(6.70837 0.262146 -7.34397e-07)
(6.76551 0.27108 -7.3625e-08)
(6.84931 0.204258 4.12015e-07)
(6.95437 0.0960284 9.59632e-14)
(6.80786 0.221119 6.65859e-07)
(6.88382 0.137711 4.33623e-07)
(6.71317 0.192955 -5.64761e-06)
(6.80887 0.0999657 4.22637e-07)
(6.718 0.135867 7.6686e-07)
(6.67064 0.144918 1.30351e-07)
(6.53699 0.188924 4.3133e-06)
(6.54774 0.161366 3.89816e-06)
(6.48837 0.175837 2.05022e-06)
(6.39831 0.205 -5.18764e-07)
(6.42359 0.140895 9.95784e-07)
(6.35879 0.0483206 -8.91522e-16)
(6.3915 0.139382 6.19915e-07)
(6.36204 0.0833589 1.9177e-06)
(6.2674 0.189665 -2.7518e-06)
(6.04634 0.287082 2.18484e-06)
(6.21423 0.115842 -1.1773e-07)
(6.0459 0.204923 7.25647e-07)
(5.89879 0.192192 5.31751e-07)
(5.85082 0.177712 6.5346e-07)
(5.75634 0.23403 2.47406e-06)
(5.74462 0.133643 -2.58738e-07)
(5.73914 0.132025 4.77526e-06)
(5.67219 0.0287149 4.36132e-14)
(5.72172 0.0988342 1.23491e-12)
(5.717 0.117147 7.01746e-07)
(5.6127 0.254205 -1.23569e-07)
(5.61858 0.228909 -1.60036e-06)
(5.57972 0.286979 -2.61512e-06)
(5.58639 0.23796 2.87979e-06)
(5.5717 0.104513 2.46385e-14)
(5.5676 0.162218 -1.15527e-06)
(5.41404 0.128464 -2.30496e-06)
(5.30679 0.0711126 -4.55714e-06)
(5.35855 0.122529 -5.7724e-06)
(5.35304 0.144105 1.02131e-06)
(7.83614 -1.69319e-33 1.47762e-35)
(8.51229 -1.63588e-33 1.42761e-35)
(10.8333 -1.43917e-33 1.25594e-35)
(10.6398 -1.45557e-33 1.27026e-35)
(10.5296 -1.46491e-33 1.27841e-35)
(10.4059 -1.47539e-33 1.28756e-35)
(10.0238 -1.50777e-33 1.31581e-35)
(10.0378 -1.50659e-33 1.31478e-35)
(8.43034 -1.64283e-33 1.43367e-35)
(8.45975 -1.64033e-33 1.4315e-35)
(7.91812 -1.68624e-33 1.47156e-35)
(7.92003 -1.68608e-33 1.47142e-35)
(8.02437 -1.67723e-33 1.4637e-35)
(9.88598 -1.51946e-33 1.32601e-35)
(8.43895 -1.6421e-33 1.43303e-35)
(9.11804 -1.58454e-33 1.38281e-35)
(8.54823 -1.63283e-33 1.42495e-35)
(10.0884 -1.5023e-33 1.31104e-35)
(9.05205 -1.59013e-33 1.38769e-35)
(8.1095 -1.67002e-33 1.4574e-35)
(8.18417 -1.66369e-33 1.45188e-35)
(8.61645 -1.62705e-33 1.41991e-35)
(8.6862 2.18528e-22 -1.90707e-24)
(7.90313 -1.68751e-33 1.47267e-35)
(9.82759 -1.52441e-33 1.33033e-35)
(8.39946 -1.64544e-33 1.43596e-35)
(8.606 -1.62794e-33 1.42068e-35)
(10.3547 -1.47973e-33 1.29134e-35)
(10.9293 -1.43103e-33 1.24884e-35)
(10.8948 -1.43396e-33 1.2514e-35)
(10.5041 -1.46707e-33 1.28029e-35)
(8.15418 -1.66623e-33 1.4541e-35)
(8.06989 -1.67337e-33 1.46033e-35)
(10.6652 -1.45342e-33 1.26838e-35)
(7.99256 -1.67993e-33 1.46605e-35)
(10.5314 -1.46476e-33 1.27827e-35)
(8.79383 -1.61202e-33 1.40679e-35)
(7.9614 -1.68257e-33 1.46836e-35)
(10.5406 -1.46398e-33 1.27759e-35)
(8.48279 -1.63838e-33 1.42979e-35)
(8.21133 -1.66139e-33 1.44987e-35)
(9.37212 -1.56301e-33 1.36402e-35)
(9.86453 -1.52127e-33 1.3276e-35)
(9.65332 -1.53917e-33 1.34322e-35)
(10.3361 -1.48131e-33 1.29272e-35)
(9.76284 -1.52989e-33 1.33512e-35)
(10.892 -1.43419e-33 1.2516e-35)
(8.55901 -1.63192e-33 1.42416e-35)
(8.3824 -1.64689e-33 1.43722e-35)
(9.74957 -1.53102e-33 1.3361e-35)
(8.83273 -1.60872e-33 1.40391e-35)
(8.51813 -1.63539e-33 1.42718e-35)
(10.6458 -1.45506e-33 1.26981e-35)
(9.48641 -1.55332e-33 1.35556e-35)
(9.37848 -1.56247e-33 1.36355e-35)
(8.33165 -1.65119e-33 1.44097e-35)
(9.94063 -1.51482e-33 1.32197e-35)
(10.4064 -1.47535e-33 1.28752e-35)
(9.60657 -1.54314e-33 1.34668e-35)
(10.1125 -1.50026e-33 1.30926e-35)
(10.1488 -1.49718e-33 1.30657e-35)
(8.73222 -1.61724e-33 1.41134e-35)
(10.1988 -1.49294e-33 1.30287e-35)
(9.03685 -1.59142e-33 1.38881e-35)
(8.71122 -1.61902e-33 1.4129e-35)
(9.74017 -1.53181e-33 1.33679e-35)
(10.7343 0.382732 -3.99455e-06)
(10.8061 0.239764 -3.80499e-07)
(10.8312 0.206281 5.03632e-07)
(10.9112 0.175002 -6.75112e-08)
(10.671 0.285789 -1.73159e-06)
(10.6675 0.262974 -2.03754e-06)
(10.7719 0.16106 7.92493e-07)
(10.8792 0.0454741 -6.2913e-07)
(10.84 0.11088 -3.00578e-07)
(10.8286 0.000604337 -3.42691e-07)
(10.6037 0.178002 -1.92569e-06)
(10.7442 0.0497377 8.48745e-08)
(10.4546 0.160353 3.56009e-06)
(10.5455 0.055654 -7.56898e-06)
(10.2891 0.256373 -2.29839e-06)
(10.5022 0.0462572 -1.3534e-06)
(10.3841 0.0126951 3.37712e-06)
(10.4105 0.0340114 1.73121e-06)
(10.3076 0.129583 3.57968e-07)
(10.1975 0.17073 2.53602e-07)
(10.4308 0.0302945 -3.97045e-06)
(10.2287 0.155388 -7.25626e-08)
(9.81711 0.305685 -1.07705e-05)
(10.194 0.0986396 1.59321e-07)
(9.7077 0.245192 -1.10939e-06)
(9.89717 0.0509824 -1.23766e-08)
(9.68011 0.229483 -6.28536e-07)
(9.712 0.160329 -6.06596e-07)
(9.73558 0.0721227 -3.84967e-06)
(9.74266 0.0906136 -1.10587e-06)
(9.36609 0.373948 -2.52011e-06)
(9.2969 -1.56938e-33 1.36958e-35)
(9.58908 0.195918 -1.56417e-07)
(9.45803 0.236524 2.65532e-07)
(9.40603 0.234428 7.15224e-06)
(9.56276 0.122642 5.86509e-07)
(9.34661 0.257547 -1.94696e-09)
(9.5317 0.0270415 3.9209e-06)
(9.36112 0.212597 1.72844e-06)
(9.25475 0.304474 -9.61527e-06)
(9.38013 0.111553 2.21348e-07)
(9.3693 0.0963613 1.55422e-06)
(9.30916 0.133206 -1.57752e-06)
(9.20709 0.0805654 -1.21879e-06)
(9.20857 0.0839276 -2.46478e-06)
(9.17332 0.098536 1.44542e-06)
(8.9953 0.204477 5.25561e-07)
(8.7968 0.419434 1.75304e-06)
(8.97301 0.00502835 -1.47372e-06)
(8.64862 0.432327 -1.41435e-07)
(8.93083 0.0957408 -5.43746e-07)
(8.80383 0.177322 -5.74685e-07)
(8.79518 0.108706 3.47621e-06)
(8.57936 0.20679 3.44223e-06)
(8.6097 0.187779 3.18948e-06)
(8.61755 0.0737595 1.54263e-07)
(8.49086 0.155999 -3.99909e-07)
(8.42126 0.23555 2.30014e-06)
(8.45283 0.184074 -2.75072e-07)
(8.43469 0.209315 2.19021e-06)
(8.43811 0.113009 -9.65466e-08)
(8.26566 0.248722 4.50039e-07)
(8.30519 0.06994 3.15578e-06)
(8.26817 0.162203 -7.16707e-07)
(8.21116 0.182558 -3.27332e-07)
(8.18133 0.211188 -7.90171e-07)
(8.12464 0.204107 8.43251e-07)
(8.08436 0.122658 -1.95046e-06)
(8.06612 0.180063 5.45892e-08)
(8.04676 0.249729 4.68145e-07)
(8.04111 0.127744 -1.68533e-08)
(8.02331 0.162183 9.55074e-06)
(7.84727 0.117997 -2.38206e-07)
(7.83372 0.0995647 7.89484e-07)
(12.3604 -1.30974e-33 1.143e-35)
(13.7121 -1.19518e-33 1.04302e-35)
(13.342 -1.22655e-33 1.07039e-35)
(13.1455 -1.2432e-33 1.08493e-35)
(12.4608 -1.30123e-33 1.13557e-35)
(12.1608 -1.32666e-33 1.15776e-35)
(13.4968 -1.21343e-33 1.05895e-35)
(11.7452 -1.36188e-33 1.1885e-35)
(12.6366 -1.28634e-33 1.12257e-35)
(12.2539 -1.31877e-33 1.15088e-35)
(11.5734 -1.37645e-33 1.20121e-35)
(13.8055 -1.18727e-33 1.03611e-35)
(11.0627 -1.41973e-33 1.23898e-35)
(11.4431 -1.38749e-33 1.21084e-35)
(13.2205 -1.23685e-33 1.07938e-35)
(12.0902 -1.33264e-33 1.16298e-35)
(11.5106 -1.38177e-33 1.20585e-35)
(12.1139 -1.33063e-33 1.16122e-35)
(13.4395 -1.21828e-33 1.06318e-35)
(12.3652 -1.30934e-33 1.14264e-35)
(12.7586 -1.27599e-33 1.11354e-35)
(13.423 -1.21969e-33 1.0644e-35)
(11.3748 -1.39328e-33 1.2159e-35)
(13.3655 -1.22456e-33 1.06866e-35)
(13.6425 -1.20108e-33 1.04817e-35)
(11.908 -1.34809e-33 1.17646e-35)
(13.5432 -1.2095e-33 1.05552e-35)
(12.8603 -1.26737e-33 1.10602e-35)
(12.3097 -1.31404e-33 1.14675e-35)
(13.4165 -1.22023e-33 1.06488e-35)
(12.7229 -1.27902e-33 1.11618e-35)
(11.9164 -1.34737e-33 1.17583e-35)
(12.9431 -1.26035e-33 1.09989e-35)
(13.1045 -1.24668e-33 1.08796e-35)
(11.102 -1.4164e-33 1.23607e-35)
(11.0001 -1.42503e-33 1.2436e-35)
(11.3483 -1.39552e-33 1.21785e-35)
(13.1339 -1.24419e-33 1.08579e-35)
(13.3571 -1.22527e-33 1.06928e-35)
(13.6346 -1.20175e-33 1.04875e-35)
(13.6176 -1.20319e-33 1.05001e-35)
(13.7961 -1.18806e-33 1.03681e-35)
(12.4055 -1.30592e-33 1.13966e-35)
(12.1215 -1.32999e-33 1.16067e-35)
(11.4323 -1.3884e-33 1.21164e-35)
(12.5241 -1.29587e-33 1.13089e-35)
(13.7139 -1.19503e-33 1.04289e-35)
(10.9376 -1.43033e-33 1.24823e-35)
(12.907 -1.26342e-33 1.10257e-35)
(12.8708 -1.26648e-33 1.10524e-35)
(12.3861 -1.30756e-33 1.14109e-35)
(13.0173 -1.25407e-33 1.09441e-35)
(12.5193 -1.29628e-33 1.13124e-35)
(12.8585 -1.26753e-33 1.10615e-35)
(11.7133 -1.36459e-33 1.19086e-35)
(11.6713 -1.36815e-33 1.19396e-35)
(13.1032 -1.24679e-33 1.08805e-35)
(13.1712 -1.24102e-33 1.08302e-35)
(12.6647 -1.28395e-33 1.12049e-35)
(11.8157 -1.35591e-33 1.18328e-35)
(13.8737 -1.18149e-33 1.03107e-35)
(13.204 -1.23825e-33 1.0806e-35)
(12.6016 -1.2893e-33 1.12515e-35)
(12.9472 -1.26001e-33 1.0996e-35)
(13.466 -1.21604e-33 1.06122e-35)
(12.0145 -1.33906e-33 1.16858e-35)
(13.8457 -1.18386e-33 1.03314e-35)
(12.0643 -1.33483e-33 1.16489e-35)
(11.821 -1.35546e-33 1.18289e-35)
(12.1537 -1.32726e-33 1.15828e-35)
(11.3107 -1.39871e-33 1.22063e-35)
(12.8959 -1.26436e-33 1.10339e-35)
(12.5988 3.22234e-08 -2.8121e-10)
(11.4276 -1.3888e-33 1.21199e-35)
(13.8703 -1.18178e-33 1.03132e-35)
(12.5109 -1.29699e-33 1.13187e-35)
(11.1667 -1.41091e-33 1.23128e-35)
(13.6185 -1.20312e-33 1.04995e-35)
(12.6868 -1.28208e-33 1.11885e-35)
(12.5526 -1.29345e-33 1.12878e-35)
(13.4634 -1.21626e-33 1.06141e-35)
(11.4196 -1.38947e-33 1.21258e-35)
(13.3155 -1.2288e-33 1.07235e-35)
(13.9572 -1.17441e-33 1.02489e-35)
(12.0776 -1.33371e-33 1.16391e-35)
(12.4607 -1.30124e-33 1.13558e-35)
(13.3789 -1.22343e-33 1.06767e-35)
(13.3984 -1.22177e-33 1.06623e-35)
(13.0312 -1.25289e-33 1.09338e-35)
(11.5127 -1.38159e-33 1.2057e-35)
(13.6662 -1.19908e-33 1.04642e-35)
(13.4523 -1.21721e-33 1.06224e-35)
(10.9502 -1.42927e-33 1.2473e-35)
(13.2786 -1.23193e-33 1.07509e-35)
(11.7219 -1.36386e-33 1.19022e-35)
(11.8443 -1.35349e-33 1.18117e-35)
(12.8693 -1.26661e-33 1.10536e-35)
(12.5167 -1.2965e-33 1.13143e-35)
(13.1038 -1.24674e-33 1.08801e-35)
(11.2732 -1.40189e-33 1.22341e-35)
(13.0387 -1.25226e-33 1.09283e-35)
(13.5034 -1.21288e-33 1.05846e-35)
(13.7887 0.833605 -3.5296e-06)
(13.4426 0.663074 -2.22959e-06)
(11.893 -1.34936e-33 1.17757e-35)
(14.0002 0.163227 -2.108e-06)
(14.0038 0.163909 -1.79541e-07)
(14.0413 0.0468519 2.84832e-07)
(14.0162 0.0462922 -1.38189e-06)
(13.941 0.0917971 -2.34179e-06)
(13.8807 0.0748676 -6.80395e-07)
(13.7128 0.11479 -7.1507e-07)
(13.1506 0.345718 5.5721e-06)
(13.7003 0.0736074 -1.29895e-06)
(13.5487 0.145615 1.16841e-06)
(13.4931 0.165146 2.45738e-07)
(13.3782 0.19828 -2.25479e-06)
(13.5063 0.118124 -7.47555e-07)
(13.5837 0.0514798 -1.68274e-06)
(13.251 0.185592 3.99478e-06)
(13.2915 0.213447 7.20194e-07)
(12.9095 0.379012 1.88143e-08)
(12.9502 0.353977 -4.5501e-06)
(13.1051 0.242634 1.05463e-05)
(11.0198 -1.42336e-33 1.24215e-35)
(13.2319 0.150282 6.02816e-07)
(13.0318 0.166798 -1.06181e-08)
(12.8955 0.311117 -8.66524e-06)
(13.1535 0.0483667 5.87046e-07)
(12.6106 0.394028 6.03501e-07)
(11.615 1.52289e-16 -1.32901e-18)
(12.986 0.118255 -1.85457e-07)
(12.6951 0.277341 4.66861e-07)
(12.8582 0.185814 9.39155e-07)
(12.9611 0.0939028 -9.07798e-07)
(12.6215 0.280287 -1.86176e-06)
(12.7545 0.202294 3.05328e-06)
(12.7162 0.08568 -3.22713e-06)
(12.7266 0.104221 -1.28569e-06)
(12.7269 0.012245 -8.91053e-08)
(12.5801 0.132869 1.86883e-07)
(12.5625 0.0489124 -3.10762e-06)
(12.3316 0.288856 -1.54953e-06)
(12.5413 0.0836497 -1.39413e-08)
(12.5403 0.0416 3.33947e-06)
(12.1482 0.39268 -4.77689e-06)
(12.4534 0.0304555 1.67284e-06)
(12.0305 0.462246 8.80928e-07)
(12.3229 0.15704 2.35121e-06)
(12.3347 0.00208823 -2.36386e-06)
(12.2902 0.100374 4.22582e-06)
(12.2483 0.00963849 -4.59736e-06)
(12.0853 0.191326 2.20381e-06)
(12.1798 0.0482266 7.80006e-06)
(11.8318 0.381591 -7.78774e-07)
(11.7463 0.480513 8.99878e-06)
(12.0544 0.0854936 2.59283e-06)
(11.9213 0.186627 -8.23503e-07)
(11.7533 0.386566 6.81067e-07)
(11.9487 0.0838651 2.2714e-07)
(11.8864 0.166544 -5.45344e-08)
(11.8818 0.155816 -2.62871e-08)
(11.8648 0.0998968 -2.50073e-06)
(11.5507 0.345005 2.49771e-06)
(11.5409 0.286597 -3.16726e-06)
(11.6388 0.132912 -1.82055e-06)
(11.5846 0.0430193 5.61727e-07)
(11.5289 0.189777 -3.73876e-07)
(11.4285 0.12327 2.8749e-06)
(11.3939 0.140915 8.10192e-07)
(11.3456 0.10567 -2.60867e-07)
(11.2691 0.0855435 6.01659e-08)
(11.1914 0.103971 1.20898e-06)
(11.1043 0.193224 -2.10239e-06)
(11.0329 0.0287962 -6.76899e-06)
(11.0044 0.244758 4.6411e-07)
(10.942 0.202981 2.25759e-06)
(15.1636 -1.07216e-33 9.35661e-36)
(17.016 -9.15169e-34 7.98656e-36)
(14.4454 -1.13304e-33 9.88787e-36)
(18.784 -7.65326e-34 6.6789e-36)
(17.8239 -8.46701e-34 7.38905e-36)
(18.2239 -8.12799e-34 7.09319e-36)
(17.1499 -9.03825e-34 7.88756e-36)
(18.6319 -7.78217e-34 6.7914e-36)
(18.6665 -7.75291e-34 6.76586e-36)
(14.6943 -1.11194e-33 9.70376e-36)
(15.5016 -1.04352e-33 9.10665e-36)
(18.9133 -7.5437e-34 6.58329e-36)
(15.8961 -1.01009e-33 8.81488e-36)
(19.0898 -7.3941e-34 6.45273e-36)
(17.7532 -8.5269e-34 7.44132e-36)
(17.6222 -8.6379e-34 7.53818e-36)
(15.663 -1.02984e-33 8.98728e-36)
(18.9335 -7.52657e-34 6.56834e-36)
(15.9889 -1.00222e-33 8.74626e-36)
(16.9147 -9.23756e-34 8.0615e-36)
(18.0542 -8.27182e-34 7.2187e-36)
(17.81 -8.47879e-34 7.39933e-36)
(19.1019 -7.38384e-34 6.44378e-36)
(18.0931 -8.2388e-34 7.18989e-36)
(17.8374 -8.45559e-34 7.37908e-36)
(17.4607 -8.77483e-34 7.65768e-36)
(16.4911 -9.59654e-34 8.37477e-36)
(16.0688 -9.95445e-34 8.68712e-36)
(15.4377 -1.04894e-33 9.15392e-36)
(17.3725 -8.84955e-34 7.72289e-36)
(17.0324 -9.13779e-34 7.97443e-36)
(18.1412 -8.19806e-34 7.15434e-36)
(18.4242 -7.95821e-34 6.94503e-36)
(14.9384 -1.09125e-33 9.52319e-36)
(19.0005 -7.46978e-34 6.51877e-36)
(15.0668 -1.08037e-33 9.42827e-36)
(18.2544 -8.10214e-34 7.07063e-36)
(16.0973 -9.93035e-34 8.66609e-36)
(18.6241 -7.7888e-34 6.79719e-36)
(17.246 -8.95675e-34 7.81644e-36)
(17.6822 -8.58705e-34 7.49381e-36)
(17.9903 -8.32593e-34 7.26593e-36)
(15.8265 -1.01598e-33 8.86636e-36)
(16.846 -9.29575e-34 8.11228e-36)
(16.9523 -9.20572e-34 8.03371e-36)
(17.2871 -8.92193e-34 7.78605e-36)
(18.4294 -7.95386e-34 6.94123e-36)
(14.76 -1.10637e-33 9.65513e-36)
(17.0369 -9.13403e-34 7.97115e-36)
(19.0115 -7.46046e-34 6.51064e-36)
(16.5756 -9.52494e-34 8.31229e-36)
(18.5753 -7.83016e-34 6.83328e-36)
(18.7192 -7.70822e-34 6.72687e-36)
(14.8424 -1.09939e-33 9.59421e-36)
(16.3754 -9.69462e-34 8.46037e-36)
(16.9838 -9.179e-34 8.01039e-36)
(14.981 -1.08764e-33 9.49169e-36)
(14.7687 -1.10564e-33 9.64875e-36)
(17.7537 -8.52653e-34 7.44099e-36)
(17.7331 -8.54395e-34 7.45619e-36)
(14.8289 -1.10053e-33 9.60422e-36)
(15.6057 -1.03469e-33 9.02963e-36)
(18.9809 -7.4864e-34 6.53328e-36)
(18.9869 -7.48129e-34 6.52882e-36)
(15.187 -1.07018e-33 9.33936e-36)
(15.8348 -1.01528e-33 8.86019e-36)
(16.0998 -9.9282e-34 8.66421e-36)
(17.0049 -9.1611e-34 7.99477e-36)
(18.8899 -7.56356e-34 6.60062e-36)
(14.2362 -1.15077e-33 1.00426e-35)
(16.16 -9.87722e-34 8.61972e-36)
(15.1674 -1.07184e-33 9.35382e-36)
(15.0506 -1.08175e-33 9.44026e-36)
(17.5563 -8.69377e-34 7.58694e-36)
(17.5876 -8.66729e-34 7.56383e-36)
(17.1428 -9.0442e-34 7.89275e-36)
(14.5575 -1.12353e-33 9.80492e-36)
(16.1102 -9.91936e-34 8.6565e-36)
(17.8963 -8.40565e-34 7.3355e-36)
(15.8321 -1.01551e-33 8.86222e-36)
(16.61 -9.49579e-34 8.28685e-36)
(16.7851 -9.34741e-34 8.15736e-36)
(15.2977 -1.0608e-33 9.25743e-36)
(16.6014 -9.50308e-34 8.29321e-36)
(16.9914 -9.17259e-34 8.00479e-36)
(18.186 -8.16013e-34 7.12124e-36)
(17.8793 -8.42001e-34 7.34803e-36)
(16.1577 -9.87916e-34 8.62141e-36)
(17.8302 -8.46162e-34 7.38434e-36)
(16.5168 -9.57482e-34 8.35582e-36)
(16.8707 -9.27485e-34 8.09404e-36)
(15.5301 -1.04111e-33 9.08559e-36)
(14.6713 -1.11389e-33 9.7208e-36)
(18.4805 -7.91051e-34 6.9034e-36)
(17.1136 -9.06898e-34 7.91438e-36)
(17.8759 -8.42294e-34 7.35059e-36)
(14.2595 -1.14879e-33 1.00254e-35)
(17.7409 -8.53733e-34 7.45042e-36)
(17.1768 -9.01542e-34 7.86764e-36)
(18.6641 -7.75489e-34 6.76759e-36)
(14.3101 -1.1445e-33 9.98789e-36)
(14.9351 -1.09153e-33 9.52564e-36)
(18.5099 -7.88563e-34 6.88168e-36)
(16.5476 -9.54872e-34 8.33304e-36)
(15.6556 -1.03047e-33 8.99277e-36)
(15.0916 -1.07826e-33 9.40987e-36)
(18.8632 4.20876e-29 3.67306e-31)
(15.6739 -1.02892e-33 8.97921e-36)
(15.6578 -1.03028e-33 8.99115e-36)
(16.9952 -9.16931e-34 8.00193e-36)
(14.5635 -1.12303e-33 9.80053e-36)
(18.3034 -8.06059e-34 7.03437e-36)
(17.7835 -8.50122e-34 7.41891e-36)
(14.732 -1.10874e-33 9.67587e-36)
(15.8186 -1.01665e-33 8.87217e-36)
(15.0061 -1.08551e-33 9.4731e-36)
(18.9841 -7.48369e-34 6.53092e-36)
(17.1115 -9.07074e-34 7.91592e-36)
(16.9676 -9.19271e-34 8.02235e-36)
(14.4075 -1.13625e-33 9.91588e-36)
(15.7816 -1.01979e-33 8.89959e-36)
(15.3252 -1.05847e-33 9.23714e-36)
(17.6627 -8.60365e-34 7.50829e-36)
(15.9297 -1.00724e-33 8.79003e-36)
(16.3632 -9.70493e-34 8.46936e-36)
(17.1904 -9.00392e-34 7.8576e-36)
(16.1273 -9.90486e-34 8.64384e-36)
(14.9708 -1.08851e-33 9.49928e-36)
(17.126 -9.05851e-34 7.90524e-36)
(17.3413 -8.87605e-34 7.74601e-36)
(16.8194 -9.31835e-34 8.132e-36)
(14.4411 -1.1334e-33 9.89105e-36)
(16.9183 -9.23447e-34 8.0588e-36)
(16.1867 -9.85457e-34 8.59996e-36)
(15.2722 -1.06297e-33 9.27636e-36)
(14.8232 -1.10101e-33 9.6084e-36)
(17.8408 -8.45264e-34 7.37651e-36)
(17.4428 -8.78997e-34 7.67089e-36)
(19.0894 -7.39444e-34 6.45303e-36)
(16.935 -9.22034e-34 8.04647e-36)
(16.1983 -9.84475e-34 8.59138e-36)
(14.1835 -1.15524e-33 1.00816e-35)
(17.2709 -8.93568e-34 7.79805e-36)
(17.6063 -8.65143e-34 7.54998e-36)
(17.8256 -8.46553e-34 7.38776e-36)
(15.8798 -1.01147e-33 8.82694e-36)
(16.9524 -9.20561e-34 8.03362e-36)
(14.6649 -1.11443e-33 9.7255e-36)
(18.2854 -8.0759e-34 7.04773e-36)
(18.6054 -7.80466e-34 6.81102e-36)
(17.8625 -8.43431e-34 7.36051e-36)
(17.0751 -9.10159e-34 7.94284e-36)
(17.9165 -8.38853e-34 7.32056e-36)
(17.9354 -8.37251e-34 7.30658e-36)
(19.0169 -7.45594e-34 6.5067e-36)
(17.1428 -9.0442e-34 7.89275e-36)
(16.174 -9.86534e-34 8.60935e-36)
(17.0407 -9.13079e-34 7.96832e-36)
(18.6624 -7.75634e-34 6.76885e-36)
(18.2876 -8.07398e-34 7.04605e-36)
(15.7365 -1.02361e-33 8.93293e-36)
(14.5844 -1.12125e-33 9.78502e-36)
(17.3877 -8.83666e-34 7.71164e-36)
(14.519 -1.1268e-33 9.83339e-36)
(15.0714 -1.07998e-33 9.42483e-36)
(15.8955 -1.01014e-33 8.81534e-36)
(17.0789 -9.09843e-34 7.94008e-36)
(17.8519 -8.44329e-34 7.36835e-36)
(17.844 -8.44996e-34 7.37417e-36)
(14.2807 -1.147e-33 1.00097e-35)
(14.4824 -1.1299e-33 9.86045e-36)
(18.6811 -7.74049e-34 6.75502e-36)
(16.8049 -9.33061e-34 8.1427e-36)
(18.3551 -8.01681e-34 6.99616e-36)
(14.5949 -1.12036e-33 9.77728e-36)
(17.8021 -8.48549e-34 7.40518e-36)
(17.2206 -8.97828e-34 7.83523e-36)
(15.8021 -1.01805e-33 8.88439e-36)
(14.1892 -1.15475e-33 1.00774e-35)
(18.3393 -8.03019e-34 7.00784e-36)
(15.0299 -1.0835e-33 9.45554e-36)
(14.7573 -1.1066e-33 9.65716e-36)
(18.7193 -7.70809e-34 6.72675e-36)
(17.6408 -8.62217e-34 7.52445e-36)
(16.153 -9.88316e-34 8.6249e-36)
(17.8962 -8.40575e-34 7.33558e-36)
(18.217 -8.13381e-34 7.09827e-36)
(18.0866 -8.24435e-34 7.19473e-36)
(18.1331 -8.20496e-34 7.16036e-36)
(14.1544 -1.1577e-33 1.01031e-35)
(15.9286 -1.00733e-33 8.79085e-36)
(15.5887 -1.03614e-33 9.04225e-36)
(16.8744 -9.2717e-34 8.09129e-36)
(15.2392 -1.06576e-33 9.30071e-36)
(14.4025 -1.13667e-33 9.91957e-36)
(18.4499 -7.93644e-34 6.92602e-36)
(17.6771 -8.59142e-34 7.49762e-36)
(18.4248 -7.95771e-34 6.94459e-36)
(14.1884 -1.15482e-33 1.0078e-35)
(18.2781 -8.08209e-34 7.05313e-36)
(15.3905 -1.05294e-33 9.18887e-36)
(17.4164 -8.81239e-34 7.69046e-36)
(18.7029 -7.72203e-34 6.73891e-36)
(15.8808 -1.01138e-33 8.82618e-36)
(15.9785 -1.0031e-33 8.75393e-36)
(16.114 -9.91614e-34 8.65369e-36)
(16.874 -9.27204e-34 8.09159e-36)