/*--------------------------------*- C++ -*----------------------------------*\
  =========                 |
  \\      /  F ield         | OpenFOAM: The Open Source CFD Toolbox
   \\    /   O peration     | Website:  https://openfoam.org
    \\  /    A nd           | Version:  7
     \\/     M anipulation  |
\*---------------------------------------------------------------------------*/
FoamFile
{
    version     2.0;
    format      ascii;
    class       labelField;
    location    "0.7/lagrangian/reactingCloud1";
    object      origId;
}
// * * * * * * * * * * * * * * * * * * * * * * * * * * * * * * * * * * * * * //


2563
(
3960
3961
3962
3963
3964
3965
3966
3967
3968
3969
3970
3971
3972
3973
3974
3975
3976
3977
3978
3979
3980
3981
3982
3983
3984
3985
3986
3987
3988
3989
3990
3991
3992
3993
3994
3995
3996
3997
3998
3999
4000
4001
3291
3890
3895
3898
3899
3900
3902
3903
3904
3905
3906
3907
3908
3909
3910
3911
3912
3913
3914
3916
3917
3918
3919
3921
3920
3922
3923
3924
3925
3926
3927
3928
3929
3915
3932
3930
3931
3934
3933
3935
3936
3937
3938
3939
3941
3942
3943
3944
3945
3946
3947
3948
3949
3940
3951
3950
3952
3953
3954
3955
3956
3957
3958
3959
3874
3878
3876
3879
3881
3875
3880
3882
3885
3883
3887
3888
3886
3877
3870
3873
3889
3893
3896
3884
3892
3897
3891
3894
3901
3843
3865
3863
3867
3868
3869
3871
3872
3842
3847
3846
3853
3852
3851
3849
3854
3850
3857
3859
3858
3855
3861
3862
3860
3856
3864
3866
3829
3830
3826
3833
3832
3823
3839
3838
3837
3834
3836
3835
3841
3844
3840
3845
3831
3848
3762
145
1547
3782
3771
3799
3781
3800
3805
3802
3806
3797
3793
3804
3803
3801
3808
3809
3807
3815
3810
3813
3814
3798
3817
3811
3819
3812
3816
3818
3822
3825
3824
3821
3827
3828
3820
17
212
732
1016
1114
762
1228
1849
1962
2338
2446
3357
3080
3732
3746
3754
3760
3761
3763
3764
3765
3759
3766
3488
3767
3768
3769
3770
3772
3774
3776
3773
3739
3775
3778
3780
3779
3786
3788
3783
3789
3784
3791
3758
3790
3794
3792
3777
3785
3796
3787
3795
41
92
177
242
337
381
407
550
721
905
1010
1214
1266
1360
1401
1534
1673
1961
2074
2211
2260
2302
2177
2598
2785
2835
2871
2885
3096
3524
3576
3582
3627
3635
3677
3684
3682
3698
3699
3694
3707
3709
3693
3708
3711
3714
3704
3706
3705
3715
3717
3702
3718
3700
3710
3712
3716
3722
3719
3723
3721
3725
3726
3727
3724
3730
3713
3728
3720
3736
3734
3731
3733
3703
3738
3735
3740
3745
3742
3747
3748
3752
3750
3729
3737
3741
3743
3744
3753
3751
3756
3749
3755
3757
4
45
89
131
158
191
207
315
369
421
531
564
646
722
866
939
969
1102
1164
1188
913
1192
1274
1351
1456
1482
1529
1528
1635
1683
1087
1912
1958
2027
2034
2204
2244
2230
2267
2283
2294
2670
2731
2784
2787
2793
2884
2973
3032
3085
3073
3154
3171
3219
3226
3249
3253
3285
3273
3374
3373
3380
3450
3492
3584
3552
3598
3603
3607
3619
3526
3623
3634
3637
3636
3638
3630
3640
3617
3626
3633
3631
3639
3647
3645
3632
3643
3648
3611
3651
3646
3658
3649
3657
3654
3661
3644
3650
3660
3641
3652
3663
3628
3666
3656
3642
3668
3669
3665
3659
3662
3671
3667
3655
3664
3653
3678
3676
3672
3673
3680
3685
3686
3600
3683
3679
3688
3681
3691
3690
3689
3674
3670
3695
3687
3675
3697
3696
3692
3701
10
9
27
37
13
35
96
186
233
272
285
383
363
317
428
430
453
526
617
661
623
703
839
838
851
891
910
1055
1051
1066
1117
1141
1126
1110
1200
1243
1238
1283
1359
1372
1380
1416
1384
1478
1511
1554
1567
1607
1630
1680
1679
1720
1770
1800
1812
1824
1859
1867
1943
1980
1987
2023
2042
2066
2089
2226
2225
2329
2370
2398
2392
2444
2461
2443
2475
2561
2573
2597
2613
2616
2630
2637
2618
2663
2698
2721
2789
2875
2935
2991
2979
2983
3031
3104
3193
3248
3281
3316
3347
3345
3418
3503
3475
3446
3553
3546
3559
3567
3562
3565
3569
3566
3513
3573
3561
3558
3574
3571
3577
3554
3568
3533
3538
3557
3547
3575
3581
3570
3586
3544
3516
3587
3535
3583
3588
3487
3585
3579
3593
3596
3594
3564
3563
3599
3545
3572
3602
3523
3597
3595
3604
3605
3606
3592
3550
3578
3608
3589
3543
3601
3591
3610
3614
3580
3590
3618
3612
3616
3615
3621
3625
3624
3629
3622
3613
3620
3609
5
15
24
19
40
60
82
78
90
83
167
153
189
188
232
228
213
247
273
261
297
286
306
328
343
351
361
399
409
432
451
450
445
498
507
506
555
580
586
609
613
632
622
621
671
705
708
725
739
738
768
770
800
807
821
852
859
893
895
922
944
936
926
951
995
1024
1052
1103
1108
1138
1148
1144
1119
1149
1147
1155
1179
1208
1207
1221
1245
1253
1244
1246
1288
1285
1299
1313
1316
1318
1329
1371
1393
1430
1441
1433
1449
1475
1474
1512
1557
1613
1614
1621
1674
1681
1688
1698
1734
1758
1761
1767
1772
1769
1832
1820
1857
1883
1897
1922
1938
1953
1935
1952
1979
1996
1993
1988
1991
2048
2051
2067
2077
2098
2105
2114
2117
2136
2210
2163
2228
2261
2310
2315
2321
2336
2351
2390
2386
2410
2425
2379
2436
2469
2483
2482
2518
2510
2529
2533
2540
2557
2564
2570
2584
2591
2590
2593
2596
2614
2623
2661
2664
2669
2654
2684
2694
2697
2710
2732
2736
2740
2824
2852
2858
2868
2879
2917
2932
2943
2944
2951
2965
2948
3066
3075
2712
3119
3120
3125
3130
3144
3153
3181
3186
3282
3283
3310
3330
3329
3337
3328
3346
3364
3377
3402
1890
3406
3338
3363
3375
3366
3336
3355
3351
3340
3379
3325
3428
3430
3422
3404
3400
3438
3439
3451
3370
3448
3411
3440
3390
3368
3444
3437
3457
3449
3454
3442
3460
3459
3456
3393
3465
3433
3464
3458
3468
3425
3455
3409
3471
3435
3476
3467
3477
3474
3452
3348
3445
3423
3432
3479
3473
3466
3485
3469
3463
3483
3491
3421
3490
3498
3496
3489
3486
3470
3472
3431
3504
3478
3508
3501
3434
3482
3505
3484
3462
3443
3424
3514
3506
3481
3515
3497
3480
3500
3520
3502
3447
3512
3511
3529
3510
3532
3495
3531
3494
3522
3517
3537
3461
3539
3518
3542
3499
3436
3549
3507
3536
3528
3555
3540
3525
3519
3527
3548
3534
3509
3556
3441
3410
3530
3560
3453
3551
3521
3541
3493
3
25
23
42
44
53
79
71
84
29
65
87
114
98
75
117
102
110
81
112
135
122
156
182
171
206
224
220
259
260
229
319
335
312
358
375
374
414
420
398
408
424
467
470
459
486
476
441
499
493
439
503
517
518
528
509
565
567
533
610
624
675
653
701
710
694
720
746
765
779
736
794
803
812
833
841
861
889
888
904
868
964
959
971
976
941
962
1001
1007
987
1037
1077
1084
1152
1183
1142
1194
1223
1227
1241
1265
1280
1273
1319
1333
1289
1334
1314
1350
1366
1345
1413
1397
1431
1461
1446
1476
1452
1491
1494
1506
1516
1548
1580
1587
1568
1572
1598
1612
1593
1641
1647
1636
1643
1666
1668
1713
1727
1712
1765
1781
1793
1799
1805
1813
1835
1845
1861
1880
1878
1907
1981
1984
1968
2015
1978
2060
2029
2095
2073
2115
2121
2116
2101
2169
2135
2173
2207
2245
2222
2235
2255
2273
2297
2325
2341
2358
2347
2356
2424
2418
2432
2528
2516
2520
2527
2559
2569
2577
2582
2568
2633
2658
2642
2671
2690
2666
2716
2651
2738
2751
2755
2656
2748
2807
2832
2827
2845
2811
2859
2816
2850
2863
2910
2909
2904
2937
2938
2934
2929
2961
3009
3022
3049
3040
3015
3023
3074
3098
3092
3116
3106
3056
3111
3162
3139
3168
3161
3166
3165
3174
3209
3201
3217
3230
3244
3243
3218
3257
3269
3274
3272
3212
3089
3145
3213
3286
3256
3258
3270
3246
3255
3266
3263
3294
3300
3264
3296
3279
3222
3241
3278
3284
3277
3304
3276
3318
3289
3315
3311
3327
3309
3262
3321
3320
3275
3314
3317
3324
3261
3308
3247
3293
3302
3322
3341
3332
3298
3343
3305
3297
3288
3339
3292
3271
3350
3335
3303
3356
3334
3312
3306
3210
3192
3290
3349
3354
3372
3381
3331
3362
3365
3323
3369
3319
3178
3376
3386
3384
3382
3352
3326
1992
3313
3388
3287
3358
3360
3307
3387
3398
3344
3359
3389
3378
3396
3405
3392
3371
3342
3395
3413
3394
3415
3397
3301
3408
3417
3401
3399
3412
3403
3419
3367
3429
3427
3407
3385
3383
3420
3426
3361
3391
3416
3414
3353
3333
20
32
38
43
69
67
68
151
202
190
209
223
170
214
302
282
340
390
334
357
431
444
437
529
530
552
539
612
585
629
644
616
638
378
682
724
713
727
734
728
733
719
796
709
751
818
825
835
881
947
938
915
967
989
1012
1009
1004
1046
1062
1075
1097
1106
1143
1064
1125
1230
1290
1272
1269
1276
1322
1331
1292
1348
1382
1375
1250
1390
1407
1410
1440
1479
1463
1505
1525
1561
1596
1591
1648
1670
1669
1622
1617
1660
1575
1740
1759
1746
1735
1747
1808
1818
1850
1838
1865
1757
1853
1902
1963
1989
2044
2009
2043
2090
2080
2014
2084
2062
2139
2134
2155
2137
2107
2236
2258
2253
2299
2287
2282
2213
2314
2353
2438
2422
2463
2457
2506
2511
2514
2524
2537
2552
2541
2556
2555
2544
2587
2611
2715
2703
2756
2776
2782
2797
2489
2839
2765
2849
2860
2882
2877
2899
2903
2925
2844
2902
2912
2940
2865
2911
2936
3002
2952
3048
3045
2995
3069
3017
3086
2999
2990
3042
2989
3003
2799
2896
3059
3038
3083
3011
3036
2977
3105
3107
3088
3141
3148
3122
3123
3151
3158
3149
3169
3138
3140
3159
3126
3136
3081
3113
3177
3132
2905
3147
3163
3118
3184
3135
2982
3156
3150
3195
3176
3157
3155
3187
3179
3060
3180
3172
3197
3110
3175
3190
3200
3067
3112
3203
3205
3152
3194
3202
3199
3220
3224
3206
3137
3173
3000
3231
3216
3228
3233
3229
3225
3236
3223
3238
3091
3208
3160
3196
3188
3214
3204
3191
3185
3215
3134
3170
3242
3250
3183
3051
3189
3239
3237
3211
3254
3182
3198
3240
3260
3063
3252
2393
3041
3227
3232
3164
3235
3251
3259
3082
3265
3245
3268
3280
3167
3267
3221
3234
3207
3295
3299
28
46
58
62
91
85
100
74
146
160
179
187
180
55
152
226
258
183
274
299
308
230
249
314
307
329
360
370
413
447
488
497
492
587
546
606
707
658
574
754
761
814
826
848
837
816
862
901
932
977
1036
1054
1038
1058
1056
1061
1128
1202
1206
1218
1229
1008
1270
1327
1338
1320
1357
1354
1376
1423
1417
1448
1484
1483
1495
1522
1524
1469
1501
1551
1558
1609
1608
1661
1686
1716
1702
1717
1738
1690
1771
1807
1753
1851
1791
1871
1836
1855
1882
1884
1831
1946
1915
1947
1972
1900
1923
1177
2006
2041
1926
2118
2166
2196
2231
2183
2286
2216
2174
2326
2300
2189
2374
2375
2362
2391
2420
2405
2458
2306
2505
2532
2542
2551
2562
2673
2603
2729
2707
2619
2826
2512
2767
2854
2851
2746
2866
2809
2840
2888
2836
2855
2761
2830
2898
2914
2883
2808
2908
2915
2927
2922
2815
2920
2621
2928
2763
2817
2949
2752
2794
2933
2718
2946
2923
2804
2960
2873
2788
2955
2941
2968
2954
2810
2962
2969
2833
2918
2916
2967
2924
2976
2906
2957
2796
2930
2657
2972
2889
2978
2970
2831
2728
2947
2900
2881
2818
2953
2945
2981
2843
2942
2992
2959
2980
3004
2994
2907
2985
2894
2984
2986
3018
2919
3012
2997
2966
2913
3027
2987
2097
3028
3019
2870
3046
3034
2472
2993
3014
2931
3008
3006
2971
2998
3020
3033
2974
2921
3024
3055
3005
3054
2963
2867
3047
3021
3068
3026
3037
3052
3013
2988
3035
3016
3076
3079
3025
3065
2996
3001
2772
2958
3007
3078
3087
3050
3077
2956
3070
3030
3093
3100
3103
3090
2950
3097
2901
3108
3062
2939
3039
3064
3061
3114
3094
3043
3071
3084
3102
3115
3124
3121
3053
3072
3129
3095
3127
3099
2886
3117
3133
2825
3044
3101
3128
3029
2975
2964
2926
3109
3057
3146
3142
3010
3058
3131
3143
11
63
93
66
1
185
34
7
198
111
137
231
237
236
246
267
200
290
250
54
300
138
289
354
287
418
389
234
436
502
556
540
589
496
670
693
688
735
763
712
750
649
774
749
769
716
791
847
878
836
924
817
992
899
1011
1018
1045
1050
1029
1060
1098
1129
1086
1163
1166
123
1173
1215
1196
1255
1217
1254
696
1156
1260
1121
1251
1249
1298
1171
1294
1306
1321
1455
1346
923
1459
1542
855
1566
1537
1563
1582
1565
1589
1624
1650
1629
1653
1651
1541
1710
1729
1703
1634
1719
245
1795
1909
1959
1965
1990
1974
1970
2011
2058
2068
2049
2045
2081
2046
1999
2037
2221
2199
2175
2188
2215
2205
2274
1837
2214
2052
2234
2281
2246
2275
2219
2158
2266
2279
2349
2343
2103
2184
2154
2354
2366
2247
2340
2291
2008
2272
2382
2270
2208
2242
2257
2200
2250
2415
2328
2063
2378
2407
2311
2394
2387
2334
2312
2355
1645
2333
2357
2201
2359
2264
2330
2292
2408
2430
2435
2385
2298
2388
2332
2427
2445
2421
2396
2455
2376
2459
2417
2384
2131
2401
2428
2416
2449
2412
2456
2406
2397
2271
2293
2373
2466
2265
2350
2335
2474
2399
2402
2381
2453
2431
2319
2295
2075
2465
2217
2448
2413
2480
2348
2309
2361
2426
2450
2500
2473
2411
2276
2345
2452
2495
2476
2371
2249
2509
2403
2460
2429
2439
2001
2467
2478
2383
2434
2433
2423
2414
2441
2502
2488
2160
2395
2440
2365
2484
2487
2547
1595
2447
1226
2477
2538
2501
2168
2571
2289
2492
2554
2499
2519
2419
2530
2368
2404
2523
2578
2490
2507
2526
2576
2471
2470
2437
2504
2583
2494
2485
2521
2496
2491
2498
2389
2517
2566
2531
2563
2454
2525
2600
2560
2605
2604
2609
2606
2567
2369
2620
2468
2594
2549
2592
2548
2513
2575
2558
2550
2367
2572
2497
2641
2638
2508
2655
2580
2565
2586
2645
2647
2599
2579
2636
2543
2617
2626
2400
2667
2589
2451
2372
2649
2644
2643
2602
2660
2622
2662
2687
2627
2462
2553
2546
2534
2675
2601
2704
2701
2493
2632
2464
2625
2683
2515
2522
2711
2696
2164
2481
2535
2681
2380
2646
2640
2648
2629
2678
2693
2676
2691
2679
2692
2737
2682
2744
2734
2742
2652
2702
2595
2720
2722
2634
2539
2741
2745
2766
2653
2608
2672
2615
2650
2639
2743
2624
2674
2725
2750
2686
2769
2610
2709
2409
2739
2771
2778
2607
2689
2585
2717
2777
2688
2735
2588
2713
2486
2747
2768
2708
2806
2685
2680
2800
2813
2774
2760
2749
2764
2820
2757
2631
2803
2783
2770
2668
2779
2503
2758
2677
2714
2700
2814
2791
2574
2838
2705
2545
2853
2759
2805
2665
2819
2317
2872
2857
2874
2723
2581
2828
2790
2847
2864
2612
2724
2628
2479
2699
2878
2862
2822
2754
2262
2536
2802
2829
2795
2841
2861
2846
2801
2726
2730
2821
2762
2753
2834
2893
2823
2880
2895
2848
2635
2876
2892
2773
2695
2890
2719
2659
2792
2706
2891
2837
2869
2786
2812
2727
2798
2842
2781
2887
2733
2897
2780
2856
2775
)


// ************************************************************************* //
