/*--------------------------------*- C++ -*----------------------------------*\
  =========                 |
  \\      /  F ield         | OpenFOAM: The Open Source CFD Toolbox
   \\    /   O peration     | Website:  https://openfoam.org
    \\  /    A nd           | Version:  7
     \\/     M anipulation  |
\*---------------------------------------------------------------------------*/
FoamFile
{
    version     2.0;
    format      ascii;
    class       Cloud<passiveParticle>;
    location    "0.7/lagrangian/reactingCloud1";
    object      positions;
}
// * * * * * * * * * * * * * * * * * * * * * * * * * * * * * * * * * * * * * //

2563
(
(0.160654 0.000152964 0.419519 0.419674) 2891 5672 2
(0.269424 0.15995 0.204693 0.365933) 2802 5495 2
(0.275961 0.312791 0.046162 0.365086) 2736 5363 2
(0.164818 0.415717 0.254541 0.164924) 2608 5244 1
(0.177104 0.410306 0.345288 0.0673019) 2558 5011 1
(0.497181 0.250834 0.0674111 0.184574) 2480 4858 1
(0.122651 0.285185 0.441176 0.150988) 2390 4811 2
(0.275567 0.0897067 0.36294 0.271786) 2317 4666 2
(0.200752 0.295079 0.400363 0.103805) 2263 4427 2
(0.200501 0.118042 0.280451 0.401005) 2196 4291 2
(0.00565496 0.496822 0.30492 0.192604) 2070 4044 1
(0.0642027 0.467625 0.172942 0.295231) 2003 3909 1
(0.321336 0.338986 0.0814356 0.258243) 1932 3770 1
(0.298128 0.350568 0.0139893 0.337315) 1861 3629 1
(0.591443 0.203501 0.0606424 0.144414) 1797 3499 1
(0.324115 0.131855 0.338018 0.206011) 1752 3413 2
(0.45293 0.273495 0.255609 0.0179657) 1565 3041 1
(0.0171262 0.163854 0.327571 0.491449) 1604 3117 2
(0.263253 0.366683 0.187514 0.182549) 1442 2929 1
(0.24102 0.376765 0.0333583 0.348857) 1364 2774 1
(0.59893 0.0267751 0.200758 0.173537) 1299 2645 2
(0.372387 0.313807 0.245011 0.0687954) 1238 2390 1
(0.0575301 0.471235 0.344876 0.126359) 1189 2293 1
(0.680344 0.0601597 0.159828 0.0996682) 1111 2140 2
(0.174914 0.270724 0.141819 0.412543) 1027 1971 2
(0.290545 0.214836 0.139892 0.354728) 958 1834 2
(0.101533 0.298791 0.150443 0.449233) 904 1727 2
(0.209699 0.391184 0.396684 0.00243337) 834 1587 1
(0.192444 0.190992 0.212785 0.403778) 794 1509 2
(0.287818 0.0317413 0.324071 0.35637) 690 1301 2
(0.298566 0.0800807 0.27002 0.351333) 682 1285 2
(0.315146 0.339252 0.247629 0.0979725) 641 1204 1
(0.369475 0.301777 0.0107423 0.318006) 556 1035 2
(0.369333 0.313465 0.138256 0.178946) 507 938 1
(0.114089 0.0674718 0.374948 0.443491) 412 749 2
(0.275019 0.244901 0.108843 0.371237) 393 712 2
(0.268287 0.36478 0.0968998 0.270033) 295 517 1
(0.189426 0.0882704 0.405287 0.317016) 215 361 2
(0.443103 0.0297269 0.278448 0.248722) 136 204 2
(0.52774 0.0370755 0.199055 0.23613) 168 266 2
(0.0303349 0.227659 0.484833 0.257174) 93 119 2
(0.0917346 0.314404 0.139729 0.454133) 16 15 2
(0.486651 0.147123 0.108488 0.257739) 4017 7906 2
(0.275759 0.363656 0.208582 0.152002) 6471 12781 1
(0.129995 0.338248 0.0944802 0.437277) 5713 11273 2
(0.0642837 0.259216 0.20251 0.47399) 6056 11954 2
(0.317905 0.253922 0.339708 0.0884644) 6406 12652 2
(0.358447 0.0783946 0.242796 0.320363) 6411 12660 2
(0.111289 0.237144 0.208462 0.443105) 6425 12688 2
(0.676681 0.139491 0.161702 0.0221268) 5854 11556 2
(0.288552 0.290188 0.358948 0.0623117) 6142 12260 2
(0.260039 0.117685 0.371489 0.250787) 6148 12272 2
(0.353989 0.321969 0.205721 0.11832) 5718 11418 1
(0.170511 0.113521 0.300015 0.415952) 6004 11851 2
(0.46502 0.264955 0.0115077 0.258517) 5865 11710 1
(0.017769 0.287841 0.204768 0.489622) 6024 11892 2
(0.396373 0.284317 0.305875 0.0134351) 5880 11740 2
(0.110212 0.446575 0.379661 0.0635524) 5808 11463 1
(0.796936 0.0397015 0.061398 0.101964) 5448 10748 2
(0.184066 0.080048 0.326918 0.408968) 5739 11325 2
(0.771851 0.0877973 0.113807 0.026545) 5594 11040 2
(0.0191705 0.310158 0.181203 0.489469) 5613 11076 2
(0.748941 0.0997225 0.126436 0.0249005) 5384 10755 2
(0.291167 0.355404 0.326616 0.0268138) 5472 10796 1
(0.136718 0.28734 0.430786 0.145156) 5397 10649 2
(0.725287 0.0543567 0.0826588 0.137698) 5178 10211 2
(0.128971 0.431163 0.0696257 0.37024) 5500 10851 1
(0.215491 0.392873 0.178038 0.213598) 5187 10232 1
(0.153788 0.0515063 0.371157 0.423549) 5110 10076 2
(0.516975 0.197015 0.0424457 0.243565) 5119 10094 2
(0.00121732 0.497552 0.277699 0.223532) 4838 9671 1
(0.273572 0.364153 0.333153 0.0291219) 5069 9996 1
(0.265609 0.18014 0.187553 0.366698) 4990 9839 2
(0.300117 0.347822 0.123154 0.228906) 4842 9679 1
(0.440148 0.278419 0.157838 0.123596) 4855 9705 1
(0.0389692 0.342984 0.137327 0.48072) 4291 8451 2
(0.156976 0.197947 0.221503 0.423574) 4711 9284 2
(0.779964 0.0911721 0.0188251 0.110039) 4223 8316 2
(0.247745 0.374837 0.0366578 0.34076) 3675 7230 1
(0.1027 0.239236 0.208038 0.450026) 4497 8859 2
(0.147089 0.171901 0.426073 0.254937) 4744 9353 2
(0.580484 0.142202 0.0677368 0.209577) 4600 9065 2
(0.470592 0.0501349 0.265206 0.214068) 4437 8875 2
(0.0398029 0.373445 0.106766 0.479987) 4450 8767 2
(0.399839 0.186172 0.113885 0.300104) 4380 8628 2
(0.107887 0.37641 0.446256 0.0694475) 4306 8483 2
(0.224559 0.197525 0.390542 0.187374) 4180 8365 2
(0.53742 0.155032 0.075996 0.231552) 4095 8062 2
(0.0686323 0.171203 0.468278 0.291886) 4046 8099 2
(0.606323 0.196546 0.187863 0.00926816) 3883 7775 1
(0.555954 0.22003 0.0128008 0.211215) 3891 7791 1
(0.0281445 0.48371 0.21471 0.273436) 3818 7646 1
(0.667334 0.16584 0.0357192 0.131106) 3750 7379 1
(0.346147 0.324956 0.112101 0.216797) 3685 7382 1
(0.277821 0.00861597 0.352454 0.361109) 3611 7100 2
(0.36455 0.061049 0.31774 0.256661) 3403 6690 2
(0.00424752 0.33505 0.159408 0.501295) 3554 6987 2
(0.289841 0.354854 0.310437 0.0448681) 3580 7042 1
(0.0543444 0.471804 0.196809 0.277042) 3447 6776 1
(0.243225 0.37743 0.191313 0.188033) 3365 6615 1
(0.00881778 0.494226 0.222702 0.274254) 3282 6450 1
(0.149005 0.424697 0.261002 0.165296) 3214 6315 1
(0.474081 0.08924 0.263801 0.172878) 3142 6304 2
(0.143244 0.426487 0.0178795 0.41239) 3121 6131 1
(0.59957 0.199445 0.173052 0.0279333) 3016 5920 1
(0.619826 0.189701 0.100868 0.0896048) 2930 5751 1
(0.507319 0.246725 0.226716 0.0192403) 23296 46093 1
(0.112224 0.443888 0.0235454 0.420343) 23326 46153 1
(0.575137 0.212329 0.0626457 0.149888) 23025 45552 1
(0.210525 0.394738 0.295854 0.0988834) 22478 44460 1
(0.226715 0.383507 0.137954 0.251824) 21649 42804 1
(0.79782 0.101175 0.027836 0.0731686) 20498 40506 1
(0.502586 0.0770969 0.17161 0.248707) 20514 40539 2
(0.127099 0.436451 0.336096 0.100355) 19966 39447 1
(0.529488 0.235386 0.0292338 0.205892) 8124 16061 1
(0.764712 0.118135 0.106792 0.0103606) 7906 15628 1
(0.325736 0.117511 0.338467 0.218286) 7707 15367 2
(0.648004 0.0324491 0.175846 0.143701) 7711 15243 2
(0.301563 0.347448 0.181068 0.16992) 7636 15226 1
(0.6115 0.169922 0.02307 0.195508) 7416 14654 2
(0.755413 0.123362 0.0597365 0.0614885) 7415 14653 1
(0.243109 0.0706085 0.379055 0.307227) 7142 14245 2
(0.0519635 0.469881 0.422009 0.0561468) 7361 14545 1
(0.868414 0.0656619 0.00943212 0.0564918) 7172 14170 1
(0.0105957 0.483228 0.0139475 0.492229) 7054 13937 2
(0.0527939 0.4738 0.118693 0.354713) 6802 13436 1
(0.0878141 0.454019 0.0355031 0.422664) 6809 13584 1
(0.748025 0.0838461 0.0386479 0.129481) 6991 13811 2
(0.233124 0.38203 0.196007 0.188838) 6738 13443 1
(0.435355 0.0608584 0.282004 0.221782) 6744 13323 2
(0.437833 0.279119 0.102165 0.180883) 6570 12975 1
(0.0575701 0.471008 0.0770397 0.394382) 30535 60547 1
(0.0484949 0.475379 0.0287759 0.44735) 31110 61692 1
(0.458022 0.27075 0.141147 0.130081) 30262 60002 1
(0.860391 0.0693916 0.0378932 0.0323244) 29996 59468 1
(0.336668 0.330867 0.121898 0.210567) 29158 57795 1
(0.0350627 0.420248 0.487589 0.0570994) 28604 57246 2
(0.605526 0.197508 0.061128 0.135838) 25528 51105 1
(0.752645 0.0393647 0.123558 0.0844321) 23568 46638 2
(0.21804 0.0612033 0.391242 0.329515) 42257 83949 2
(0.3879 0.0714808 0.307218 0.233401) 42544 85076 2
(0.380648 0.309094 0.298522 0.0117348) 42260 83955 1
(0.329201 0.3354 0.00258945 0.33281) 41734 82903 1
(0.785277 0.0453727 0.061989 0.107362) 41724 82883 2
(0.259616 0.254143 0.370343 0.115897) 41443 82324 2
(0.29142 0.354109 0.24891 0.105561) 41151 81739 1
(0.442137 0.0469877 0.279622 0.231253) 40329 80654 2
(0.0842329 0.434108 0.0236785 0.457981) 39753 78948 2
(0.0756327 0.461232 0.0873429 0.375793) 38647 76739 1
(0.220588 0.327277 0.0569738 0.39516) 38101 75649 2
(0.494995 0.249933 0.0107622 0.244309) 37530 75066 1
(0.105049 0.446287 0.321464 0.1272) 37246 74499 1
(0.094528 0.452736 0.424051 0.0286848) 36992 73438 1
(0.662572 0.143423 0.172129 0.0218765) 36436 72882 2
(0.643048 0.177146 0.168604 0.0112021) 36140 71735 1
(0.772873 0.043522 0.112771 0.0708348) 35851 71714 2
(0.392244 0.303878 0.213708 0.0901698) 34761 68984 1
(0.266113 0.361265 0.272552 0.10007) 33365 66194 1
(0.252051 0.373974 0.0448132 0.329161) 52886 105167 1
(0.259581 0.370209 0.209166 0.161043) 52894 105183 1
(0.911974 0.0438753 0.0435279 0.000622926) 50627 101213 1
(0.40057 0.299318 0.102376 0.197737) 50930 101264 1
(0.331771 0.184678 0.146869 0.336682) 50918 101237 2
(0.0349615 0.201532 0.484504 0.279003) 49521 99005 2
(0.0386708 0.480665 0.105069 0.375595) 49273 97956 1
(0.422963 0.287505 0.222622 0.0669104) 48980 97925 1
(0.0565816 0.315499 0.470644 0.157275) 48974 97359 2
(0.466865 0.265885 0.0720198 0.19523) 47842 95099 1
(0.301707 0.206441 0.142471 0.349381) 47844 95101 2
(0.124826 0.0604674 0.378508 0.436199) 47293 94001 2
(0.51975 0.206907 0.0332722 0.240071) 47020 93456 2
(0.204246 0.397877 0.174218 0.223659) 46762 92943 1
(0.1105 0.0566168 0.444945 0.387938) 46451 92322 2
(0.083371 0.162174 0.46372 0.290734) 46207 92389 2
(0.00720157 0.0558511 0.44052 0.496428) 45328 90078 2
(0.701872 0.0842002 0.157484 0.0564437) 44822 89624 2
(0.001807 0.462252 0.0368736 0.499067) 44211 87848 2
(0 3.16297e-151 0.289504 0.710496) 58219 373412 2
(0 0.287343 0.712657 1.98422e-150) 62125 534710 1
(0 1.11587e-150 0.613732 0.386268) 57103 372296 2
(0.865921 0.0399584 0.0695728 0.0245476) 62059 123482 2
(0.160127 0.41972 0.281997 0.138157) 62646 124652 1
(0.0618619 0.469062 0.247973 0.221103) 60943 121252 1
(0.0926111 0.0685678 0.385774 0.453047) 62101 123564 2
(0.198772 0.400614 0.359381 0.0412331) 61826 123015 1
(0.0232798 0.488331 0.272619 0.21577) 61522 122410 1
(0.684166 0.0865355 0.157917 0.0713815) 61544 122454 2
(0.174393 0.0328044 0.412781 0.380021) 60954 121276 2
(0.38671 0.307822 0.0154161 0.290051) 61259 121882 1
(0.163783 0.418144 0.402062 0.0160107) 60967 121300 1
(0.123761 0.408558 0.438262 0.0294193) 60962 121292 2
(0.319123 0.177952 0.161108 0.341816) 60402 120171 2
(0.538917 0.218704 0.230407 0.0119723) 60415 120200 2
(0.726713 0.135954 0.0698786 0.0674547) 60139 120203 1
(0.880991 0.00317971 0.0557387 0.0600906) 59282 117936 2
(0.461323 0.265912 0.171302 0.101463) 59019 117410 1
(0.0330802 0.104353 0.484377 0.37819) 58737 116850 2
(0.713238 0.140893 0.100935 0.044934) 58734 116841 1
(0.267074 0.164696 0.199022 0.369208) 58747 116867 2
(0.243392 0.378385 0.0753981 0.302825) 57882 115143 1
(0.0505384 0.470356 0.148758 0.330348) 58203 115781 1
(0.750449 0.0601367 0.0650622 0.124352) 57890 115157 2
(0.0496634 0.466869 0.475168 0.00829907) 57657 114694 2
(0.0568005 0.252597 0.473641 0.216961) 56771 113479 2
(0.133657 0.109536 0.322518 0.434289) 56496 112373 2
(0.626265 0.18697 0.0446977 0.142067) 55938 111262 1
(0.548522 0.182219 0.0435197 0.225739) 55960 111304 2
(0.0627032 0.468648 0.258894 0.209755) 55427 110240 1
(0.864157 0.0334312 0.0692338 0.0331779) 54272 108490 2
(0.408676 0.294327 0.0684342 0.228563) 53990 107370 1
(0.173541 0.0368366 0.376393 0.41323) 54004 107399 2
(0.292556 0.279983 0.359555 0.0679063) 53731 107410 2
(0.274473 0.358171 0.277352 0.0900034) 53715 106821 1
(0 0.639019 0.360981 4.73584e-150) 71890 544475 1
(0 1.88159e-150 0.800489 0.199511) 72169 387362 2
(0 1.23325e-149 0.977888 0.022112) 67147 382340 2
(0 0.406491 0.593509 2.13431e-150) 67705 540290 1
(0 0.420589 0.579411 3.57559e-150) 64357 536942 1
(0 0.742776 0.257224 3.81727e-150) 62962 535547 1
(0 0.718452 0.281548 8.88367e-151) 66589 539174 1
(0 1.10677e-150 0.203037 0.796963) 69379 384572 2
(0 0.413249 0.586751 5.50673e-150) 71611 544196 1
(0 0.658145 0.341855 1.51327e-150) 67984 540569 1
(0 3.08725e-150 0.856132 0.143868) 64636 379829 2
(0 4.24753e-150 0.426341 0.573659) 71890 387083 2
(0 0.557154 0.442846 1.42783e-149) 64636 537221 1
(0.171741 0.22626 0.413915 0.188084) 72636 144598 2
(0.387724 0.269976 0.0327478 0.309553) 72391 144106 2
(0.121408 0.131075 0.440611 0.306907) 72400 144681 2
(0.244059 0.0409193 0.378757 0.336264) 72701 145282 2
(0.245005 0.102562 0.274935 0.377498) 72704 144732 2
(0.261291 0.367379 0.0750501 0.296279) 72430 144184 1
(0.659315 0.169686 0.000656523 0.170343) 72156 143638 2
(0.49439 0.252805 0.133333 0.119472) 71874 143077 1
(0.624369 0.118965 0.0688467 0.187819) 71002 141334 2
(0.0793839 0.440501 0.460346 0.0197692) 71013 141358 2
(0.522168 0.0689281 0.170322 0.238583) 69284 137904 2
(0.576351 0.209012 0.200786 0.0138512) 70167 139666 1
(0.511518 0.244162 0.234509 0.00981049) 69890 139670 1
(0.486683 0.254515 0.207981 0.0508208) 70171 139674 1
(0.424854 0.00372716 0.283485 0.287934) 70187 139706 2
(0.660831 0.168655 0.0483174 0.122196) 70191 139714 1
(0.147602 0.126639 0.297699 0.42806) 69623 138580 2
(0.177883 0.33921 0.417843 0.0650645) 69075 138043 2
(0.471806 0.260943 0.265902 0.00134828) 69063 137462 1
(0.356805 0.32164 0.000198952 0.321356) 67627 134596 2
(0.493747 0.253072 0.0864969 0.166684) 68514 136369 1
(0.788068 0.0656038 0.106803 0.0395258) 67948 135793 2
(0.0264961 0.276401 0.485915 0.211187) 67102 133550 2
(0.651634 0.172796 0.0715887 0.103981) 66540 132426 1
(0.0830602 0.452021 0.283759 0.18116) 66847 133038 1
(0.284063 0.354235 0.221565 0.140137) 66000 131347 1
(0.389079 0.304691 0.0949176 0.211313) 65697 130742 1
(0.663074 0.0137532 0.168738 0.154435) 65727 131359 2
(0.257199 0.213071 0.156065 0.373666) 65705 130758 2
(0.464663 0.129721 0.270263 0.135353) 65448 130802 2
(0.256935 0.3726 0.267591 0.102874) 64834 129022 1
(0.0905642 0.391776 0.0629423 0.454718) 65446 130242 2
(0.13038 0.352612 0.464194 0.0528135) 64909 129726 2
(0.110964 0.44592 0.293769 0.149346) 64895 129142 1
(0.31011 0.34826 0.160283 0.181347) 64603 128561 1
(0.335317 0.179924 0.15054 0.334219) 64027 127408 2
(0.0756876 0.457234 0.085035 0.382044) 63761 127434 1
(0.0721384 0.111213 0.465117 0.351531) 63182 126278 2
(0.0500628 0.235886 0.238861 0.47519) 63188 125734 2
(0 3.0213e-150 0.541723 0.458277) 81376 396569 2
(0 0.232599 0.767401 6.55074e-152) 78865 551450 1
(0 0.0987444 0.901256 3.26108e-150) 75238 547823 1
(0 0.0255717 0.974428 3.96859e-150) 78028 550613 1
(0 2.81981e-150 0.734114 0.265886) 81655 396848 2
(0 0.538579 0.461421 1.28749e-150) 80260 552845 1
(0 1.34469e-149 0.700635 0.299365) 76354 391547 2
(0 0.99952 0.000480077 2.13836e-150) 75238 547823 1
(0 6.07116e-150 0.0809436 0.919056) 74401 389594 2
(0 5.05512e-151 0.176757 0.823243) 75238 390431 2
(0 1.0127e-150 0.715223 0.284777) 74959 390152 2
(0 0.116435 0.883565 5.82435e-152) 82213 554798 1
(0 0.484298 0.515702 2.30225e-151) 80818 553403 1
(0 0.694778 0.305222 1.32014e-149) 73006 545591 1
(0 0.562448 0.437552 2.76891e-150) 74959 547544 1
(0 4.51596e-150 0.5304 0.4696) 80818 396011 2
(0 3.2867e-152 0.977642 0.0223584) 74122 389315 2
(0 0.435809 0.564191 3.31193e-151) 80539 553124 1
(0 5.90563e-150 0.577782 0.422218) 81097 396290 2
(0 0.580414 0.419586 5.92146e-150) 73006 545591 1
(0 8.08661e-151 0.753299 0.246701) 77470 392663 2
(0 0.814145 0.185855 1.03671e-150) 81376 553961 1
(0 1.15144e-150 0.389642 0.610358) 78307 393500 2
(0 2.13201e-152 0.815314 0.184686) 73843 389036 2
(0 2.34595e-150 0.87662 0.12338) 81934 397127 2
(0 4.65846e-150 0.0958277 0.904172) 78028 393221 2
(0 3.96263e-150 0.57354 0.42646) 80539 395732 2
(0 1.8884e-150 0.937977 0.0620225) 73564 388757 2
(0 1.4676e-150 0.257161 0.742839) 80818 396011 2
(0 0.388522 0.611478 2.303e-151) 76633 549218 1
(0 6.98772e-97 0.843026 0.156974) 81934 397127 2
(0 2.45807e-151 0.874827 0.125173) 79702 394895 2
(0 1.6914e-150 0.667644 0.332356) 74959 390152 2
(0.198655 0.396525 0.400338 0.0044818) 82104 163500 2
(0.345977 0.328562 0.216049 0.109411) 82413 164115 1
(0.34534 0.327889 0.238829 0.0879427) 82433 164157 1
(0.537663 0.231677 0.050773 0.179887) 81584 162460 1
(0.0541824 0.460139 0.478999 0.00667967) 82454 164753 2
(0.647502 0.0371588 0.175714 0.139625) 82465 164775 2
(0.282518 0.359368 0.239883 0.118231) 81897 163087 1
(0.177229 0.405102 0.165797 0.251872) 81914 163675 1
(0.057452 0.471194 0.261128 0.210227) 81631 162554 1
(0.179416 0.411656 0.239012 0.169916) 80190 159679 1
(0.774288 0.111336 0.103963 0.010413) 81340 161972 1
(0.012536 0.494155 0.323036 0.170274) 81058 161410 1
(0.554506 0.0943747 0.125751 0.225368) 81079 161451 2
(0.545807 0.156601 0.230854 0.0667377) 80204 160261 2
(0.458989 0.240371 0.0316849 0.268955) 79644 158587 2
(0.406888 0.280429 0.298377 0.0143065) 79071 157999 2
(0.380049 0.2385 0.311183 0.0702672) 80221 159741 2
(0.281802 0.160947 0.195531 0.361721) 80232 159760 2
(0.577264 0.0821114 0.211903 0.128722) 79060 157423 2
(0.316698 0.26243 0.0791482 0.341724) 80231 159759 2
(0.485382 0.247279 0.2561 0.0112393) 79086 157475 2
(0.906992 0.0466634 0.021322 0.0250228) 78807 156916 1
(0.554905 0.221086 0.180217 0.043792) 79084 157468 1
(0.739919 0.129792 0.0123191 0.11797) 79378 158055 1
(0.552963 0.168406 0.227528 0.0511032) 79681 159217 2
(0.337173 0.215648 0.333788 0.113391) 79095 158047 2
(0.366016 0.315821 0.256689 0.0614737) 79393 158642 1
(0.188751 0.407305 0.0870269 0.316917) 78822 156948 1
(0.310661 0.169929 0.348777 0.170632) 79122 158101 2
(0.685398 0.156974 0.152744 0.00488452) 78835 156974 1
(0.0535755 0.339057 0.128805 0.478562) 78833 156967 2
(0.387117 0.0423977 0.307756 0.26273) 78265 155836 2
(0.0788342 0.341466 0.461968 0.117732) 78271 155848 2
(0.540686 0.228984 0.0771408 0.153189) 77989 155285 1
(0.431743 0.128092 0.156181 0.283984) 77704 154714 2
(0.61678 0.15765 0.194564 0.0310057) 77718 155298 2
(0.402781 0.298161 0.289192 0.00986582) 77460 154783 1
(0.257841 0.121398 0.371335 0.249426) 77718 154744 2
(0.312524 0.336454 0.123294 0.227729) 77452 154767 1
(0.716829 0.142424 0.0239612 0.116786) 77149 153608 1
(0.233625 0.259661 0.383624 0.12309) 76290 151893 2
(0.257324 0.371396 0.0944084 0.276872) 76887 153083 1
(0.466632 0.136721 0.129761 0.266886) 76309 151929 2
(0.152109 0.142984 0.280804 0.424104) 75754 150821 2
(0.622184 0.188699 0.181904 0.00721337) 75478 150270 1
(0.182697 0.176815 0.229527 0.410961) 75186 149686 2
(0.1712 0.413395 0.348509 0.0668951) 74930 149732 1
(0.337894 0.316691 0.33862 0.00679487) 74930 149732 2
(0.374943 0.220931 0.33094 0.0731867) 74674 149221 2
(0.146288 0.426856 0.0665239 0.360332) 74937 149192 1
(0.325418 0.33213 0.337636 0.00481516) 74933 149184 2
(0.20229 0.397787 0.275019 0.124904) 74345 148564 1
(0.0201077 0.114614 0.490668 0.37461) 74350 148574 2
(0.18744 0.294199 0.405757 0.112603) 74337 147994 2
(0.291381 0.34558 0.355005 0.0080342) 74348 148016 2
(0.527518 0.0763309 0.158251 0.2379) 74378 148073 2
(0.400264 0.0288493 0.271028 0.299858) 74365 148047 2
(0.429664 0.284544 0.190628 0.0951635) 73536 146949 1
(0.12797 0.43796 0.0543726 0.379697) 73270 145861 1
(0.203047 0.263627 0.400623 0.132703) 73258 146394 2
(0.366909 0.316137 0.310153 0.00680133) 73253 145830 1
(0 0.583816 0.416184 4.15716e-150) 82771 555356 1
(0 2.7431e-151 0.00627944 0.993721) 85003 400196 2
(0 2.32915e-151 0.8806 0.1194) 91978 407171 2
(0 0.274724 0.725276 2.92158e-150) 91420 564005 1
(0 0.502097 0.497903 6.64165e-151) 91141 563726 1
(0 0.879763 0.120237 4.92294e-151) 90862 563447 1
(0 0.137188 0.862812 2.69748e-150) 89467 562052 1
(0 0.981217 0.0187833 6.47773e-153) 89746 562331 1
(0 0.908004 0.0919962 4.62818e-150) 84724 557309 1
(0 1.07772e-150 0.420154 0.579846) 84724 399917 2
(0 1.05196e-150 0.354983 0.645017) 83050 398243 2
(0 2.59733e-151 0.376689 0.623311) 83050 398243 2
(0 3.1661e-150 0.558601 0.441399) 83329 398522 2
(0 6.29793e-150 0.326298 0.673702) 89188 404381 2
(0 0.811862 0.188138 6.53952e-151) 84724 557309 1
(0 0.236651 0.763349 1.43429e-150) 86677 559262 1
(0 5.26206e-151 0.407215 0.592785) 85003 400196 2
(0 1.17102e-150 0.582785 0.417215) 89746 404939 2
(0 0.972696 0.0273044 8.47832e-152) 86677 559262 1
(0 2.42775e-150 0.512628 0.487372) 83608 398801 2
(0 0.654307 0.345693 1.24212e-151) 83887 556472 1
(0 0.831737 0.168263 5.43848e-150) 85282 557867 1
(0 4.88063e-20 0.946391 0.0536091) 85282 400475 2
(0 0.815565 0.184435 2.4246e-150) 83050 555635 1
(0 7.64747e-152 0.675408 0.324592) 88909 404102 2
(0 0.252473 0.747527 1.4616e-150) 84445 557030 1
(0 6.69694e-150 0.0517165 0.948283) 85282 400475 2
(0 0.44967 0.55033 2.80094e-150) 90583 563168 1
(0 0.0505855 0.949415 1.00071e-150) 92257 564842 1
(0 0.434652 0.565348 2.55355e-151) 92257 564842 1
(0 4.65251e-150 0.214531 0.785469) 91141 406334 2
(0 5.89278e-150 0.011098 0.988902) 83887 399080 2
(0 0.929222 0.0707781 7.47278e-151) 83608 556193 1
(0 0.991548 0.00845246 2.47619e-150) 91699 564284 1
(0 6.93613e-151 0.200176 0.799824) 83329 398522 2
(0 0.481675 0.518325 5.85022e-150) 91141 563726 1
(0 0.853007 0.146993 1.82165e-152) 85840 558425 1
(0 0.152497 0.847503 2.85717e-150) 83050 555635 1
(0 3.47105e-150 0.620908 0.379092) 91141 406334 2
(0 0.322868 0.677132 1.6338e-150) 84724 557309 1
(0 0.351233 0.648767 7.36515e-151) 83887 556472 1
(0 0.403015 0.596985 2.25405e-151) 87514 560099 1
(0 0.912838 0.0871619 1.90592e-150) 89188 561773 1
(0 0.267425 0.732575 3.94073e-150) 88351 560936 1
(0 0.657233 0.342767 3.37038e-152) 90583 563168 1
(0 1.13574e-151 0.953608 0.0463918) 88630 403823 2
(0 0.465334 0.534666 4.88105e-150) 92257 564842 1
(0 1.61252e-150 0.527461 0.472539) 85003 400196 2
(0 0.442761 0.557239 6.44424e-152) 84445 557030 1
(0 0.19436 0.80564 2.38355e-151) 88630 561215 1
(0 0.419097 0.580903 4.38978e-150) 85840 558425 1
(0 4.21913e-150 0.0714053 0.928595) 85003 400196 2
(0 2.22409e-150 0.792386 0.207614) 91420 406613 2
(0 1.46563e-149 0.871525 0.128475) 87793 402986 2
(0 4.96251e-151 0.667919 0.332081) 87514 402707 2
(0 0.00895415 0.991046 4.57462e-150) 84166 556751 1
(0 3.15386e-152 0.935517 0.0644834) 89188 404381 2
(0 0.873968 0.126032 1.67571e-150) 90862 563447 1
(0 1.42052e-150 0.211267 0.788733) 88351 403544 2
(0 0.149024 0.850976 3.81708e-150) 89746 562331 1
(0 3.44897e-150 0.256031 0.743969) 90025 405218 2
(0 4.9906e-140 0.459739 0.540261) 85561 400754 2
(0 9.15654e-151 0.813049 0.186951) 90025 405218 2
(0 0.14223 0.85777 6.71555e-151) 86398 558983 1
(0 0.774544 0.225456 3.65325e-150) 85561 558146 1
(0 1.31746e-150 0.700881 0.299119) 88630 403823 2
(0.44294 0.232283 0.279297 0.04548) 91614 183040 2
(0.845446 0.0770945 0.0479961 0.0294637) 91925 183661 1
(0.141263 0.429228 0.357179 0.0723296) 91932 183121 1
(0.169576 0.415234 0.248358 0.166831) 92218 183692 1
(0.146103 0.426523 0.0987428 0.328631) 91636 182527 1
(0.0676728 0.464628 0.233349 0.23435) 91641 182537 1
(0.0576689 0.168239 0.302645 0.471447) 91943 183141 2
(0.307566 0.237881 0.345412 0.109141) 92247 183750 2
(0.0898178 0.451415 0.267292 0.191475) 91954 183719 1
(0.189304 0.00877026 0.734051 0.0678743) 91978 407171 2
(0.492105 0.0774095 0.177154 0.253332) 91381 182019 2
(0.213809 0.392997 0.388443 0.00475158) 91688 182634 1
(0.375023 0.311223 0.149493 0.164261) 90827 180913 1
(0.648495 0.101229 0.171899 0.0783764) 91129 182072 2
(0.361801 0.0771652 0.319261 0.241774) 90247 180311 2
(0.385425 0.13534 0.166912 0.312323) 91131 181519 2
(0.244628 0.354865 0.350008 0.050499) 90581 180978 1
(0.343809 0.31059 0.235789 0.109812) 90855 180968 1
(0.0506621 0.47393 0.0337052 0.441703) 90555 180369 1
(0.260671 0.369579 0.298029 0.0717209) 89987 179238 1
(0.480306 0.157133 0.109972 0.252589) 90856 180971 2
(0.291365 0.352194 0.150477 0.205964) 90270 179800 1
(0.541877 0.231088 0.0565519 0.170483) 88841 176950 1
(0.0600522 0.469881 0.259072 0.210994) 90003 179270 1
(0.478827 0.0994218 0.161423 0.260328) 88576 176419 2
(0.761826 0.0701605 0.119072 0.0489407) 89177 177621 2
(0.0625642 0.22157 0.245133 0.470732) 88579 176424 2
(0.385896 0.19384 0.113427 0.306836) 88595 176457 2
(0.213729 0.396214 0.146623 0.243433) 88614 176497 1
(0.471554 0.264931 0.227875 0.0356405) 88610 176489 1
(0.940465 0.0241438 0.0295247 0.00586652) 87431 174689 2
(0 0.24189 0.75811 1.27161e-96) 87235 559820 1
(0.0326817 0.481122 0.227261 0.258936) 88308 175883 1
(0.350051 0.32491 0.27001 0.0550287) 87741 174752 1
(0.049593 0.332389 0.48016 0.137858) 87462 174751 2
(0.554317 0.111999 0.225194 0.10849) 88045 175915 2
(0.624968 0.186071 0.167693 0.0212681) 87457 174184 1
(0.0769419 0.338013 0.469891 0.115154) 88066 175403 2
(0.948537 0.00563676 0.0195643 0.0262621) 87467 174204 2
(0.00300379 0.286501 0.496689 0.213806) 87167 173608 2
(0.172702 0.413536 0.227299 0.186463) 87490 174251 1
(0.868899 0.0635667 0.0200226 0.0475117) 87493 174813 1
(0.210206 0.393151 0.251519 0.145124) 87206 174240 1
(0.0130561 0.494338 0.236973 0.255633) 86939 173151 1
(0.453897 0.273905 0.241545 0.0306538) 86938 173705 1
(0.0140759 0.372812 0.493803 0.119309) 86934 173143 2
(0.666225 0.0611507 0.10559 0.167034) 86353 171981 2
(0.360251 0.318673 0.180868 0.140208) 85747 170770 1
(0.221464 0.0349443 0.37041 0.373181) 86397 172071 2
(0.945679 0.0271113 0.0140579 0.0131518) 85186 170207 1
(0.649626 0.0554782 0.176176 0.118719) 86098 172028 2
(0.517017 0.239933 0.139391 0.103659) 85801 170878 1
(0.324203 0.115246 0.218399 0.342153) 85816 170908 2
(0.367968 0.315058 0.255423 0.0615505) 84957 169196 1
(0.123062 0.0314036 0.406094 0.439441) 85241 169761 2
(0.361139 0.291108 0.0191019 0.328651) 85266 169810 2
(0.319874 0.340209 0.0728857 0.267031) 84690 168661 1
(0.0184263 0.48662 0.112126 0.382828) 84393 168624 1
(0.221397 0.232207 0.389216 0.15718) 84683 168649 2
(0.281127 0.357656 0.111286 0.249931) 84678 168636 1
(0.357534 0.0595242 0.260568 0.322374) 84699 168678 2
(0.50976 0.243266 0.196101 0.0508731) 84111 167504 1
(0.608202 0.190915 0.122166 0.0787163) 84151 168141 1
(0.45081 0.0573877 0.27434 0.217462) 84130 167545 2
(0.456452 0.271876 0.125003 0.146669) 83847 166978 1
(0.332525 0.14775 0.333522 0.186203) 83840 166966 2
(0.636945 0.180236 0.0855881 0.0972306) 83563 166967 1
(0.464515 0.160803 0.104886 0.269796) 83581 166446 2
(0.0574842 0.186623 0.282285 0.473608) 83568 166420 2
(0.378337 0.310396 0.274437 0.03683) 83274 166390 1
(0.505672 0.243408 0.0326661 0.218253) 83301 166444 1
(0.442251 0.27548 0.0499875 0.232282) 83293 165874 1
(0.702643 0.148796 0.0439953 0.104566) 82745 164780 1
(0.470211 0.153261 0.265354 0.111174) 82749 164788 2
(0 6.56042e-150 0.86148 0.13852) 96721 411914 2
(0 7.87698e-150 0.843943 0.156057) 100906 416099 2
(0 0.252698 0.747302 1.84845e-150) 99790 572375 1
(0 0.429894 0.570106 2.4157e-151) 99232 571817 1
(0 0.0236096 0.97639 3.55714e-150) 97000 569585 1
(0 0.355011 0.644989 5.9983e-150) 96163 568748 1
(0 5.71222e-150 0.460485 0.539515) 100348 415541 2
(0 5.04511e-151 0.0264945 0.973506) 95047 410240 2
(0 0.0733197 0.92668 1.19197e-150) 97558 570143 1
(0 0.321491 0.678509 2.33962e-151) 96442 569027 1
(0 2.66138e-150 0.116189 0.883811) 94489 409682 2
(0 2.86815e-150 0.876798 0.123202) 101185 416378 2
(0 0.565582 0.434418 7.11954e-151) 92815 565400 1
(0 8.21065e-151 0.667303 0.332697) 93931 409124 2
(0 0.59928 0.40072 4.79986e-151) 99511 572096 1
(0 6.92541e-152 0.861 0.139) 95884 411077 2
(0 7.69083e-150 0.417766 0.582234) 94210 409403 2
(0 0.875627 0.124373 1.74138e-150) 96163 568748 1
(0 1.90294e-150 0.826869 0.173131) 100069 415262 2
(0 0.085051 0.914949 1.70329e-150) 96721 569306 1
(0 2.03062e-151 0.280835 0.719165) 98116 413309 2
(0 0.356415 0.643585 6.30494e-151) 100069 572654 1
(0 0.0930661 0.906934 3.96263e-150) 93652 566237 1
(0 7.34414e-151 0.00709516 0.992905) 100069 415262 2
(0 5.57295e-151 0.0735469 0.926453) 100906 416099 2
(0 2.74414e-150 0.835705 0.164295) 95326 410519 2
(0 0.026046 0.973954 1.71206e-150) 100348 572933 1
(0 0.591417 0.408583 4.91444e-150) 98395 570980 1
(0 0.701339 0.298661 3.61196e-150) 96721 569306 1
(0 0.42786 0.57214 2.51204e-150) 100069 572654 1
(0 0.115016 0.884984 1.13713e-152) 97837 570422 1
(0 1.00153e-149 0.929667 0.0703328) 95326 410519 2
(0 4.68339e-150 0.326994 0.673006) 98674 413867 2
(0 0.884911 0.115089 7.91525e-151) 99232 571817 1
(0 0.12832 0.87168 9.04151e-151) 92815 565400 1
(0 2.27727e-150 0.738139 0.261861) 92536 407729 2
(0 0.387168 0.612832 3.27635e-151) 93652 566237 1
(0 8.12934e-151 0.441093 0.558907) 99232 414425 2
(0 2.01708e-150 0.914134 0.0858662) 99790 414983 2
(0 0.0142739 0.985726 3.8534e-150) 100627 573212 1
(0 0.202249 0.797751 1.79442e-150) 100627 573212 1
(0 0.227147 0.772853 8.01085e-150) 101185 573770 1
(0 0.637315 0.362685 3.35715e-151) 97000 569585 1
(0 3.16411e-150 0.208437 0.791563) 96163 411356 2
(0 0.453331 0.546669 7.9688e-151) 93931 566516 1
(0 0.321075 0.678925 2.1485e-150) 97279 569864 1
(0 0.136489 0.863511 2.39896e-150) 100906 573491 1
(0 1.86914e-150 0.0422542 0.957746) 92536 407729 2
(0 1.11223e-151 0.926295 0.0737045) 98395 413588 2
(0 0.474685 0.525315 2.36718e-150) 98395 570980 1
(0 6.0169e-150 0.147016 0.852984) 97000 412193 2
(0 1.14247e-153 0.148955 0.851045) 98953 414146 2
(0 4.35963e-150 0.62556 0.37444) 97279 412472 2
(0 0.6113 0.3887 4.70492e-151) 98395 570980 1
(0 0.328096 0.671904 2.4334e-151) 94768 567353 1
(0 1.60605e-151 0.204915 0.795085) 94768 409961 2
(0 1.99285e-151 0.101615 0.898385) 99232 414425 2
(0 0.144818 0.855182 2.82429e-151) 99232 571817 1
(0 0.761282 0.238718 1.16069e-150) 97837 570422 1
(0 0.189567 0.810433 1.83077e-150) 95047 567632 1
(0 0.369519 0.630481 6.82018e-151) 101464 574049 1
(0 4.49532e-150 0.21759 0.78241) 99511 414704 2
(0 0.460989 0.539011 4.04635e-150) 97558 570143 1
(0 0.628236 0.371764 1.91714e-153) 98674 571259 1
(0 1.18156e-79 0.119781 0.880219) 100348 415541 2
(0 2.21522e-150 0.020028 0.979972) 95884 411077 2
(0 6.99544e-151 0.321536 0.678464) 101464 416657 2
(0 0.426555 0.573445 1.4141e-151) 95884 568469 1
(0 4.07073e-150 0.869044 0.130956) 95047 410240 2