/*--------------------------------*- C++ -*----------------------------------*\
  =========                 |
  \\      /  F ield         | OpenFOAM: The Open Source CFD Toolbox
   \\    /   O peration     | Website:  https://openfoam.org
    \\  /    A nd           | Version:  7
     \\/     M anipulation  |
\*---------------------------------------------------------------------------*/
FoamFile
{
    version     2.0;
    format      ascii;
    class       scalarField;
    location    "0.7/lagrangian/reactingCloud1";
    object      pressure;
}
// * * * * * * * * * * * * * * * * * * * * * * * * * * * * * * * * * * * * * //


2563
(
591.931
591.564
590.58
589.193
589.256
588.345
585.277
583.175
585.362
584.975
585.333
585.073
584.475
583.888
584.06
585.043
579.947
584.179
582.132
581.413
581.779
582.294
583.19
582.774
582.254
582.326
582.712
582.692
583.184
582.649
582.613
582.919
582.754
582.941
582.806
583.039
582.91
582.893
582.904
582.948
582.945
582.949
601.876
589.099
603.828
598.761
589.997
589.021
586.723
601.502
593.663
592.591
602.79
596.185
598.642
592.968
595.812
597.229
603.942
598.088
600.96
597.748
603.387
599.356
600.83
604.381
596.921
602.563
604.426
602.656
604.079
600.177
601.639
603.397
601.512
602.245
602.424
602.114
601.888
602.868
599.172
599.611
602.057
600.715
600.79
601.266
599.884
601.482
599.266
601.846
601.004
601.467
601.324
600.655
601.468
601.627
599.117
596.361
595.456
595.84
597.009
596.339
596.256
593.076
593.573
594.615
455.707
463.191
461.165
470.604
481.899
478.907
489.358
499.116
524.786
534.402
544.48
544.243
547.98
560.843
561.172
571.895
560.4
565.904
568.987
582.436
580.822
570.862
583.378
582.083
582.64
92.1268
382.162
343.207
392.269
399.815
405.719
434.327
450.593
213.018
331.709
282.524
335.405
335.538
335.887
335.45
337.433
334.042
341.002
342.556
344.258
344.752
346.54
348.953
349.831
350.375
357.767
366.959
331.308
331.312
193.422
331.817
330.515
329.327
332.171
332.251
332.256
295.861
320.435
332.403
332.712
332.69
329.921
332.817
249.647
333.223
231.647
329.612
328.479
329.982
78.4591
328.196
77.0118
328.479
328.547
324.04
328.617
223.516
328.686
327.835
316.859
301.509
328.856
328.982
256.519
329.265
329.183
328.53
329.421
191.445
329.609
302.35
329.796
267.925
317.719
319.43
330.348
330.543
330.732
330.412
330.978
331.068
330.972
327.155
327.135
327.595
327.53
328.01
328.287
327.666
327.359
327.175
327.499
327.961
327.155
327.961
2.38724
171.171
253.626
327.066
327.087
327.114
327.135
327.155
231.445
321.072
1.53896
254.326
275.147
292.473
327.241
327.277
326.897
327.381
326.531
8.9617
327.424
327.094
307.621
271.272
327.631
327.715
208.404
327.783
296.326
327.825
4.2817
327.822
327.914
327.915
327.917
260.614
327.805
167.426
240.386
326.709
326.785
326.946
326.817
326.702
326.739
326.889
326.946
326.992
326.946
326.961
326.689
326.724
327.079
326.961
326.724
327.009
326.731
326.716
327.079
326.839
326.709
326.806
327.026
326.695
326.817
326.731
327.043
326.724
326.876
326.695
326.757
326.961
1.68205
23.0291
138.899
60.6015
279.935
324.951
289.867
326.584
326.289
65.1776
299.55
281.03
326.677
163.133
149.825
44.4139
285.775
325.701
9.01353
325.222
150.713
151.16
136.004
246.119
326.693
217.366
325.147
263.961
326.702
325.474
323.881
274.528
314.666
298.249
254.092
325.547
326.839
325.547
326.83
280.561
106.807
326.768
260.922
288.139
310.881
207.436
326.742
326.742
326.976
326.946
326.892
175.787
218.86
106.821
201.604
326.975
323.923
326.951
327.06
327.004
326.656
326.677
326.636
326.539
326.55
326.553
326.558
326.576
326.573
326.64
326.64
326.671
326.671
326.666
326.58
326.64
326.611
326.636
326.573
326.611
326.66
326.654
326.632
326.632
326.671
326.582
326.645
326.632
326.561
326.535
326.535
326.553
326.654
326.66
326.545
326.666
326.553
326.624
326.671
326.553
326.64
326.654
326.6
326.58
326.59
326.561
326.586
326.535
326.636
326.645
326.586
326.624
326.636
326.55
326.597
326.6
326.649
326.58
326.558
326.59
326.573
326.569
326.628
326.569
326.614
326.628
326.586
21.2953
155.574
191.72
227.191
104.074
130.263
249.615
326.284
307.192
326.539
230.531
326.262
254.701
326.237
138.455
326.39
326.558
326.507
294.571
241.813
326.524
262.907
80.8963
320.754
158.085
326.473
174.623
265.438
326.141
324.888
19.323
326.603
220.402
171.126
171.804
311.866
143.518
326.582
200.397
81.6477
322.139
325.053
306.688
326.287
326.159
324.851
216.056
6.17697
326.614
4.52528
325.729
255.246
324.34
215.205
245.403
326.517
292.624
179.619
248.078
216.275
324.559
161.582
326.599
283.349
258.815
213.118
227.258
323.909
260.293
163.387
323.09
288.249
325.337
326.358
326.352
325.597
325.92
326.037
326.329
326.391
325.776
326.452
326.276
326.372
326.474
325.492
326.523
326.493
325.982
326.409
326.484
326.391
325.851
326.352
326.211
325.851
326.502
325.851
325.597
326.439
325.776
326.174
326.352
325.851
326.245
326.439
326.133
326.037
326.523
326.529
326.502
326.037
325.92
325.691
325.691
325.492
326.329
326.391
326.493
326.303
325.597
326.529
326.174
326.174
326.329
326.088
326.303
326.174
326.464
326.464
326.037
326.037
326.245
326.452
325.374
325.982
326.276
326.133
325.776
326.409
325.374
326.409
326.452
326.391
326.502
326.174
326.276
326.493
325.374
326.303
326.517
325.691
326.245
326.303
325.776
326.493
325.92
325.244
326.409
326.329
325.851
325.851
326.088
326.484
325.597
325.851
326.529
325.92
326.464
326.439
326.174
326.303
326.037
326.509
326.088
325.776
1.29445
2.30751
326.439
198.196
198.196
315.541
315.541
275.343
295.509
256.36
46.3146
298.591
224.567
207.05
170.644
254.641
317.797
187.399
157.826
31.5673
41.418
127.716
326.529
225.509
209.087
68.7887
322.644
25.8852
326.474
263.471
100.552
192.473
292.371
96.8257
174.46
301.26
282.447
326.195
254.428
324.473
89.7865
308.166
325.147
24.1323
325.982
9.35057
228.891
326.352
293.081
326.343
198.07
325.318
25.7957
6.91884
310.398
205.166
24.1868
315.021
225.002
240.001
300.149
42.625
94.321
269.381
326.061
204.41
282.512
261.72
303.747
319.193
306.404
204.364
326.45
148.964
195.059
320.16
270.87
324.053
195.263
231.471
212.688
264.365
200.903
195.263
323.012
316.816
189.796
308.299
184.505
237.964
237.964
314.51
189.796
308.299
270.87
225.081
231.471
184.505
218.814
231.471
251.15
289.244
304.328
316.816
251.15
264.365
218.814
206.714
322.273
184.505
321.339
212.688
304.328
200.903
257.774
237.964
225.081
311.688
277.231
270.87
257.774
206.714
323.012
264.365
184.505
289.244
200.903
195.263
322.273
294.74
270.87
321.339
323.012
237.964
237.964
323.012
314.51
184.505
184.505
320.16
311.688
304.328
270.87
189.796
324.677
299.793
320.16
321.339
244.534
244.534
264.365
323.604
304.328
231.471
311.688
283.38
277.231
318.676
283.38
270.87
218.814
231.471
299.793
231.471
289.244
277.231
316.816
323.604
206.714
264.365
231.471
324.677
237.964
257.774
195.263
324.4
322.273
200.903
289.244
314.51
321.339
189.796
314.51
314.51
270.87
323.604
212.688
231.471
323.012
311.688
321.339
184.505
264.365
270.87
324.4
311.688
318.676
237.964
308.299
294.74
257.774
304.328
322.273
264.365
251.15
277.231
324.053
270.87
299.793
318.676
323.012
231.471
251.15
184.505
270.87
299.793
324.902
257.774
244.534
231.471
308.299
270.87
323.604
212.688
200.903
231.471
264.365
225.081
225.081
184.505
264.365
299.793
264.365
195.263
212.688
311.688
323.604
251.15
324.053
321.339
308.299
264.365
231.471
231.471
324.677
324.053
195.263
277.231
212.688
323.604
231.471
257.774
311.688
324.902
212.688
321.339
323.012
195.263
237.964
299.793
231.471
212.688
218.814
218.814
324.902
308.299
314.51
277.231
320.16
324.4
206.714
237.964
206.714
324.902
212.688
318.676
251.15
195.263
308.299
308.299
304.328
277.231
316.816
218.814
321.339
257.774
244.534
323.012
299.793
257.774
257.774
7.71283
311.688
6.87511
93.0777
28.7567
81.687
26.0659
2.45425
8.55836
6.3326
103.375
19.5322
121.365
136.805
195.263
41.0878
107.73
118.271
175.063
187.101
31.7385
183.34
116.892
96.9564
7.94677
3.44565
168.142
41.8359
176.006
140.98
75.9402
72.6224
98.6594
199.939
89.8774
43.6579
200.167
111.764
104.507
166.448
201.002
196.598
115.676
45.8795
194.839
160.46
244.534
220.625
166.423
159.606
34.8671
5.09103
51.4124
121.271
56.0844
203.09
239.925
145.229
181.836
149.559
230.474
257.774
207.837
49.5478
270.336
215.566
109.588
324.902
129.068
145.72
47.8712
67.3693
179.615
111.945
264.783
308.299
18.3361
54.1031
173.656
324.053
134.104
18.2188
281.065
203.77
146.669
286.341
220.925
316.816
87.8669
114.97
294.349
174.664
46.6881
150.745
316.312
243.448
305.079
201.458
53.3495
288.079
31.8365
68.546
137.3
254.63
42.6505
277.823
155.125
262.484
29.4043
1.37341
291.705
106.07
243.416
252.803
290.106
323.604
122.061
39.7658
29.7722
260.184
150.626
104.416
246.061
1.21959
1.21516
131.358
315.781
2.77985
229.162
50.2676
215.094
4.17106
160.683
127.655
118.95
169.695
165.105
179.393
144.584
85.7045
96.0373
82.6945
92.3566
97.9757
82.6945
148.38
174.457
127.655
111.177
116.262
116.262
160.683
108.773
99.9834
113.672
104.22
88.919
96.0373
88.919
169.695
160.683
165.105
102.064
134.037
148.38
124.642
113.672
99.9834
104.22
104.22
113.672
97.9757
116.262
106.455
134.037
104.22
84.175
169.695
165.105
111.177
94.1652
152.326
87.2851
137.418
179.393
174.457
102.064
104.22
92.3566
160.683
169.695
124.642
152.326
144.584
97.9757
174.457
156.425
152.326
174.457
106.455
156.425
174.457
82.6945
169.695
97.9757
88.919
148.38
127.655
116.262
148.38
130.785
137.418
108.773
156.425
134.037
124.642
148.38
124.642
127.655
94.1652
81.2611
84.175
124.642
99.9834
81.2611
81.2611
124.642
99.9834
152.326
124.642
113.672
106.455
84.175
88.919
99.9834
156.425
88.919
134.037
137.418
156.425
106.455
82.6945
84.175
116.262
90.6087
87.2851
127.655
81.2611
179.393
84.175
174.457
174.457
140.932
113.672
121.742
152.326
124.642
174.457
111.177
116.262
127.655
148.38
165.105
108.773
127.655
92.3566
130.785
179.393
169.695
96.0373
92.3566
87.2851
144.584
116.262
148.38
127.655
144.584
108.773
90.6087
99.9834
113.672
96.0373
106.455
144.584
169.695
106.455
134.037
116.262
148.38
144.584
160.683
156.425
85.7045
165.105
104.22
106.455
174.457
160.683
96.0373
127.655
96.0373
108.773
124.642
106.455
113.672
116.262
152.326
137.418
156.425
165.105
104.22
108.773
90.6087
94.1652
124.642
111.177
99.9834
140.932
165.105
118.95
121.742
85.7045
140.932
144.584
97.9757
92.3566
85.7045
104.22
87.2851
137.418
84.175
94.1652
124.642
134.037
85.7045
121.742
118.95
165.105
137.418
104.22
94.1652
81.2611
84.175
130.785
137.418
127.655
90.6087
140.932
92.3566
96.0373
134.037
137.418
160.683
81.2611
92.3566
85.7045
140.932
134.037
108.773
144.584
90.9499
88.919
127.655
85.7045
118.95
130.785
111.177
87.2851
165.105
127.655
104.22
156.425
99.9834
165.105
87.2851
106.455
130.785
90.6087
96.0373
144.584
108.773
152.326
108.773
84.175
43.4027
24.1357
7.86617
26.6896
169.695
66.5373
37.3682
30.8524
84.175
81.9662
62.0387
134.037
44.546
79.7607
73.1212
76.9686
55.884
58.018
69.6065
76.0772
53.7337
61.4331
71.5029
74.6495
120.933
61.2802
71.8099
82.623
88.6782
86.9385
30.0619
89.2147
67.1336
42.6582
85.6976
88.5655
87.043
17.649
29.7353
62.7419
38.1698
124.642
79.6402
179.393
140.932
90.6918
92.3651
45.0236
68.6372
78.7846
83.1314
51.0253
29.5281
169.695
99.8897
36.8505
106.455
4.47714
48.1117
78.5873
10.5926
3.00043
16.1041
78.4663
140.932
107.099
116.262
102.542
67.9418
100.634
51.9252
96.6367
77.2126
83.7644
116.679
121.586
102.485
120.609
120.233
49.5834
111.359
26.0543
160.683
27.7954
79.9223
70.4586
51.9145
114.995
129.42
66.2637
85.6832
115.003
97.869
133.42
140.932
78.7182
21.4526
137.352
106.678
160.683
116.061
131.514
78.3138
116.632
111.867
151.746
98.9643
92.5942
134.615
147.103
145.056
120.906
154.23
156.331
119.485
35.4687
114.057
123.441
136.53
21.5439
133.485
112.009
162.757
15.1474
159.285
59.2742
60.8539
72.3914
63.3871
59.2742
68.1024
55.6547
60.8539
60.8539
51.1991
77.2237
54.3186
55.6547
69.1283
65.1946
54.9796
57.0508
58.5144
52.4127
77.2237
71.2715
78.5274
58.5144
67.1056
60.8539
51.8006
74.7341
71.2715
53.671
60.0536
57.0508
53.0359
69.1283
55.6547
58.5144
50.0254
70.1842
53.0359
71.2715
58.5144
53.0359
50.0254
61.6757
53.671
79.8727
53.671
69.1283
63.3871
73.5452
59.2742
66.1367
57.0508
79.8727
55.6547
71.2715
66.1367
60.0536
79.8727
67.1056
68.1024
51.8006
65.1946
75.9598
62.5198
54.9796
67.1056
66.1367
51.8006
69.1283
69.1283
73.5452
79.8727
72.3914
57.0508
59.2742
71.2715
60.0536
50.0254
67.1056
63.3871
79.8727
60.8539
51.1991
69.1283
63.3871
68.1024
70.1842
70.1842
50.6076
53.0359
77.2237
57.7736
52.4127
61.6757
64.2783
68.1024
61.6757
71.2715
67.1056
79.8727
77.2237
50.6076
71.2715
54.3186
50.6076
55.6547
60.8539
60.8539
50.6076
63.3871
64.2783
57.0508
71.2715
50.0254
50.0254
68.1024
71.2715
77.2237
53.0359
55.6547
78.5274
79.8727
61.6757
60.0536
50.6076
54.3186
55.6547
73.5452
67.1056
58.5144
50.6076
73.5452
74.7341
71.2715
68.1024
63.3871
51.1991
67.1056
64.2783
57.7736
66.1367
63.3871
70.1842
60.8539
53.671
58.5144
61.6757
66.1367
51.1991
54.3186
69.1283
77.2237
50.6076
56.3447
69.1283
61.6757
61.6757
74.7341
77.2237
66.1367
65.1946
64.2783
68.1024
55.6547
68.1024
73.5452
71.2715
60.0536
79.8727
71.2715
53.671
63.3871
60.0536
65.1946
72.3914
50.0254
60.0536
50.6076
67.1056
1.21511
1.21485
2.79343
17.8362
52.4127
7.34177
5.23355
20.0929
31.2212
19.3779
10.2857
28.3711
5.34662
34.7687
47.9066
1.21491
49.9047
50.6024
44.7416
37.8448
49.8701
51.6245
51.1417
52.316
67.1056
41.9512
49.4797
78.5274
48.9293
1.21489
44.0877
50.7945
35.3666
5.47326
53.7665
53.6096
6.13
51.765
40.6156
13.077
22.627
11.5658
56.3447
35.4548
37.3868
51.5737
50.4491
48.0004
29.2375
36.1718
55.1705
55.9014
10.2004
44.3823
52.7074
56.9173
18.477
41.7735
56.7085
58.5323
12.4911
53.8393
60.5905
60.0457
60.7134
60.0007
60.365
40.2719
3.05958
1.21493
58.9155
36.0966
53.2462
63.3871
62.6497
62.7004
64.2689
63.0954
61.155
4.00486
57.0413
16.2342
63.1529
39.3345
51.6005
27.4883
54.1776
55.3803
13.6386
35.0424
48.6784
66.0687
60.4519
21.5744
7.25273
40.4328
63.366
52.7147
44.9772
64.0103
23.6649
79.8727
41.8166
68.8518
38.914
68.8518
73.5452
1.21495
53.8655
26.6247
73.8714
62.3696
40.4389
73.0863
47.0774
50.4122
57.7256
78.3512
73.0776
9.67173
34.1723
57.7327
66.3618
37.7848
74.1977
77.6804
48.8875
42.6295
44.6242
38.8434
44.6242
38.8434
33.1451
46.1752
42.6295
48.3306
39.7674
42.6295
49.4522
38.3864
48.8875
39.7674
43.6172
43.121
39.3036
46.704
43.121
36.5908
42.1423
33.5659
33.5659
36.1496
41.6595
45.6525
38.8434
33.1451
45.6525
46.1752
39.3036
42.6295
40.7058
36.5908
42.6295
35.7116
47.7814
42.6295
41.1807
43.6172
48.8875
47.2393
38.3864
37.035
33.1451
45.6525
44.6242
46.704
43.121
33.1451
49.4522
48.3306
43.121
34.4156
43.6172
49.4522
39.7674
46.1752
37.9328
42.1423
46.1752
40.2348
47.7814
34.4156
46.1752
46.1752
38.8434
36.1496
46.704
37.9328
39.7674
33.9893
42.1423
46.704
45.6525
33.9893
45.6525
37.4823
46.704
47.2393
48.3306
37.4823
41.6595
36.5908
45.1356
38.8434
33.1451
35.2766
48.8875
34.8446
40.7058
39.7674
47.2393
39.3036
46.704
41.1807
40.7058
48.8875
36.1496
38.8434
43.6172
44.6242
37.9328
40.2348
41.1807
34.4156
43.6172
33.5659
37.9328
43.6172
38.3864
37.9328
33.9893
47.2393
41.6595
32.7965
37.4823
38.8434
42.1423
37.9328
44.1182
41.1807
46.704
34.8446
37.4823
38.8434
35.2766
36.5908
38.3864
47.2393
37.035
45.6525
49.4522
48.3306
49.4522
41.6595
33.8194
1.21475
48.8875
1.21475
1.21475
38.8434
49.4522
5.48218
4.27244
36.5908
7.16223
47.2393
15.1586
1.21475
21.3778
23.2001
22.4964
26.1209
37.035
26.1209
26.2482
33.5659
32.9857
28.4999
9.79432
33.1024
33.1433
26.3756
18.9112
32.2634
43.6172
21.6001
24.8096
27.7092
14.271
27.5712
14.6905
20.5089
31.364
8.72882
27.301
34.5294
42.1423
33.6353
21.7068
1.21477
34.6212
26.2772
10.4295
16.5987
24.2101
34.7241
35.6748
44.1182
20.6148
35.6971
1.21478
36.1496
1.21478
36.035
7.90134
34.8347
35.331
48.3306
1.21479
24.1041
12.634
1.21479
17.1375
23.7008
36.5228
35.3788
1.21477
36.7508
33.8026
23.0962
42.1423
42.1423
34.857
32.1401
25.0084
8.05349
37.0096
33.7743
37.9246
49.4522
35.777
33.1917
21.4386
13.4029
43.121
26.9525
39.1305
36.4782
42.1423
13.8862
39.0958
32.1844
38.1024
28.2337
40.1649
12.5338
33.6388
38.5211
28.8
36.7989
36.7989
39.5192
29.1788
36.7989
3.78408
40.7567
43.6172
28.1224
15.7848
36.2324
27.9667
35.7414
47.2393
36.4026
40.4027
33.1555
35.5086
21.2589
38.6578
18.3857
41.7461
41.0895
41.0968
41.488
27.1643
40.5848
1.21481
33.731
36.4395
32.4856
43.5316
37.0212
44.0005
9.74469
15.7337
17.3127
41.5749
43.5477
44.5597
36.146
28.5853
34.3096
44.2083
44.788
44.0224
42.7285
33.1347
22.2425
35.9201
44.0767
44.3095
42.7016
43.0245
42.1939
46.6902
46.123
44.6536
47.2349
28.9632
24.2352
47.1347
45.6486
47.1347
19.5384
19.5523
44.8143
47.7763
1.21486
31.3105
48.8062
48.1505
48.8336
31.4673
1.21484
4.19301
34.9492
39.1012
49.4362
19.4833
12.221
47.9333
49.4522
47.3922
20.693
24.8647
29.8574
31.4863
21.376
23.5848
22.7328
22.1987
23.008
21.6634
22.1987
27.4582
23.2914
28.6492
29.0505
21.376
25.5658
25.2103
27.4582
22.1987
28.6492
22.4639
27.0679
28.6492
20.2714
22.4639
20.2714
20.693
28.2496
31.8977
23.2914
30.2626
27.4582
24.8647
25.5658
20.2714
25.9303
28.6492
30.2626
21.376
29.8574
31.8977
29.8574
32.7269
23.5848
26.3029
22.7328
23.2914
28.2496
29.0505
29.4533
21.0574
27.4582
30.669
26.3029
27.0679
29.0505
24.8647
27.8524
22.4639
29.8574
21.0574
24.5289
24.2036
22.4639
22.4639
24.5289
21.376
27.4582
30.669
21.6634
20.693
24.8647
26.3029
31.0768
23.5848
27.8524
31.8977
26.3029
22.4639
22.4639
21.376
28.6492
22.7328
29.8574
23.8888
21.6634
23.5848
30.2626
24.2036
30.669
28.6492
25.5658
25.5658
29.8574
30.2626
24.5289
30.669
25.5658
21.0574
27.8524
29.8574
25.5658
25.9303
24.2036
25.2103
21.376
29.8574
23.008
20.693
22.1987
21.9341
24.2036
29.4533
23.5848
29.8574
25.9303
23.008
27.0679
22.1987
31.4863
22.4639
22.1987
29.0505
30.2626
27.4582
31.0768
32.7269
20.2714
23.008
1.23224
1.2147
1.21471
28.6492
21.376
21.0574
25.9303
1.24616
10.5106
28.2496
22.4639
20.2714
31.0768
1.21471
1.2147
1.21471
25.5658
21.0574
15.0618
23.8888
16.0165
1.21472
17.3347
20.2497
17.9284
15.5456
4.31417
15.6288
14.5985
19.1671
12.5558
19.3305
1.21472
20.044
17.437
20.0273
3.21749
9.24969
13.2486
20.1189
15.0629
21.0396
2.69407
10.1438
15.1292
20.9594
13.8946
18.9639
1.2147
20.6362
19.9449
20.031
17.5019
1.33687
27.4582
8.33332
19.5174
20.1893
20.78
23.008
27.4582
12.0269
19.6564
20.3862
21.3464
11.3066
18.335
10.6589
1.70861
21.2506
1.25074
3.12432
14.9467
11.9108
11.6151
1.21471
1.21471
17.226
15.5965
20.0137
1.21471
21.275
7.81913
22.1785
11.6255
13.659
27.4582
12.63
17.4543
1.21471
21.6014
5.37272
20.6113
21.9341
21.6882
17.9976
17.147
21.5655
16.8784
20.1483
27.8524
1.24984
21.9334
6.70365
10.6387
21.9341
21.8497
21.187
21.6694
5.26304
19.1643
21.077
22.1879
12.384
13.5435
20.4036
21.9059
1.21471
29.0505
17.2801
18.4206
21.705
22.4639
10.9564
1.21671
20.3013
1.21472
21.2684
1.21475
12.2667
22.4639
1.2147
22.0473
22.399
21.9827
14.7677
18.6366
11.9592
25.5658
22.463
19.7112
1.21471
26.3029
19.7708
9.15277
20.8678
9.52864
21.5806
1.2147
1.21471
17.4304
22.1273
19.684
14.7619
19.5852
3.45051
4.95314
19.7037
19.1881
22.6028
21.9728
6.27091
11.0681
23.1649
23.0441
23.1922
19.8285
16.7713
18.0688
22.6559
18.501
1.21474
1.21471
21.5507
22.2206
1.21742
21.4104
12.5878
22.6559
21.3546
4.06374
23.2791
19.5155
21.0673
24.2036
23.4052
9.82255
12.7278
1.21474
4.66542
1.21471
28.2496
1.21472
22.7039
12.4276
23.7682
23.888
22.0267
3.861
18.4731
24.1982
9.56146
23.3497
24.0933
23.3131
22.2768
27.0679
23.211
24.486
24.2204
1.21472
23.7611
3.75122
1.21471
1.21471
24.0892
23.0655
20.0733
19.6719
24.7459
19.8336
24.7746
23.1902
19.7606
13.0811
12.758
15.0143
4.05747
17.2037
24.9515
24.4658
21.731
1.21471
1.45936
25.1539
23.1586
25.0535
1.21471
1.21471
25.2002
27.4008
25.8806
1.21471
23.2337
20.8119
22.3623
25.1002
1.22531
1.21477
23.6525
23.7908
25.6685
13.908
23.0232
1.23962
26.2273
26.6397
12.216
25.5522
23.1031
26.2368
16.9001
26.6648
9.17757
24.0026
17.2206
12.5818
26.9558
26.4642
26.81
23.5694
3.83475
22.9479
25.1306
27.2631
22.1062
20.3678
18.2666
24.5214
28.566
25.7715
27.0335
24.6746
22.0117
14.7874
10.0221
1.21472
21.4357
24.4317
28.2457
27.7136
1.3957
20.8238
26.7586
28.2114
19.0528
10.1639
27.493
28.2496
1.21472
16.5336
26.5744
28.0393
22.6463
15.6024
11.4925
28.5202
28.6097
28.6492
27.325
27.391
11.9233
28.3326
18.3733
28.8965
26.2087
24.4066
10.1157
17.2019
28.3767
1.27488
3.53446
28.0927
15.3509
1.21473
24.3087
29.1041
1.21473
28.5151
25.0179
1.21473
29.3152
20.0151
29.5894
29.856
29.8574
29.4961
27.5301
29.2267
26.9128
28.0563
29.7145
28.0563
16.1662
27.1336
29.739
25.6879
15.5735
1.21473
1.21473
28.5028
29.6549
26.9526
27.8003
30.538
30.4928
1.21474
29.7437
20.6487
30.634
28.3906
30.6441
27.2565
1.21473
23.5439
27.253
28.9675
17.7877
3.85075
25.4346
30.3802
31.0348
30.952
31.3463
26.5343
1.23462
20.3865
29.3024
29.8961
18.6417
31.4312
25.5553
1.21545
29.3911
1.21474
11.201
23.3994
16.9332
17.6275
19.66
30.7154
32.2826
30.1619
24.0448
26.957
16.3513
18.7766
1.21474
32.7212
1.21474
)


// ************************************************************************* //
