/*--------------------------------*- C++ -*----------------------------------*\
  =========                 |
  \\      /  F ield         | OpenFOAM: The Open Source CFD Toolbox
   \\    /   O peration     | Website:  https://openfoam.org
    \\  /    A nd           | Version:  7
     \\/     M anipulation  |
\*---------------------------------------------------------------------------*/
FoamFile
{
    version     2.0;
    format      ascii;
    class       scalarField;
    location    "0.7/lagrangian/reactingCloud1";
    object      T;
}
// * * * * * * * * * * * * * * * * * * * * * * * * * * * * * * * * * * * * * //


2563
(
590.945
590.868
590.585
590.186
590.199
589.946
589.119
588.708
589.115
589.006
589.104
589.031
588.864
588.701
588.749
589.023
588.389
588.782
588.213
588.084
588.129
588.258
588.507
588.391
588.255
588.276
588.374
588.368
588.506
588.357
588.455
588.432
588.385
588.438
588.409
588.466
588.429
588.425
588.745
588.44
588.439
588.439
597.511
590.472
596.743
594.676
590.602
590.288
589.618
594.854
591.511
591.202
595.241
592.194
592.87
591.276
592.053
592.441
594.82
592.675
593.483
592.566
594.233
593.005
593.416
594.645
592.327
593.912
594.669
593.938
594.673
593.221
593.634
594.222
593.598
596.271
593.884
596.185
598.229
594.929
592.939
593.062
593.816
593.376
593.4
593.549
593.147
593.701
592.975
595.199
593.558
593.932
593.86
593.497
594.255
595.903
592.972
592.169
591.919
592.031
592.379
592.191
592.191
591.258
591.41
592.004
551.913
553.886
553.509
556.348
559.754
559.592
562.214
565.036
572.548
575.371
578.147
578.06
579.137
584.121
584.343
587.427
582.576
584
584.783
590.414
588.53
585.281
589.899
588.548
588.499
314.907
526.768
499.187
530.36
533.073
535.05
544.964
550.545
414.834
506.593
471.979
508.199
508.401
508.578
508.582
509.186
507.227
510.806
511.224
512.154
512.479
512.727
513.659
514.266
514.735
517.137
520.681
506.599
506.484
398.076
506.861
506.471
505.805
506.759
506.995
507.1
483.529
500.406
507.311
507.31
506.976
505.965
506.985
446.433
507.037
431.089
505.568
505.106
505.721
293.768
505.387
292.571
505.289
505.265
503.54
505.333
425.232
505.448
505.334
499.401
489.094
505.641
505.638
453.589
505.832
505.86
505.637
505.774
396.466
505.661
489.471
505.648
462.808
499.609
500.606
506.121
505.952
506.529
506.445
506.43
506.381
506.609
504.591
504.584
504.754
504.729
504.917
505.028
504.782
504.665
504.599
504.718
504.898
504.591
504.898
228.613
378.231
451.631
504.736
504.703
504.657
504.624
504.654
432.496
502.05
228.101
452.193
469.36
482.834
504.851
504.804
504.828
504.845
504.716
232.499
504.907
504.924
493.648
466.171
504.896
505.075
411.952
505.011
485.617
505.028
228.575
505.056
504.888
505.001
505.194
457.312
505.249
374.746
440.082
504.454
504.472
504.52
504.48
504.452
504.46
504.502
504.52
504.535
504.52
504.525
504.45
504.457
504.565
504.525
504.457
504.541
504.458
504.455
504.565
504.487
504.454
504.477
504.547
504.451
504.48
504.458
504.552
504.457
504.498
504.451
504.464
504.525
232.181
245.627
348.734
277.236
473.221
503.896
480.872
504.5
504.435
281.212
488.005
474.075
504.51
371.003
358.721
262.777
477.756
504.241
234.102
504.042
359.526
359.931
345.948
445.335
504.542
420.208
504.021
460.327
504.555
504.167
503.443
468.916
498.231
487.089
452.084
504.212
504.506
504.212
504.556
473.701
319.006
504.614
457.789
479.572
495.84
411.245
504.664
504.664
504.537
504.638
504.672
382.489
421.441
319.022
405.977
504.661
503.514
504.724
504.611
504.728
504.682
504.448
504.445
504.446
504.447
504.446
504.447
504.445
504.446
504.445
504.445
504.447
504.447
504.447
504.445
504.445
504.444
504.445
504.446
504.444
504.446
504.446
504.444
504.444
504.447
504.445
504.445
504.444
504.446
504.446
504.446
504.446
504.446
504.446
504.446
504.447
504.446
504.444
504.447
504.446
504.445
504.446
504.444
504.445
504.444
504.446
504.445
504.446
504.445
504.445
504.445
504.444
504.445
504.447
504.444
504.444
504.445
504.445
504.447
504.444
504.446
504.446
504.444
504.446
504.444
504.444
504.445
249.053
365.291
398.002
429.517
318.86
342.294
448.735
504.376
493.328
504.446
432.351
504.368
452.935
504.36
349.295
504.409
504.446
504.439
484.432
441.99
504.442
459.701
297.135
501.715
366.927
504.432
382.06
461.712
504.331
503.817
245.927
504.444
423.26
378.777
379.372
496.379
353.405
504.447
405.356
297.135
502.469
503.897
492.964
504.387
504.345
503.81
419.301
236.37
504.444
235.167
504.19
453.199
503.582
418.478
444.858
504.456
482.938
386.306
447.118
419.417
503.694
369.743
504.472
475.892
456.129
416.57
429.077
503.398
457.351
371.359
502.995
479.646
504.061
504.442
504.409
504.156
504.272
504.312
504.403
504.419
504.221
504.433
504.387
504.414
504.438
504.116
504.445
504.441
504.293
504.424
504.44
504.419
504.248
504.409
504.368
504.248
504.443
504.248
504.156
504.431
504.221
504.356
504.409
504.248
504.378
504.431
504.343
504.312
504.445
504.446
504.443
504.312
504.272
504.19
504.19
504.116
504.403
504.419
504.441
504.395
504.156
504.446
504.356
504.356
504.403
504.328
504.395
504.356
504.436
504.436
504.312
504.312
504.378
504.433
504.072
504.293
504.387
504.343
504.221
504.424
504.072
504.424
504.433
504.419
504.443
504.356
504.387
504.441
504.072
504.395
504.444
504.19
504.378
504.395
504.221
504.441
504.272
504.022
504.424
504.403
504.248
504.248
504.328
504.44
504.156
504.248
504.446
504.272
504.436
504.431
504.356
504.395
504.312
504.444
504.328
504.221
218.876
224.46
504.431
406.783
406.783
498.879
498.879
470.648
485.612
455.441
271.906
487.737
428.878
413.753
381.86
453.929
500.147
396.318
370.443
258.734
267.482
343.585
504.446
429.352
415.038
291.372
502.757
253.633
504.438
460.815
318.936
400.335
483.122
315.525
384.352
489.416
475.644
504.36
453.288
503.632
308.942
494.076
503.934
252.037
504.277
238.214
431.606
504.409
483.528
504.405
404.483
504.003
253.38
235.7
495.498
410.623
252.005
498.4
428.002
440.898
488.548
267.331
311.577
465.168
504.3
409.727
475.464
458.922
491.012
500.845
492.812
409.452
504.427
359.468
401.092
501.705
471.376
503.532
414.999
442.94
428.635
466.854
419.451
414.999
503.066
500.005
410.651
495.326
406.412
447.783
447.783
498.782
410.651
495.326
471.376
438.121
442.94
406.412
433.347
442.94
457.44
483.656
493.012
500.005
457.44
466.854
433.347
423.999
502.723
406.412
502.28
428.635
493.012
419.451
462.195
447.783
438.121
497.238
475.716
471.376
462.195
423.999
503.066
466.854
406.412
483.656
419.451
414.999
502.723
487.156
471.376
502.28
503.066
447.783
447.783
503.066
498.782
406.412
406.412
501.705
497.238
493.012
471.376
410.651
503.795
490.285
501.705
502.28
452.625
452.625
466.854
503.335
493.012
442.94
497.238
479.826
475.716
500.962
479.826
471.376
433.347
442.94
490.285
442.94
483.656
475.716
500.005
503.335
423.999
466.854
442.94
503.795
447.783
462.195
414.999
503.68
502.723
419.451
483.656
498.782
502.28
410.651
498.782
498.782
471.376
503.335
428.635
442.94
503.066
497.238
502.28
406.412
466.854
471.376
503.68
497.238
500.962
447.783
495.326
487.156
462.195
493.012
502.723
466.854
457.44
475.716
503.532
471.376
490.285
500.962
503.066
442.94
457.44
406.412
471.376
490.285
503.887
462.195
452.625
442.94
495.326
471.376
503.335
428.635
419.451
442.94
466.854
438.121
438.121
406.412
466.854
490.285
466.854
414.999
428.635
497.238
503.335
457.44
503.532
502.28
495.326
466.854
442.94
442.94
503.795
503.532
414.999
475.716
428.635
503.335
442.94
462.195
497.238
503.887
428.635
502.28
503.066
414.999
447.783
490.285
442.94
428.635
433.347
433.347
503.887
495.326
498.782
475.716
501.705
503.68
423.999
447.783
423.999
503.887
428.635
500.962
457.44
414.999
495.326
495.326
493.012
475.716
500.005
433.347
502.28
462.195
452.625
503.066
490.285
462.195
462.195
229.405
497.238
228.263
319.434
254.631
308.485
251.805
220.744
231.068
227.875
329.607
244.731
346.623
361.312
414.999
267.692
332.686
343.121
396.85
408.124
258.108
403.931
341.322
322.463
230.797
223.351
388.823
268.463
396.017
363.174
301.867
298.594
323.418
417.148
315.136
270.295
416.718
335.485
329.079
386.409
416.327
412.968
338.916
272.482
410.901
380.266
452.625
432.861
385.282
378.869
261.53
226.978
277.867
343.665
282.383
417.181
448.058
365.421
397.619
368.816
439.128
462.195
420.056
275.986
470.954
426.255
332.229
503.887
349.74
364.684
274.349
292.787
394.833
334.03
465.196
495.326
244.67
280.236
389.119
503.532
353.644
244.74
477.223
414.575
364.63
480.513
429.018
500.005
311.286
335.861
485.982
388.787
273.085
367.793
499.713
446.661
492.774
411.429
279.188
480.954
258.889
293.256
355.216
455.296
269.214
473.285
370.749
461.361
256.625
219.03
483.194
326.578
445.634
453.265
481.986
503.335
340.646
266.452
257.044
459.075
365.918
324.773
447.675
219.75
219.99
348.712
499.044
224.637
433.326
275.986
421.415
228.012
386.94
358.85
351.212
394.38
390.602
402.286
373.415
320.886
330.535
318.029
327.124
332.321
318.029
376.632
398.275
358.85
344.296
348.83
348.83
386.94
342.137
334.162
346.526
338.023
323.913
330.535
323.913
394.38
386.94
390.602
336.062
364.385
376.632
356.219
346.526
334.162
338.023
338.023
346.526
332.321
348.83
340.047
364.385
338.023
319.437
394.38
390.602
344.296
328.804
379.957
322.377
367.295
402.286
398.275
336.062
338.023
327.124
386.94
394.38
356.219
379.957
373.415
332.321
398.275
383.392
379.957
398.275
340.047
383.392
398.275
318.029
394.38
332.321
323.913
376.632
358.85
348.83
376.632
361.571
367.295
342.137
383.392
364.385
356.219
376.632
356.219
358.85
328.804
316.66
319.437
356.219
334.162
316.66
316.66
356.219
334.162
379.957
356.219
346.526
340.047
319.437
323.913
334.162
383.392
323.913
364.385
367.295
383.392
340.047
318.029
319.437
348.83
325.495
322.377
358.85
316.66
402.286
319.437
398.275
398.275
370.304
346.526
353.674
379.957
356.219
398.275
344.296
348.83
358.85
376.632
390.602
342.137
358.85
327.124
361.571
402.286
394.38
330.535
327.124
322.377
373.415
348.83
376.632
358.85
373.415
342.137
325.495
334.162
346.526
330.535
340.047
373.415
394.38
340.047
364.385
348.83
376.632
373.415
386.94
383.392
320.886
390.602
338.023
340.047
398.275
386.94
330.535
358.85
330.535
342.137
356.219
340.047
346.526
348.83
379.957
367.295
383.392
390.602
338.023
342.137
325.495
328.804
356.219
344.296
334.162
370.304
390.602
351.212
353.674
320.886
370.304
373.415
332.321
327.124
320.886
338.023
322.377
367.295
319.437
328.804
356.219
364.385
320.886
353.674
351.212
390.602
367.295
338.023
328.804
316.66
319.437
361.571
367.295
358.85
325.495
370.304
327.124
330.535
364.385
367.295
386.94
316.66
327.124
320.886
370.304
364.385
342.137
373.415
322.64
323.913
358.85
320.886
351.212
361.571
344.296
322.377
390.602
358.85
338.023
383.392
334.162
390.602
322.377
340.047
361.571
325.495
330.535
373.415
342.137
379.957
342.137
319.437
271.635
248.266
227.129
251.411
394.38
298.655
264.406
256.477
319.437
317.161
293.573
364.385
272.999
314.864
306.664
311.528
286.474
288.328
302.26
310.166
283.631
292.29
303.977
307.634
352.811
291.752
304.082
316.924
323.632
321.971
255.448
323.88
298.255
270.023
320.164
322.402
321.728
240.492
255.068
292.545
264.805
356.219
311.95
402.286
370.304
324.458
325.98
272.581
299.121
310.433
315.586
279.323
254.842
394.38
334.056
263.204
340.047
222.91
275.682
308.934
231.913
220.629
238.995
308.333
370.304
339.403
348.83
334.082
297.062
332.037
279.694
327.758
306.774
313.239
348.778
353.506
333.632
352.466
352.066
277.024
342.643
251.026
386.94
253.016
308.987
299.077
279.327
345.58
360.145
294.273
314.523
344.715
326.775
363.179
370.304
307.139
245.886
367.225
335.434
386.94
344.564
360.169
306.196
344.749
339.973
379.375
326.757
320.386
362.274
374.732
372.687
348.233
381.21
383.296
346.46
261.681
340.802
349.966
362.725
246.364
359.332
338.5
387.652
238.853
383.693
294.871
296.497
308.065
299.08
294.871
303.821
291.104
296.497
296.497
286.371
312.776
289.696
291.104
304.842
300.907
290.394
292.564
294.086
287.671
312.776
306.963
314.035
294.086
302.826
296.497
287.016
310.358
306.963
289.01
295.675
292.564
288.335
304.842
291.104
294.086
285.105
305.889
288.335
306.963
294.086
288.335
285.105
297.338
289.01
315.329
289.01
304.842
299.08
309.196
294.871
301.855
292.564
315.329
291.104
306.963
301.855
295.675
315.329
302.826
303.821
287.016
300.907
311.55
298.199
290.394
302.826
301.855
287.016
304.842
304.842
309.196
315.329
308.065
292.564
294.871
306.963
295.675
285.105
302.826
299.08
315.329
296.497
286.371
304.842
299.08
303.821
305.889
305.889
285.734
288.335
312.776
293.317
287.671
297.338
299.983
303.821
297.338
306.963
302.826
315.329
312.776
285.734
306.963
289.696
285.734
291.104
296.497
296.497
285.734
299.08
299.983
292.564
306.963
285.105
285.105
303.821
306.963
312.776
288.335
291.104
314.035
315.329
297.338
295.675
285.734
289.696
291.104
309.196
302.826
294.086
285.734
309.196
310.358
306.963
303.821
299.08
286.371
302.826
299.983
293.317
301.855
299.08
305.889
296.497
289.01
294.086
297.338
301.855
286.371
289.696
304.842
312.776
285.734
291.827
304.842
297.338
297.338
310.358
312.776
301.855
300.907
299.983
303.821
291.104
303.821
309.196
306.963
295.675
315.329
306.963
289.01
299.08
295.675
300.907
308.065
285.105
295.675
285.734
302.826
219.536
219.141
219.669
239.997
287.671
225.295
222.466
243.108
258.731
242.126
229.402
254.641
222.641
263.592
282.111
219.52
284.934
285.726
277.347
267.765
284.141
286.77
286.096
287.536
302.826
272.947
283.422
314.035
282.491
219.399
275.725
285.051
263.885
222.887
288.938
288.523
223.815
285.639
270.553
233.457
246.452
231.327
291.827
263.669
266.155
285.2
283.521
280.259
255.266
264.458
289.828
290.806
229.469
275.314
286.165
291.953
240.839
271.636
291.463
293.441
232.708
287.662
296.149
295.664
296.311
295.372
295.619
269.363
219.977
219.19
293.944
263.884
285.961
299.08
297.878
298.188
299.97
298.701
295.95
221.144
290.655
237.908
298.528
267.873
283.507
252.642
286.613
288.141
234.391
262.257
279.492
301.768
294.594
244.958
225.659
268.99
298.069
284.419
274.703
298.159
247.649
315.329
270.344
303.673
266.757
303.673
309.196
219.345
284.856
251.381
309.297
295.003
268.395
307.749
276.351
280.375
289.01
313.821
307.452
229.335
260.634
288.841
299.136
264.966
308.511
312.692
283.869
276.911
279.161
272.548
279.161
272.548
265.722
280.889
276.911
283.261
273.624
276.911
284.483
272.012
283.869
273.624
278.029
277.468
273.085
281.474
277.468
269.89
276.357
266.236
266.236
269.363
275.805
280.308
272.548
265.722
280.308
280.889
273.085
276.911
274.71
269.89
276.911
268.838
282.66
276.911
275.256
278.029
283.869
282.064
272.012
270.417
265.722
280.308
279.161
281.474
277.468
265.722
284.483
283.261
277.468
267.272
278.029
284.483
273.624
280.889
271.479
276.357
280.889
274.166
282.66
267.272
280.889
280.889
272.548
269.363
281.474
271.479
273.624
266.754
276.357
281.474
280.308
266.754
280.308
270.947
281.474
282.064
283.261
270.947
275.805
269.89
279.733
272.548
265.722
268.314
283.869
267.793
274.71
273.624
282.064
273.085
281.474
275.256
274.71
283.869
269.363
272.548
278.029
279.161
271.479
274.166
275.256
267.272
278.029
266.236
271.479
278.029
272.012
271.479
266.754
282.064
275.805
265.143
270.947
272.548
276.357
271.479
278.593
275.256
281.474
267.793
270.947
272.548
268.314
269.89
272.012
282.064
270.417
280.308
284.483
283.261
284.483
275.805
266.475
219.053
283.869
219.083
219.224
272.548
284.483
222.528
221.105
269.89
224.742
282.064
236.682
219.197
246.601
249.455
248.405
254.298
270.417
254.298
254.506
266.236
265.457
257.931
228.492
265.651
265.719
254.373
242.432
263.925
278.029
246.599
251.857
256.404
235.189
256.182
235.829
244.885
262.457
226.949
255.527
267.281
276.357
265.998
246.575
219.081
267.254
253.805
229.406
238.696
250.554
267.249
268.779
278.593
244.827
268.815
219.103
269.363
219.148
269.179
225.783
267.257
268.051
283.261
219.198
250.154
232.643
219.382
239.395
249.459
269.604
267.791
219.085
269.966
265.301
248.463
276.357
276.357
266.809
262.417
251.319
226.014
270.027
264.822
271.466
284.483
268.094
263.918
245.826
233.751
277.468
254.126
272.816
269.029
276.357
234.464
272.763
262.11
271.056
255.896
274.059
232.465
264.21
271.535
256.66
268.75
268.75
272.895
257.139
268.75
220.597
274.61
278.029
255.476
237.217
267.747
255.325
267.005
282.064
267.727
273.9
262.991
266.39
245.141
271.109
240.998
275.583
274.432
274.609
275.196
253.767
273.679
219.112
263.508
267.388
261.467
277.901
268.246
278.418
228.474
237.07
239.362
274.826
277.747
279.065
266.472
255.557
263.815
278.369
279.221
278.096
276.198
262.118
246.427
266.145
278.003
278.172
275.836
276.304
275.099
281.454
280.631
278.501
282.058
255.894
249.164
281.913
279.767
281.913
242.456
242.494
278.233
282.467
219.469
259.079
283.753
282.818
283.792
259.224
219.131
221.097
264.126
269.982
284.461
242.328
232.059
282.327
284.483
281.56
248.703
255.286
261.653
263.674
249.625
253.413
252.014
251.063
252.461
250.129
251.063
258.672
252.964
260.148
260.652
249.625
256.234
255.772
258.672
251.063
260.148
251.504
258.171
260.148
248.354
251.504
248.354
248.703
259.659
264.182
252.964
262.152
258.672
255.286
256.234
248.354
256.725
260.148
262.152
249.625
261.653
264.182
261.653
265.206
253.413
257.196
252.014
252.964
259.659
260.652
261.147
249.22
258.672
262.66
257.196
258.171
260.652
255.286
259.157
251.504
261.653
249.22
254.835
254.35
251.504
251.504
254.835
249.625
258.672
262.66
250.129
248.703
255.286
257.196
263.164
253.413
259.157
264.182
257.196
251.504
251.504
249.625
260.148
252.014
261.653
253.904
250.129
253.413
262.152
254.35
262.66
260.148
256.234
256.234
261.653
262.152
254.835
262.66
256.234
249.22
259.157
261.653
256.234
256.725
254.35
255.772
249.625
261.653
252.461
248.703
251.063
250.548
254.35
261.147
253.413
261.653
256.725
252.461
258.171
251.063
263.674
251.504
251.063
260.652
262.152
258.672
263.164
265.206
248.354
252.461
219.104
219.059
219.029
260.148
249.625
249.22
256.725
219.114
230.598
259.659
251.504
248.354
263.164
219.033
219.042
219.038
256.234
249.22
238.73
253.904
240.472
219.012
242.894
248.313
243.99
239.611
220.922
239.419
237.574
246.29
234.211
246.172
219.023
247.928
243.083
247.897
219.695
228.256
235.181
248.068
238.22
249.186
219.56
229.694
238.339
249.035
236.03
245.495
219.071
248.597
247.31
247.47
242.814
219.259
258.672
226.831
246.518
248.2
248.698
252.461
258.672
232.824
246.597
247.768
249.569
231.592
243.973
230.539
219.288
249.388
219.202
219.93
237.829
232.6
232.105
219.053
219.039
241.953
238.979
247.073
219.047
249.434
226.071
251.024
232.095
235.512
258.672
233.779
242.317
219.098
250.011
222.662
248.059
250.548
250.083
243.356
241.691
249.851
241.275
247.197
259.157
219.28
250.547
224.441
230.475
250.548
250.388
249.085
250.048
222.524
245.371
248.939
251.042
233.338
235.314
247.616
250.506
219.062
260.652
241.921
243.947
250.063
251.504
230.928
219.239
247.425
219.043
249.239
219.146
233.097
251.504
219.087
250.709
251.378
250.587
237.368
244.339
232.582
256.234
251.5
246.323
219.052
257.196
246.434
228.052
248.422
228.626
249.825
219.1
219.068
242.101
250.79
246.205
237.317
245.955
220.499
222.131
246.258
245.307
251.56
250.47
223.788
231.072
252.724
252.494
252.776
246.489
240.907
243.248
251.759
243.976
219.17
219.135
249.677
250.843
219.297
249.329
233.528
251.759
249.225
221.05
252.941
245.827
248.691
254.35
253.073
229.02
233.828
219.224
221.72
219.146
259.659
219.052
251.675
233.26
253.677
253.903
250.41
220.863
243.796
254.34
228.586
252.636
254.143
252.681
250.752
258.171
252.378
254.754
254.258
219.056
253.401
220.687
219.072
219.099
254.013
252.108
246.504
245.781
255.065
246.072
255.118
252.055
245.85
234.248
233.709
237.524
221.001
241.322
255.293
254.545
249.398
219.079
219.307
255.667
251.837
255.482
219.125
219.094
255.753
258.569
256.634
219.094
251.83
247.497
249.973
255.018
219.375
219.296
252.414
252.662
256.045
235.489
251.143
219.372
257.058
257.615
232.662
255.835
251.285
256.888
240.391
257.66
227.846
252.709
241.025
233.214
257.97
257.089
257.709
252.113
220.719
250.849
254.71
258.324
249.238
246.341
242.628
253.628
259.608
255.673
257.707
253.735
249.073
236.716
229.09
219.125
247.937
252.976
259.652
258.911
219.341
246.885
257.036
259.591
243.759
229.249
258.325
259.659
219.073
239.455
256.523
259.079
249.89
237.922
231.274
259.922
260.079
260.148
257.649
257.764
231.949
259.4
242.425
260.383
255.718
252.619
229.147
240.484
259.477
219.392
220.38
258.982
237.446
219.1
252.451
260.541
219.057
259.52
253.365
219.052
260.907
245.063
261.19
261.651
261.653
261.029
257.819
260.564
256.592
258.374
261.406
258.374
238.643
256.803
261.253
254.352
237.683
219.073
219.117
259.136
261.109
256.496
257.777
262.436
262.359
219.052
261.08
245.827
262.6
258.778
262.618
256.704
219.158
250.509
256.851
259.586
241.08
220.673
253.654
261.805
262.91
262.77
263.437
255.493
219.429
245.308
259.828
260.821
242.398
263.396
253.73
219.392
259.976
219.197
230.644
250.06
239.598
240.707
243.975
262.027
264.647
261.105
251.119
255.924
238.629
242.492
219.254
265.196
219.225
)


// ************************************************************************* //
