/*--------------------------------*- C++ -*----------------------------------*\
  =========                 |
  \\      /  F ield         | OpenFOAM: The Open Source CFD Toolbox
   \\    /   O peration     | Website:  https://openfoam.org
    \\  /    A nd           | Version:  7
     \\/     M anipulation  |
\*---------------------------------------------------------------------------*/
FoamFile
{
    version     2.0;
    format      ascii;
    class       scalarField;
    location    "0.7/lagrangian/reactingCloud1";
    object      tTurb;
}
// * * * * * * * * * * * * * * * * * * * * * * * * * * * * * * * * * * * * * //


2563
(
0.004115
0.00401
0.003905
0.0038
0.003695
0.00359
0.003485
0.00338
0.003275
0.00317
0.003065
0.00296
0.002855
0.00275
0.002645
0.00254
0.0008005
0.00233
0.002225
0.00212
0.002015
0.00191
0.001805
0.0017
0.001595
0.00149
0.001385
0.00128
0.001175
0.00107
0.00106625
0.000965
0.00086
0.000755
0.00065
0.000545
0.00044
0.000335
0.00023
0.00022625
0.000125
2e-05
0.0002435
0.0034
0.0017255
0.0007405
0.010315
0.01021
0.01
0.001375
0.0098
0.0097
0.00084
0.0095
0.0094
0.0093
0.0092
0.0091
0.002002
0.0089
0.0088
0.0086
0.0085
0.0084
0.0083
0.0002385
0.0082
0.008
3.85e-05
0.0078
0.00215111
0.0076
0.0075
0.0074
0.0073
0.0006685
0.007
0.001507
0.000967
0.0018105
0.0069
0.0067
0.0066
0.0065
0.0064
0.0063
0.0061
0.006
0.0059
0.00173005
0.00569
0.00100632
0.00548
0.005375
0.000690294
0.000285
0.00506
0.005165
0.004955
0.00485
0.004745
0.00464
0.004535
0.00443
0.004325
0.00422
0.00064
0.012205
0.00012
0.0122012
0.011995
0.00159085
0.0121
0.01189
0.0116762
0.011785
0.0115712
0.01147
0.011575
0.0034885
0.0030285
0.00194
0.011365
0.010945
0.01063
0.0008535
0.000663561
0.010525
0.00151017
0.01084
0.010105
0.000497
0.00158599
0.00120554
0.00131017
0.001205
0.00106759
0.00101342
0.001427
0.00125
0.0033
0.00196099
0.014725
0.01483
0.00285824
0.003175
0.01462
0.0045155
0.0021735
0.0142
0.00223663
0.00268077
0.01399
0.013885
0.001945
0.0035
0.013675
0.013465
0.01708
0.01698
0.0012205
0.0043735
0.004802
0.00443258
0.01608
0.01618
0.0035005
0.000387
0.000155
0.00804
0.0035735
0.015565
0.00414
0.01546
0.00115628
0.015145
0.0014055
0.000230438
0.000889408
0.000172386
0.003437
0.00811149
0.000622
0.0095935
0.01948
0.00777621
0.01938
0.002545
0.0126055
0.0075277
0.0003106
0.00257686
0.00252708
0.000312
0.003325
0.00665
0.00700592
0.006202
0.01858
0.00182
0.01828
0.001
0.01808
0.0007885
8.04207e-05
4.03502e-05
0.01778
0.01748
0.005435
0.00603067
0.01728
0.01718
0.005435
0.00040129
0.000424177
0.000701494
0.00127554
3.27532e-05
0.00371464
0.000961566
0.000215996
0.00195544
0.00328296
0.000338474
0.000398594
0.000315872
0.012322
0.0049205
0.0052105
0.02397
0.023865
0.023655
0.02355
0.023445
0.0052255
0.0111585
0.010207
0.00444
0.003815
0.0019805
0.010312
0.02271
0.0026735
0.02229
0.017812
0.0096855
0.0102135
0.0097735
0.000462587
0.0009005
0.02124
0.00013
0.003117
0.020925
0.0027705
0.0208162
0.0097935
0.02082
0.020505
0.007695
0.007147
0.0029305
0.008022
0.0035805
0.0034935
0.000993678
0.000398517
0.000135453
0.00210436
0.000217837
0.00173759
0.000458416
0.000208561
0.000957979
0.00010209
0.000875141
0.00555599
0.00123363
0.00113096
0.000554846
0.00333568
0.00103864
0.000687787
0.000186163
0.000116554
0.000521914
0.000983459
0.000926161
0.000678019
0.000290708
0.000430797
4.83925e-06
0.00176033
0.00184783
0.000539514
0.000559622
0.000465214
0.00045612
0.0029185
0.0105805
0.00511
0.0072205
0.005945
0.01777
0.0022255
0.0014605
0.00242
0.0055435
0.00373306
0.0071905
0.02856
0.000975
0.0004955
0.0098305
0.00550348
0.0083485
0.0097405
0.0063905
0.006512
0.004057
0.0062985
0.003777
0.02776
0.000355
0.009917
0.003175
0.00032
0.0096835
0.0084155
0.0027785
0.0092835
0.0072685
0.0029755
0.0095685
0.02636
0.00408
0.0135455
0.002485
0.0060885
0.0007535
0.0024935
0.0027155
0.00205062
0.003722
0.0063855
0.00345573
0.02481
0.02502
0.013505
0.005072
0.0045585
0.0063485
0.0010735
0.024705
0.01299
0.0018035
0.009457
0.0124263
0.003788
0.000805588
0.000203881
0.00084769
0.00250928
5.54064e-05
0.00296102
0.00209641
0.000395881
0.000633105
0.00332756
0.000103692
0.0008152
0.00075712
0.00170536
0.00044594
0.000286934
1.40688e-150
0.000617886
0.00214162
0.00047856
0.010921
0.00313163
5.11475e-21
2.76317e-05
0.000876198
0.00722531
0.00150863
0.000113729
4.45527e-05
0.000544444
0.00041865
0.00114759
7.10902e-05
0.00134815
0.00103376
0.00141475
0.00553676
0.00358823
0.000374451
0.00189082
0.000749318
0.00894537
0.000324345
0.000490874
6.78654e-151
0.0137966
8.54222e-151
0.000519002
3.6029e-05
0.000964071
6.06663e-150
0.000524071
0.00018926
0.000109825
0.000512651
0.000226179
0.000126506
0.00170035
3.48509e-150
0.000497756
0.00066414
0.00610768
8.34476e-152
7.00817e-05
0.000125683
8.24954e-05
0.0042305
0.0074185
0.0010735
0.008197
0.0102785
0.0087605
0.00841
0.003902
0.009905
0.00088
0.001192
0.0041855
0.00423
0.0093085
0.0042155
0.0320555
0.011752
0.0030555
0.005097
0.00624
0.02002
0.004145
0.006007
0.0072005
0.0015035
0.0023055
0.0012185
0.00964
0.0303125
0.0061505
0.01169
0.000631534
0.00804813
0.008477
0.0094
0.012932
0.0068805
0.0002935
0.009082
0.007177
0.0059305
0.004787
0.00489599
0.0152855
0.0191455
0.02092
0.0059305
0.0104635
0.0256173
0.007242
0.0043655
0.0086985
0.0046535
0.0052985
0.000317
0.0021885
0.0095555
0.0042385
0.00810587
0.001747
0.0057085
0.0060785
0.0187315
0.0036135
0.007952
0.0080105
0.0006385
0.0137839
0.00725635
0.0085885
0.0069355
0.00406
0.0061385
0.0065235
0.000228843
0.000561099
0.000621022
0.00149019
0.000498997
0.000980684
0.0018451
0.000249042
0.00669722
0.000203814
0.00468175
0.00010923
0.00088506
0.00403568
1.28732e-150
0.00352063
1.93349e-150
0.00392304
0.000401177
0.00129765
0.00311795
0.00124633
6.87002e-150
0.000924489
0.00169128
0.0019447
0.00403498
1.84125e-150
7.91069e-05
0.00028217
0.000131982
0.000458691
0.000711107
0.000227902
0.000543026
0.000537961
0.0017433
0.00112168
0.000438268
0.00166071
0.00024579
1.71762e-150
0.00281789
0.00136965
0.00119342
1.9383e-150
0.000136964
0.00157582
0.000474287
0.00170684
0.000803684
0.00128796
0.000391732
0.000705793
0.000203307
0.000940031
6.87337e-151
0.000119514
0.00104037
0.000756713
0.000101823
0.000383743
0.000179993
0.000607215
0.0111999
0.00046895
0.000400836
5.84341e-06
0.000359276
0.000693724
0.00109949
4.88669e-151
0.00274828
0.00123562
0.000323631
0.0078749
0.000922392
0.000298751
0.0010968
0.000342851
0.000565024
5.64042e-05
0.00371345
0.000602149
0.000828821
0.000688769
0.0076275
4.08878e-151
0.000153928
3.15192e-05
0.00283139
0.00262645
7.40961e-05
0.00052286
0.000656593
0.00322863
0.00327723
0.00205976
0.000132108
0.00143607
0.000283011
0.000274805
0.015642
0.011122
0.000195205
0.0051085
0.0057205
0.0209252
0.002255
0.0037185
0.0135685
0.0096505
0.0033185
0.0150805
0.0124705
0.011007
0.0061355
0.0120405
0.010297
0.00405
0.0045
0.005682
0.000567
0.0097055
0.00112459
0.0098385
0.0053035
0.0083255
0.011107
0.007342
0.00250473
0.002872
0.0125501
0.0078805
0.00334847
0.00967514
0.001007
0.0073405
0.012457
0.0072255
0.008102
0.0078835
0.0129205
0.011397
0.00523697
0.00733
0.0066055
0.0144201
0.0035385
0.00237244
0.00424273
0.0173735
0.0035235
0.020487
0.0115569
0.0108085
0.0144676
0.008917
0.0035785
0.00789298
0.0057305
0.0060285
0.00872988
0.001292
0.0120185
0.003687
0.0186935
4.55e-05
0.01004
0.005952
0.0122385
0.0147874
0.0094455
0.0083985
0.0256917
0.0113735
0.007097
0.000539126
0.000973456
0.000177091
1.72937e-150
0.00416491
0.000513763
0.00431491
0.000292396
1.41006e-150
0.00142703
4.57946e-150
0.000136973
0.00140528
0.0119193
0.000274428
1.21179e-150
0.000366007
0.00185442
0.0033379
0.000691941
6.40671e-150
0.000133302
0.000266257
0.00111751
0.00262909
0.00104115
0.00373549
0.000795049
0.000541089
7.36481e-05
0.000769008
0.0115693
0.000292044
0.000105634
0.00778128
0.00420794
0.00370491
0.000540089
3.00312e-150
0.00179592
0.000343107
0.00427251
0.000957444
0.00143445
9.53222e-05
1.91393e-150
3.68175e-150
0.000230057
6.05077e-105
0.000726326
0.000115097
0.00446777
1.63654e-150
0.00123242
0.000231918
1.166e-150
1.0006e-149
0.000477303
0.000732203
1.82855e-150
0.000746657
0.0031177
0.00079463
0.00613295
0.00233764
0.00158243
0.00249591
0.000124993
0.000102065
5.69078e-150
0.000396455
0.00609059
0.000914094
4.26171e-150
0.00124579
1.3706e-150
0.000682228
0.000574304
9.48222e-05
0.00125967
0.00720265
0.00163911
0.00885262
0.000696396
0.00107615
0.00855223
0.000921427
0.000281578
2.57114e-150
0.000172431
0.000864578
0.00169913
0.000740394
0.00214759
0.00537115
0.000486571
0.000211493
0.00897867
0.000835666
0.000718803
4.49105e-05
2.22222e-150
0.000788505
0.000594514
9.10951e-05
0.000384323
0.00335477
3.32796e-06
0.00267187
6.87352e-151
0.000581799
0.000437931
2.05163e-05
1.55344e-150
0.00037507
7.59898e-05
0.000110013
0.000255373
0.00288846
0.00280863
0.00200861
0.000135639
0.000639405
0.00115931
0.00707012
6.70214e-151
0.000569933
0.000815049
0.000231272
0.000976985
0.000526304
1.61856e-150
0.000267037
0.000744921
0.00192461
0.000266193
0.00253787
0.00050038
0.00183224
0.00177298
0.00210337
0.00207885
0.00106415
0.00270707
0.00119624
0.000815449
0.00214271
0.000542563
0.00193969
6.47588e-151
0.00556738
0.00276764
5.00513e-151
6.76704e-151
0.00153039
0.00540444
0.00104325
1.39436e-150
0.00718317
0.0102448
0.000629177
0.00136412
8.61264e-151
0.000685191
0.00108368
3.86745e-151
0.000188014
4.61965e-151
0.000647291
0.00120394
0.000290641
0.000594502
4.76867e-151
0.00312748
0.00257404
0.000449406
0.00152396
0.00368645
0.000203688
0.00448206
0.00421802
0.000304496
0.00466573
0.000751523
0.000136297
0.00164304
0.000882595
0.00010802
4.82779e-125
0.00201156
0.00049057
5.07423e-44
0.00494503
0.000939888
0.000477472
0.000258904
0.00037398
0.000317965
0.00684334
2.77363e-151
0.000985554
0.00141078
0.00260124
0.000511563
1.67113e-150
0.000329839
0.00241564
3.47115e-05
3.32522e-05
0.00400104
0.000397146
0.00287588
0.000280643
0.00251521
4.27907e-151
0.00185136
0.0053035
0.00140717
0.0247828
0.0082005
0.006985
0.0123985
0.0145335
0.021772
0.0091435
0.0208355
0.007432
0.0167155
0.0148255
0.0075455
0.000173921
0.009947
0.014452
0.014982
0.005282
0.0077605
0.010197
0.015622
0.0149705
0.0146585
0.0161
0.0022135
0.0068405
0.015522
0.0103735
0.0008335
0.008167
0.0116805
0.00928
0.0051935
0.0144335
0.0052635
0.0097955
0.01125
0.007615
0.0024305
0.0097635
0.0038735
0.000137
0.0067305
0.01187
0.0100635
0.00266106
0.003372
0.0012635
0.0072405
0.0070555
0.011982
0.005292
0.0121005
0.0158405
0.0119185
0.0056435
0.0021285
0.0132035
0.012227
0.0037205
0.0104875
0.010565
0.00274
0.00359069
0.00752601
0.011797
3.56759e-151
0.0027355
0.0087385
0.010027
0.0107955
0.0121805
0.011045
0.0046355
0.000320944
0.0045505
0.0148255
0.004312
0.00041218
0.0109985
0.004495
0.0005755
0.011532
0.0036955
0.00186831
0.012357
0.0043502
0.013322
0.0142835
0.00136
0.0126205
0.0031235
0.0121435
0.002145
0.008815
0.0131005
0.006082
0.0121105
0.0123635
0.0147606
0.002635
0.0087235
0.002915
0.016525
0.001422
0.0112305
0.00632291
0.016627
0.0027585
0.000225
0.0096235
0.000935
0.004622
0.01149
0.00323
3.5e-06
0.0024435
0.011337
0.00981534
0.0107185
0.0095735
0.0019035
0.0194305
0.014515
0.0050905
0.00551754
0.003822
0.0011105
0.0094155
0.0129455
0.0016385
7.20194e-05
0.000205722
0.000434901
0.00845444
9.77074e-05
3.99871e-150
0.00923063
2.76352e-05
1.39998e-06
0.000150314
0.000403632
0.000260905
0.00254807
1.26101e-150
0.000478237
1.33009e-150
0.00164211
1.96726e-150
1.23541e-150
0.000118213
6.25252e-05
2.50402e-150
1.28189e-150
5.8337e-05
0.000163984
0.00551364
1.14967e-150
0.000547282
0.00870372
6.20728e-05
0.000191479
0.0059456
1.21401e-150
2.60195e-05
0.0147601
0.00114493
0.000484147
0.0151589
0.0116795
8.24385e-150
0.000652304
0.0207907
0.000326966
0.000238649
0.00215188
0.000382134
0.000337736
2.27946e-150
0.00177407
0.000661932
0.000779524
0.00293577
1.6627e-150
0.000562166
0.000123204
0.000914298
1.66547e-06
0.00179845
0.000144222
0.00984587
0.000703076
0.00353771
0.000200925
0.00191284
1.09894e-150
0.00993346
0.000167252
0.0182445
0.00786453
0.000201461
0.000303645
1.77011e-150
0.00689499
0.00052986
0.000966595
1.21035e-150
1.0616e-150
0.0101307
0.00356632
1.93677e-150
0.000433981
0.00757599
0.000552955
8.73097e-151
1.3309e-150
0.000221232
9.50534e-05
0.00129465
0.00213117
0.000275522
0.000178323
0.000272121
0.000272375
0.0207455
1.74747e-05
0.000149591
0.000256885
9.77362e-05
0.00466003
3.80215e-06
0.00547185
3.85232e-150
1.05026e-150
0.00952996
3.31922e-05
7.05834e-05
0.00180999
1.13178e-150
0.000271845
0.00148009
0.000763368
0.0184688
4.92672e-05
0.00314407
0.0003388
0.000373617
0.00119588
0.00814234
4.50178e-150
8.08919e-151
1.03507e-149
1.55981e-150
0.000116062
0.000284517
1.03641e-150
0.000925522
1.03952e-150
2.45485e-149
0.00315637
0.000576081
0.000196806
9.81532e-05
0.000112866
0.00110032
1.30279e-150
0.000915265
7.53761e-151
1.95956e-150
8.69452e-151
0.00045522
0.0027669
0.00759266
0.0015858
0.00315947
0.00837796
0.000520012
0.00193092
0.00060658
0.0132774
1.45247e-150
7.3542e-05
8.59408e-151
8.48849e-05
5.35664e-151
8.16036e-151
0.000890253
0.00239804
0.000912355
0.00301544
4.89853e-05
0.00935431
0.00727052
0.000292717
0.00018813
0.000325746
0.000642165
0.0125523
0.000529396
0.0209164
0.0002059
0.00380694
0.000448913
0.019323
0.0156923
0.00103819
5.71522e-06
0.00884065
0.00195756
0.000208331
0.0149243
0.00139142
0.000286913
3.60782e-151
0.00617443
0.00359384
9.24943e-05
6.16561e-151
1.30925e-150
7.62526e-05
0.0195784
0.0155878
0.0085082
0.0173066
0.000264421
0.000328877
4.44005e-151
5.4784e-151
0.000137946
0.000105619
0.00108331
4.08742e-151
0.000469253
0.00184379
0.000623905
0.00138264
0.000329831
0.000150494
0.000516557
1.78105e-151
0.0238362
0.00068038
0.00288016
8.87617e-05
0.000135408
0.0171278
0.00240242
1.91509e-151
0.000469116
0.000506458
2.05576e-151
0.000258241
0.000343972
0.000162487
0.000137054
0.00785958
0.000213266
0.00186614
1.24096e-151
0.00773079
0.00185409
9.57248e-151
1.34238e-123
0.000158999
0.000195611
0.00711593
8.48736e-113
0.00119296
0.000160026
0.000621169
0.000876581
5.85469e-152
2.1372e-66
3.70093e-05
0.000205755
0.001289
0.000208531
0.000118257
0.000305279
4.34424e-115
0.00219581
7.42333e-153
0.000715492
0.0111505
0.0253135
0.0166805
0.0086055
7.1481e-42
0.022492
0.0108785
0.0212735
0.0104968
0.0022957
0.0190105
0.000508488
0.0234805
0.024312
0.0010255
0.024257
0.0171285
0.0208906
0.022627
0.022457
0.003475
0.023147
0.014512
0.018837
0.00314093
0.0063835
0.012427
0.021227
0.0218127
0.0070121
0.020317
0.0221955
0.002557
0.007452
0.012605
0.0043935
0.0092135
0.014535
0.0198885
0.0166835
0.0229655
0.000482708
0.0017855
2.72007e-05
0.000568584
0.0126505
0.015702
6.7e-05
0.0221805
0.0008735
0.016232
0.002122
0.0167435
7.63608e-05
0.0118608
0.019952
0.019071
0.018057
0.0144755
0.0162185
0.0257335
0.021695
0.0062085
0.006227
0.00224271
0.017515
0.0136406
0.0145505
0.0103185
0.016085
0.002682
0.001372
0.0067805
0.014687
0.0194555
0.0118853
0.0089685
0.0013185
0.010947
0.0033935
0.0155657
0.012507
5.33941e-146
0.0086985
0.00923
0.0167785
0.0185185
0.016775
0.0136928
0.015772
0.018477
0.0154035
0.0004135
0.00755661
0.00240539
0.0109835
0.0220035
0.0158905
0.0093905
0.00325045
0.0005505
0.01037
0.01098
0.000787
0.001897
0.014812
0.0031805
0.0108255
0.0119585
0.005832
0.0150255
0.0126385
0.00744188
0.00811075
0.0130135
0.0064455
0.001242
0.0020905
0.0060105
0.0133155
0.0003335
0.0097485
0.014772
0.0207955
0.010557
0.0033239
0.00137985
0.000117233
4.3288e-150
0.00763007
0.00164409
0.000229461
1.14839e-150
0.00141261
0.000245551
1.80621e-149
0.00013148
3.28325e-05
0.00967791
0.00046685
1.01822e-150
0.000842928
0.001119
0.000214946
0.00023998
1.03375e-150
0.000107262
0.00026371
0.00293339
0.000426876
2.16666e-05
0.000239491
3.62718e-05
1.55156e-150
0.00653541
0.0327602
4.47727e-150
0.000137234
0.00146363
0.000864105
2.95177e-150
0.00372141
0.00520265
6.15853e-05
0.000105418
0.00386628
1.96723e-150
1.06912e-150
4.07406e-150
9.47005e-151
0.000152045
0.000783471
8.25384e-05
0.00461132
0.0291781
9.51325e-151
0.000434701
1.09949e-150
4.58939e-05
0.000806417
0.0293992
0.00452135
0.0252431
0.00476043
0.00127641
0.00908953
0.00013295
1.05362e-150
0.000246434
0.00285175
1.15746e-150
0.000149389
3.21334e-05
0.000603766
0.00186647
0.00427341
0.000405878
0.00132892
5.78589e-05
0.000895929
0.000213546
0.000170683
0.00233959
0.0245782
0.0284314
6.7402e-151
0.000802738
0.000422389
0.000763237
0.000884635
0.000504273
8.77067e-151
0.00237561
0.00183909
2.06164e-150
0.000823268
0.000314777
0.00030065
0.000468671
0.00015177
0.0222865
0.0012753
7.35633e-151
0.000134462
0.000197809
0.0101682
0.000329409
0.000607521
1.00676e-150
0.0021937
0.000239948
1.35581e-150
0.000144845
0.00330622
0.00150365
0.00380937
0.000500858
0.00102976
4.29992e-151
8.73886e-05
0.000575833
0.00264182
6.35085e-06
6.44208e-150
0.00164436
0.000294774
0.000145386
0.0245773
0.00176656
6.10356e-151
0.00464397
0.00317796
0.0112455
0.0158264
0.00018713
0.000741169
0.00302295
0.000297315
0.00121125
0.0289036
0.000721846
0.00748659
0.00117875
0.000395435
0.000592744
0.00232722
0.00338358
3.88451e-151
2.97211e-151
0.00047471
6.72512e-150
2.39609e-151
0.00175308
0.000542611
0.000165552
7.44239e-05
0.00484029
0.00015345
3.06556e-151
0.000736444
0.0101295
1.69387e-151
0.000339003
3.1373e-151
1.65581e-151
0.000408668
0.000123594
0.000330188
0.0156023
0.000108049
6.90019e-05
1.39607e-151
0.00194906
0.000742216
0.000567319
0.0255533
0.000272137
1.30324e-151
0.0276013
8.38415e-152
0.00306505
8.23928e-152
8.60077e-05
0.000157515
0.0544985
0.0469935
0.0405485
0.0273085
4.8977e-05
0.0195785
0.019812
0.0324
0.0227785
0.016232
0.0385435
0.0277419
0.014807
0.007562
0.0325385
0.032472
0.025157
0.0004055
0.0068055
0.0059505
0.0093205
0.0048835
0.0014105
0.0341935
0.000291315
0.0256335
0.0307935
1.15258e-82
0.0232105
0.0350005
0.016547
0.0261257
0.02754
0.0392105
0.034587
0.030862
0.0215705
0.020032
0.01328
0.0130205
0.0290905
0.0006755
0.0331121
0.0314305
0.0207155
0.0082555
0.0183835
0.031997
0.031857
0.0295321
0.0095255
0.029562
0.0133
0.0055555
0.0112405
0.0209885
0.0183135
0.0223112
0.015872
0.0172335
0.032532
0.0141755
0.0238735
0.004285
0.02179
0.0240227
0.0188555
0.011747
0.037617
0.043392
0.02157
0.0009885
0.024032
0.0053235
0.020602
0.025102
0.028722
0.028335
0.0277355
0.0288985
0.027132
0.0301105
0.00535
0.017592
0.0020105
0.031052
0.027537
0.021332
0.0252605
0.014567
0.0120435
0.025215
0.02614
0.0278755
0.0276555
0.027932
0.023627
0.0263331
0.022552
0.0132485
0.0187755
0.00306041
0.013412
0.022452
0.0265485
0.018852
0.0107968
0.046072
0.0191005
0.002227
0.018042
0.00598
0.0173285
0.0237535
0.025325
0.015212
0.0229705
0.018312
0.0188655
0.0212655
0.027702
0.0080435
0.0034305
0.0008485
0.02529
0.023405
0.00109943
2.4805e-150
4.13349e-05
9.91952e-05
0.000192346
0.0104888
0.000811557
8.7794e-150
0.0102011
0.000401156
0.000207214
1.71323e-150
0.00012249
0.000196422
0.000178505
1.87381e-150
5.75848e-05
0.000102908
6.05505e-05
0.00215728
5.01193e-05
0.000198901
0.00011425
0.00384307
0.000130621
0.000184229
0.000411513
0.00209285
0.00149841
0.000292842
0.00499592
0.0246114
0.000121783
0.022964
0.00125193
9.28027e-150
1.63986e-150
2.48376e-150
0.00137713
0.00465796
0.000272098
0.0089581
0.00677449
0.0167835
0.0247723
4.88837e-05
0.0203703
0.00572813
1.1466e-150
0.00035435
4.4754e-05
0.000725668
0.00394015
0.000127315
0.00387958
0.000111288
0.000210748
0.00143389
0.0209657
1.24507e-150
0.000230719
0.00084412
0.00412481
0.000321637
0.000702108
0.00583611
0.00296437
0.000543354
7.04409e-151
0.00442327
0.0010391
4.32098e-05
1.08221e-150
0.00142917
0.000484443
3.43843e-150
0.00311517
0.00121214
0.00203284
0.000525676
8.9664e-05
0.0029413
0.00030645
4.67725e-05
7.72557e-05
0.0211548
8.08475e-05
0.000337709
0.00140392
0.000125452
9.34074e-05
0.0179189
0.00226122
0.00684219
0.000193395
0.0442441
0.00267288
0.00321699
5.77599e-151
0.00116851
0.000683934
0.00125302
0.000268496
0.00826741
0.0118276
0.000243993
2.01636e-150
0.00262895
0.00162573
0.000352894
6.65352e-150
1.34161e-150
0.0227028
4.15088e-05
0.000335872
6.97559e-151
0.00199287
0.0224174
0.000974784
0.011519
0.00829372
0.00265702
0.00359522
2.42975e-65
6.28523e-151
0.000293919
0.0124263
3.04664e-151
2.31779e-151
0.000301785
0.000710698
0.00191111
0.000725413
3.49381e-151
0.00019242
0.0338778
0.00191228
5.95654e-05
0.0068756
0.0733105
0.00163422
0.090347
0.0721185
2.80011e-151
0.000547473
0.0401155
0.049537
0.00253216
0.0485455
0.000579805
0.0507385
0.051005
0.0075535
0.0434305
0.0051685
0.0256355
0.000122785
0.026965
0.01438
0.00882706
0.0518885
0.039087
0.0382935
0.00238701
0.0066835
0.025957
0.0476682
0.0498605
0.00327503
0.0079735
0.0003585
0.02755
0.0429585
0.0409405
0.0406535
0.009357
0.0213635
0.0007035
0.021237
0.0014185
3.49556e-152
0.027737
0.0085535
0.0601935
0.0385135
0.0033755
0.0203005
0.0443185
0.047387
0.0242135
0.0323962
0.0029644
0.0299035
0.0451205
0.0680485
0.0227017
0.098132
0.0395755
0.0203605
0.000567
0.0319055
0.000198141
0.0797855
0.0351685
0.0396735
0.0393267
0.019517
0.018397
0.0107335
0.0427085
0.0715585
0.0269785
0.0141885
0.01342
0.000482544
4.32083e-135
0.0435
0.006463
0.0098485
0.0432455
0.03543
0.021282
0.010127
0.00379107
0.0238005
0.0236455
0.035212
0.000257
0.0096746
0.0394821
0.043824
0.02108
6.9779e-113
0.0394385
0.006907
0.0101435
0.0050855
0.01956
0.0253655
0.0177155
0.041022
0.025617
0.038932
0.037482
0.0417205
0.0437755
0.0228335
0.0054405
0.0363303
0.0278455
9.27234e-05
0.0228235
0.0351735
0.023675
0.0332305
0.0065005
0.0382638
0.0167985
0.03813
0.01314
0.029577
0.02768
0.0221555
0.031152
0.001027
0.0044185
0.039892
0.027257
0.0380785
0.0326335
0.064082
0.0116305
0.0232456
0.0357835
0.031985
0.0346485
0.0113755
0.0115755
0.032637
0.012117
0.0160185
0.0121735
0.0401251
0.012912
0.025872
0.0195835
0.0364682
0.0088635
0.037855
0.0255248
0.0357435
0.031007
0.0269835
0.0346735
0.0354705
0.0142355
0.007495
0.006145
0.038695
0.024827
0.0035755
0.0004905
0.0029005
0.0349435
0.0139007
0.0327405
0.00632
0.030675
0.0129905
0.037155
0.0320505
0.0336805
0.018297
0.002885
0.0372255
0.037325
0.0309905
0.0581155
0.0151285
0.008462
0.024912
0.0354363
0.0161035
0.015692
0.0247485
0.0063566
0.004277
9.04143e-05
2.26713e-150
0.0144773
4.88918e-05
0.0005634
0.000105331
0.0167077
0.000504919
0.000143564
0.000226645
0.000182898
0.000881728
0.00017533
0.00987041
0.00269181
0.00199242
0.0106992
0.00112211
0.000299626
8.36746e-151
0.00429115
1.2136e-150
3.0381e-05
0.00887744
0.00071427
7.90226e-151
0.00108177
9.75613e-05
0.000101597
2.48011e-150
0.000439505
3.14733e-150
1.63724e-149
4.18252e-05
8.00039e-151
0.00444242
0.000158476
0.00604052
1.03732e-150
0.00256153
0.000392424
0.00339215
0.000158136
0.0053053
0.000489113
0.00144028
0.000153404
0.00661912
7.69433e-151
0.00155902
4.95718e-05
0.0127982
0.000146582
0.000596629
0.000777816
1.91189e-150
0.028603
5.65539e-05
9.18451e-05
1.01291e-150
1.70424e-150
4.7968e-151
0.000546715
0.0338502
0.00887514
0.0258698
3.7581e-150
0.000122545
0.000685606
0.0193944
0.0617973
0.000346248
0.00221509
0.000127752
6.05473e-151
0.0235131
0.00579178
0.00375981
0.00212684
0.00127926
0.0174303
9.98078e-05
9.13748e-151
0.000427461
0.0143885
0.0158493
0.00031127
0.00233082
0.00181374
6.90387e-151
0.000131693
8.41339e-05
0.00200103
1.83914e-150
0.000854406
0.00159049
9.38061e-151
2.38601e-150
0.0150354
4.65255e-151
0.000520785
6.23213e-05
0.00937394
0.016717
0.000262782
3.46573e-151
0.0133883
0.00211257
0.000202649
0.000455065
0.000152141
2.34986e-151
0.000874996
0.00446303
0.000318651
0.000532687
0.00705656
0.000103173
0.000395531
0.0016927
0.000615546
0.000238818
5.97787e-39
0.000512611
0.0449288
8.70858e-05
0.000693503
0.018818
0.0143913
7.52141e-05
0.14549
0.094785
0.128032
0.000683625
0.0139651
0.000285724
0.000261678
0.0445535
0.0326655
0.00751316
0.000465172
0.000140999
1.26403e-149
0.105277
0.132348
0.101177
1.47687e-25
0.0283564
0.0047335
3.06374e-140
0.0291155
0.16103
0.0808755
0.0700905
0.0757735
0.046232
0.0593035
0.0769785
0.0303805
0.0716985
0.0786435
0.037282
0.154808
0.0422835
0.062187
0.0755755
0.0794205
0.0519485
0.0366035
0.0230668
0.0186655
0.0601135
0.0313485
0.038192
0.0144755
0.0288521
0.026942
0.070235
0.120843
0.0786285
0.051962
0.057562
0.0563355
0.0842535
9.7475e-05
0.0091085
0.0706935
0.0574985
0.0554405
5.24785e-20
0.0109767
0.0309355
0.0719085
0.0804755
0.037597
0.0536585
0.0055755
0.021047
0.0831455
0.0854219
0.0693535
0.073822
0.0717005
0.0092055
0.000137
0.117775
0.0907185
0.0732705
0.0146985
0.0219935
0.111505
0.073592
0.0159655
0.0207296
0.0717906
0.0458755
0.00102194
0.0472985
0.0772185
0.145993
0.0002905
0.026032
0.045852
0.0165308
0.002255
0.0734076
0.0502035
0.0422455
0.0652555
0.0124305
0.000154571
0.0492005
0.06501
0.0472285
0.0712805
0.00188175
0.055035
0.0720635
0.014517
0.0691
0.0342135
0.0656105
0.0338985
0.0377485
0.0254605
0.0408905
0.0224858
0.0702441
0.0107433
0.0571085
0.072065
0.066972
0.000507056
0.056447
0.0701785
0.0473485
0.13192
0.066765
0.0654785
0.024382
0.0570955
0.094087
0.0556905
0.0215405
0.0708605
0.0329055
0.06654
0.054727
1.21781e-121
0.0534961
0.0669025
0.122877
6.38024e-152
0.0079905
0.026187
0.05149
0.0588435
0.074567
0.1086
0.10303
0.016557
0.0702435
0.0532705
0.013747
0.0675605
0.060757
0.0242705
0.0669249
0.0492705
0.064582
0.0550535
0.0380855
0.04598
0.063322
0.0539919
0.0508155
0.0443374
0.057602
0.071792
0.014352
0.0525905
0.0628755
0.0877135
0.054112
0.0238035
0.045352
0.0509503
0.0357054
0.036115
0.0077285
0.0658785
0.0658685
0.0022085
0.0587005
4.97843e-05
0.053212
0.015552
0.0312635
0.0683905
0.0065485
0.079705
6.65031e-147
0.131542
0.0289785
0.0187085
0.0549585
0.060352
0.0493555
0.055772
0.0573555
0.0312
0.0244055
0.0349905
0.035952
0.018092
0.03289
0.0133311
0.059252
0.0517185
0.002725
0.100722
0.0343555
0.0507605
0.111643
0.115753
0.005115
0.012407
0.0261535
0.0064705
0.049082
0.0410835
0.036017
0.0220798
0.057615
0.0335055
0.0314805
0.0440035
0.0396211
0.0488105
0.0650787
0.0528001
0.060717
0.088447
0.0404835
0.0005985
0.0562471
0.0261635
0.100278
0.06822
0.0246935
0.0032654
0.0312024
0.108543
0.0199155
0.0216005
0.0588705
0.0053405
0.0553235
0.029537
0.0159485
0.0515785
0.059842
0.007312
0.055677
0.0498685
0.0588455
0.0464501
0.0451335
0.024122
0.0258185
0.033122
0.045387
0.035222
0.0073855
0.0486435
0.041657
0.038487
0.016517
0.0154955
0.0186056
0.0342405
0.038552
0.056657
0.0372
0.051607
0.0572585
0.044567
0.0189655
0.0385155
0.00791386
0.0195958
0.058715
0.0524987
0.0569835
0.038672
0.0303785
0.111645
0.009452
0.035867
0.0423223
0.0243835
0.0678035
0.0124835
0.037035
0.0588635
0.0553105
0.007637
0.0123026
0.0456
0.107253
0.006222
0.058662
0.0261075
0.0373435
0.041417
0.011182
0.0355435
0.003272
0.031832
0.038577
0.05849
0.0547385
0.0120305
0.0566555
0.0414166
0.030085
0.0344655
0.035172
0.0534157
0.055982
0.046517
0.0508805
0.0511743
0.0423935
0.0674762
0.055967
0.0408121
0.088007
0.0536805
0.0312605
0.11344
0.04353
0.027967
0.0088205
0.00593215
0.00973366
0.0558728
0.0264405
0.0581255
0.0510935
0.0527455
0.027417
0.034
0.0154555
0.0398385
0.0481055
0.0559691
0.0517602
0.093542
0.097527
0.0273863
0.0430772
0.005982
0.0489255
0.025441
0.0267042
0.09421
0.0464055
0.049172
0.00789671
0.025965
0.0285755
0.037492
0.0424885
0.0276935
0.028847
0.0356655
0.040387
0.0509905
0.0420735
0.0497085
0.0426655
0.017337
0.0083805
0.0276235
0.048517
0.0395935
0.0311485
0.027112
0.0504285
0.0204655
0.0337555
0.0282651
0.0257285
0.059735
0.0421435
0.0500035
0.02557
0.0189635
0.0505435
0.0361405
0.05395
0.0400785
0.0518468
0.0209485
0.01749
0.0379755
0.075487
0.0387985
0.062837
)


// ************************************************************************* //
