/*--------------------------------*- C++ -*----------------------------------*\
  =========                 |
  \\      /  F ield         | OpenFOAM: The Open Source CFD Toolbox
   \\    /   O peration     | Website:  https://openfoam.org
    \\  /    A nd           | Version:  7
     \\/     M anipulation  |
\*---------------------------------------------------------------------------*/
FoamFile
{
    version     2.0;
    format      ascii;
    class       vectorField;
    location    "0.7/lagrangian/reactingCloud1";
    object      U;
}
// * * * * * * * * * * * * * * * * * * * * * * * * * * * * * * * * * * * * * //


2563
(
(135.464 8.20691 5.36039e-08)
(135.11 17.4652 0.000167348)
(137.791 15.86 -0.000727059)
(139.902 11.7446 -0.000218229)
(140.757 5.62718 -0.000404601)
(142.478 7.97154 -0.000411189)
(147.018 17.2093 -0.000850783)
(150.368 19.3465 -0.000313292)
(148.45 10.586 -0.0017905)
(149.625 9.3193 -0.00010016)
(148.47 6.10102 -0.000740883)
(149.213 5.62798 -0.000665873)
(150.404 5.40271 -0.00107659)
(151.588 5.26007 -0.00156144)
(151.488 4.25956 4.65047e-06)
(149.578 1.55076 -0.000146226)
(159.783 -2.12393 0.504234)
(151.342 2.31389 -0.000342116)
(155.191 2.65073 0.000155405)
(156.485 0.894078 0.000760974)
(155.823 1.11268 3.93422e-05)
(154.876 1.40633 -0.000598253)
(153.135 1.41842 -0.000564452)
(153.909 1.20657 -0.000104552)
(154.896 0.232736 -0.000272053)
(154.751 0.059807 -0.000159832)
(154.057 0.638946 -0.000340775)
(154.059 0.451208 0.000129042)
(153.158 0.454403 -0.000105602)
(154.123 0.0440439 1.0582e-05)
(153.91 -0.297698 8.93593e-06)
(153.647 0.381777 3.57382e-05)
(153.943 0.0197701 7.36794e-05)
(153.607 0.285158 1.52273e-05)
(153.826 -0.221382 1.35461e-05)
(153.43 0.15634 4.16521e-06)
(153.657 0.111527 1.25752e-05)
(153.68 -0.0782031 -6.60905e-06)
(151.977 -0.24748 2.08153e-06)
(153.589 0.166741 -2.93666e-06)
(153.597 0.11286 -7.40371e-06)
(153.6 -0.0186944 -3.9924e-07)
(51.2052 10.5541 -1.90366)
(131.74 -45.9443 -8.33279)
(49.5819 -0.51029 -4.39819)
(118.826 -31.6418 28.7918)
(135.232 -27.8361 0.0028531)
(137.125 -25.4866 0.000821123)
(143.365 -18.3249 0.00178486)
(104.655 -27.9134 10.4772)
(129.996 -20.5867 -2.52437e-05)
(132.952 -17.8374 -5.90902e-06)
(100.308 -14.5319 1.16908)
(122.928 -18.4376 -1.86187e-05)
(118.433 -18.0705 -6.34459e-05)
(131.551 -11.2039 0.00178878)
(126.092 -12.9725 -3.23823e-05)
(122.094 -13.3823 0.00353764)
(108.004 -18.2923 7.84583)
(119.782 -12.0356 -2.10246e-05)
(113.003 -12.3921 0.000980691)
(121.175 -8.16097 0.00208047)
(106.701 -9.56949 -8.68227e-05)
(117.557 -7.83352 0.00248627)
(113.987 -7.79022 0.00252607)
(102.248 -6.87007 -1.87568)
(123.426 -1.73554 -2.44737e-07)
(109.692 -5.62866 0.00198864)
(104.389 -3.41716 -0.122242)
(109.213 -4.17764 -0.000159114)
(93.6408 -0.333698 -1.25837)
(115.832 -3.00527 0.00175066)
(111.939 -2.53547 0.00122877)
(106.792 -0.447124 -0.000301583)
(112.378 -1.45384 -6.81345e-05)
(73.477 5.73588 0.355919)
(110.076 0.996808 -0.000197113)
(78.7095 4.77264 -0.957537)
(31.8565 3.60362 -2.09387)
(100.73 8.05404 -10.1089)
(118.593 -0.228672 0.000369909)
(117.377 0.393623 0.000450341)
(110.602 3.14968 -4.07419e-05)
(114.409 2.03286 0.00157204)
(114.226 2.66739 0.000773936)
(113.055 3.60766 0.00152527)
(116.45 3.3719 -8.08182e-06)
(111.786 5.53154 0.000563336)
(117.932 3.934 -1.49106e-06)
(98.918 11.7657 3.29028)
(112.951 6.78479 0.00019207)
(119.353 3.49587 -2.00031)
(110.836 7.94684 0.000851235)
(113.382 8.5849 0.000311602)
(105.637 11.8839 -0.756582)
(95.3372 8.7151 -4.55369)
(118.456 10.3012 0.000152607)
(124.923 4.44578 8.92136e-05)
(126.956 4.30939 0.000304216)
(126.005 7.70432 0.000533719)
(122.707 12.4118 0.0017318)
(124.111 13.0038 0.000960694)
(123.771 15.2564 -8.86788e-05)
(132.701 1.3269 7.49934e-05)
(130.862 12.0485 0.000415653)
(125.671 22.2017 0.000655014)
(314.298 -14.3494 -2.94166)
(312.213 -7.43676 -6.91032e-05)
(312.285 -15.0259 0.656992)
(302.503 -13.272 -0.00157086)
(288.694 -11.2483 -1.83307e-06)
(285.927 -32.9265 -2.9362)
(279.583 -24.2779 -0.000622621)
(270.891 -18.4465 -0.00040945)
(238.695 -26.2876 -2.74923e-05)
(222.856 -40.6075 0.000345929)
(211.755 -34.8626 0.000158843)
(210.598 -31.1592 0.000113368)
(206.21 -37.9253 0.000224852)
(172.717 -46.8293 -1.02171)
(179.478 -52.5328 -8.93373)
(150.677 -45.9188 0.800534)
(184.025 -37.8932 0.000186849)
(179.671 -24.9249 1.96896e-06)
(176.543 -12.0402 0.00145509)
(132.43 -34.0248 5.48889)
(154.708 -31.5056 -17.3053)
(173.388 -8.12772 7.56845e-06)
(139.258 -37.5179 -1.40366)
(149.082 -33.59 0.000694502)
(151.638 -14.3736 7.35259e-06)
(305.608 -5.52899 2.03549)
(390.91 -3.65242 0.287118)
(374.949 -0.175182 2.12747)
(384.937 -4.01023 -0.0564493)
(374.886 -1.17904 -3.78177)
(370.728 -6.85799 -0.0265328)
(337.806 -16.2678 -12.6903)
(318.624 -15.3971 -1.02484)
(400.931 4.31691 2.41656)
(438.284 6.18281 3.72285)
(424.775 3.96358 5.08867)
(438.979 0.822406 1.15654e-06)
(438.398 1.17655 2.78049e-05)
(437.659 -8.31324 0.851426)
(438.766 1.92245 1.41469)
(436.672 1.4675 4.75139e-07)
(434.359 1.85855 0.804724)
(435.908 8.20696 -3.20108)
(431.269 1.53846 4.18969e-08)
(434.96 4.75759 -1.42278)
(424.874 1.33254 -0.838662)
(428.404 1.09432 -1.00194e-05)
(425.853 0.918973 -1.88489e-06)
(427.536 -3.2465 8.10626)
(413.887 -6.24892 -9.35134)
(417.332 0.429015 -9.42702e-05)
(407.247 -0.402785 -1.04566e-05)
(442.735 -0.0833789 -1.1275e-06)
(442.989 -0.0629303 -3.16753e-06)
(389.678 17.5957 1.24353)
(445.314 -4.27102 2.17373)
(447.47 -0.296677 4.42713)
(444.398 -1.50994 -0.551366)
(442.364 -0.0213197 1.95025e-05)
(441.788 -0.0274947 -2.21875e-07)
(434.175 1.37389 -6.32427)
(429.46 -7.92802 5.76081)
(436.097 -4.40228 1.94377)
(448.807 -9.91011 -9.9835)
(440.689 0.447075 -0.339461)
(441.849 0.0727637 3.20325e-05)
(440.627 -0.0938216 1.52567)
(441.848 0.0851498 -5.48721e-07)
(407.048 -0.920387 0.367795)
(441.776 0.0637609 -5.77872e-07)
(397.731 0.554736 -0.270303)
(452.053 -0.832181 3.08785)
(446.295 0.0966632 -2.62969)
(436.281 4.45957 1.11044)
(378.101 13.598 26.1336)
(447.831 -4.31282 1.28785)
(361.829 8.32355 0.0724927)
(451.01 -14.483 -2.52897)
(445.874 0.0388684 -1.68263e-06)
(443.799 -0.276321 0.206749)
(445.715 0.0427809 -7.41172e-07)
(411.314 -0.0321801 -0.19357)
(439.721 -11.8094 -6.72586)
(440.997 -0.171431 -0.239139)
(437.786 -7.20621 1.04519)
(422.956 -8.42166 -3.35598)
(443.646 1.9095 -0.75632)
(446.579 -5.80504 -1.60648)
(421.703 -0.0441836 4.94658)
(442.705 -7.70904 6.96606)
(438.539 -4.68096 5.73062)
(445.597 4.13092 9.22288)
(444.648 0.0282842 -1.58502e-07)
(399.402 1.4106 -0.733955)
(444.908 0.0106329 1.33682e-07)
(435.233 2.82943 -3.3767)
(445.125 0.00265848 -1.80433e-06)
(423.371 -12.3824 -2.83125)
(440.553 -0.0925809 -0.00357912)
(435.538 2.96478 -0.783319)
(443.839 -0.0177404 -8.87124e-06)
(444.431 -0.00223855 -1.57231e-06)
(440.476 0.316228 5.79735)
(429.322 -4.05051 4.04418)
(443.074 -0.0661765 -1.83834e-06)
(443.266 -0.0527412 7.24462e-07)
(436.988 -13.9166 7.75223)
(449.997 0.492628 -4.0262)
(445.987 -0.131562 2.89909)
(445.267 0.876858 6.86849)
(448.469 -0.165346 -1.42825)
(441.199 3.76661 -2.68515)
(446.985 -0.675908 -1.99311)
(447.296 -1.20185 -2.03566)
(447.374 1.63911 2.47474)
(443.958 -0.670092 -2.8787)
(447.673 -0.117402 -0.847669)
(447.649 0.0235471 1.69295)
(443.724 2.31925 4.04587)
(444.645 -1.09316 -10.0673)
(374.304 12.7319 -3.05439)
(387.589 5.9485 9.3221)
(424.589 -0.0940685 -0.379659)
(447.141 0.00897998 2.31603e-08)
(447.204 0.00818715 -1.79959e-07)
(447.344 0.00699774 3.10932e-08)
(447.48 0.00547691 5.70753e-07)
(447.392 0.00685964 3.93384e-07)
(415.853 -0.420289 0.0272778)
(445.455 -0.202228 0.238052)
(356.943 14.0835 -5.00831)
(431.74 0.613569 6.29091)
(428.767 -0.129083 -0.175649)
(436.47 1.62708 -0.843527)
(444.16 -3.52645 1.34475)
(446.963 0.0133759 3.77511e-08)
(452.077 4.31871 0.285482)
(446.886 0.0172699 -1.74461e-09)
(450.033 -6.33605 -2.04919)
(346.857 8.54125 -2.98056)
(440.946 -5.43184 0.23852)
(442.726 -1.4326 -0.419111)
(451.005 0.105742 -5.88581)
(426.665 -7.59247 10.8403)
(446.741 0.0239663 -7.17832e-08)
(447.626 -0.47765 1.3603)
(407.811 1.0028 -0.676326)
(446.49 0.0332965 -4.19934e-09)
(436.124 -1.23775 -0.0116144)
(446.452 0.0349802 -4.59647e-08)
(354.383 9.61894 -13.5138)
(446.351 0.0393212 6.71554e-06)
(446.931 0.00925094 -3.10591e-07)
(447.868 -8.90349 -4.60319)
(450.181 -15.9913 -17.0995)
(429.843 -7.1488 0.903892)
(445.757 -0.0234333 0.14813)
(385.562 3.87346 2.25016)
(414.185 2.78089 1.87168)
(450.051 0.722648 3.32754)
(449.944 -1.49356 -1.52589)
(447.054 2.517 -2.46493)
(447.611 0.611289 -2.81169)
(449.4 -0.244824 4.0577)
(445.093 -1.13213 -1.03383)
(447.689 0.596996 7.61905)
(446.016 -3.0733 -3.2103)
(431.102 -1.63659 3.53863)
(449.062 4.57749 6.12409)
(447.969 -0.706999 1.39282)
(448.035 0.0958382 -0.0643245)
(448.066 0.649053 -0.222238)
(447.733 0.279186 -7.12029)
(443.742 1.35774 -1.97153)
(451.515 0.321041 2.64655)
(447.701 0.352031 0.61363)
(448.265 -1.83681 -3.13493)
(445.464 2.27366 4.14167)
(448.977 -0.183267 -3.1622)
(446.65 -1.49134 2.41905)
(441.686 0.144767 -2.19046)
(448.178 -0.299591 0.682364)
(450.453 1.17665 2.26664)
(450.84 1.22431 1.5675)
(444.334 -5.19071 3.63423)
(447.997 -3.22512 2.33457)
(448.289 -0.662607 1.34923)
(446.452 0.504401 1.45931)
(448.01 -1.12954 -1.82573)
(446.953 -1.28701 2.42702)
(450.622 0.658982 6.29812)
(444.362 4.18714 5.28697)
(324.331 2.51483 -5.70685)
(376.344 11.8398 -19.3948)
(387.668 0.687049 -5.14926)
(366.898 15.3257 -5.71962)
(434.532 -1.04802 0.210498)
(441.304 -2.9574 -5.16003)
(446.626 -31.8507 -3.62373)
(446.682 -1.12917 0.941069)
(447.397 2.35401 0.313531)
(368.365 13.7036 -14.9254)
(441.506 -1.29308 0.664839)
(430.675 5.63248 -2.64171)
(447.728 0.00424551 6.05875e-08)
(415.881 18.3326 20.6475)
(389.96 17.2077 -14.2995)
(362.335 10.8226 -1.17109)
(437.237 -2.17937 7.36293)
(440.939 -2.05128 -1.10448)
(368.316 15.1275 7.0204)
(446.902 -0.303289 0.341682)
(379.677 -5.28855 -10.9598)
(361.731 1.93607 -1.4688)
(386.51 5.31288 -0.14725)
(419.292 -3.30691 0.824031)
(447.605 0.00556109 1.95315e-07)
(411.606 -8.73293 1.33172)
(451.776 -1.61004 0.867245)
(420.625 -7.64352 -11.2952)
(445.758 -0.450137 0.845275)
(448.867 -1.89319 1.53372)
(447.389 -0.660135 4.10236)
(428.781 -7.44003 8.62662)
(448.263 0.778912 7.79632)
(442.198 -12.3604 4.10045)
(425.571 0.985449 -1.03753)
(445.779 -9.70558 1.99157)
(447.817 0.00352882 -1.95984e-09)
(451.411 1.91459 1.23983)
(457.772 -12.2189 3.8354)
(430.734 5.65466 -5.50361)
(369.047 1.61679 4.3697)
(447.045 -0.0120291 -0.23546)
(425.094 -0.551644 1.4513)
(435.578 2.02179 1.0635)
(440.877 -1.45729 1.30692)
(417.869 3.54041 4.94814)
(444.938 -2.39113 -0.517476)
(450.416 -1.63269 9.55052)
(447.779 0.00254219 8.86914e-08)
(447.398 0.00700675 2.44675e-06)
(444.658 -11.6151 1.40349)
(398.873 -1.83642 -0.247139)
(408.734 -1.4178 -3.20073)
(377.982 11.4791 -5.23025)
(406.896 -0.701921 5.75959)
(447.325 0.00797148 4.70665e-08)
(454.288 -4.74804 -2.31055)
(449.922 -0.986046 -4.60992)
(437.958 -19.4118 -9.11429)
(447.197 -5.59164 -11.5448)
(448.772 0.204159 2.04263)
(450.105 -0.0641638 -3.58901)
(451.358 0.626522 1.65615)
(452.753 0.421689 2.1863)
(447.029 -0.632702 -1.55176)
(448.469 3.98775 -5.5403)
(447.975 -0.0383825 -0.3107)
(449.088 0.95312 -2.09334)
(450.231 0.968934 -0.25703)
(448.876 -0.039029 -3.54752)
(449.049 0.0565296 1.44867)
(445.118 2.67231 2.10197)
(447.87 0.246903 0.412052)
(445.535 -0.142119 1.79144)
(448.156 0.305006 3.39528)
(447.935 0.19381 -0.372582)
(446.851 -0.207458 -3.27223)
(447.013 0.0654364 0.747024)
(446.712 -0.733339 0.812246)
(448.114 0.425242 -0.487488)
(448.31 0.360059 3.193)
(447.557 0.0611775 -0.127414)
(445.097 -0.740274 -2.91033)
(448.945 0.0333961 1.06863)
(448.307 0.196624 -1.66351)
(447.931 -0.214515 0.456429)
(446.583 0.356348 -0.974112)
(449.85 -0.318722 3.68042)
(452.828 1.75169 -1.82351)
(439.526 2.58377 -2.18062)
(448.283 -0.348929 -3.12716)
(445.794 -0.673992 4.14558)
(447.669 -0.0564002 3.2842)
(446.865 -1.33553 -2.25343)
(452.111 -1.8234 -1.79995)
(448.832 -0.638575 0.483511)
(446.202 0.783557 -3.17298)
(448.012 -0.205572 -0.287959)
(451.182 -0.943753 -2.00053)
(446.525 -0.58598 3.38248)
(441.372 -0.625533 -0.97641)
(459.686 3.37409 -3.59962)
(448.674 0.15155 -0.354893)
(446.229 -2.7156 -0.950035)
(450.542 4.40011 -3.21947)
(448.051 0.00913409 -0.0417902)
(448.111 0.00705258 0.135189)
(450.779 -0.95186 -2.65942)
(445.768 0.63693 1.79509)
(448.674 1.29487 -4.27792)
(448.163 -1.33793 -1.30362)
(449.48 -0.0494548 -2.30007)
(446.852 0.661689 2.25909)
(451.209 9.95841 7.34316)
(455.67 -1.93491 7.91759)
(446.85 -0.905399 0.25148)
(447.478 1.59247 -2.97412)
(446.388 0.726354 3.77402)
(448.212 1.78227 -1.19759)
(447.988 -0.0173368 0.744631)
(445.663 1.88723 -2.22895)
(447.287 1.31815 1.8695)
(448.005 -0.334128 0.879772)
(441.129 -0.911099 2.20927)
(447.876 0.218821 -0.383836)
(448.672 3.45324 -2.05492)
(445.505 -1.37816 3.03687)
(360.654 -7.21485 -7.9891)
(393.902 -7.52553 -0.760999)
(407.603 -1.95714 1.00727)
(422.543 -4.12738 -0.135023)
(398.019 2.96449 -3.4632)
(394.228 5.36394 -4.0751)
(424.776 -0.0486682 1.58499)
(447.445 0.208581 -1.25826)
(440.211 0.458113 -0.601157)
(448.089 0.0875897 -0.685383)
(409.96 -7.66828 -3.85138)
(448.665 -0.37697 0.169749)
(427.698 -10.5471 7.1202)
(449.785 -21.0192 -15.138)
(396.556 8.89803 -4.59678)
(442.376 -7.22932 -2.7068)
(441.786 -17.312 6.75423)
(447.013 -3.47759 3.46243)
(434.16 -7.63241 0.715937)
(432.407 -13.3583 0.507205)
(462.655 -10.8135 -7.94089)
(427.993 4.77786 -0.145126)
(366.077 4.22989 -21.541)
(446.929 0.180523 0.318642)
(398.95 -0.563637 -2.21879)
(449.011 -0.358421 -0.0247531)
(406.398 3.6973 -1.25708)
(430.338 -1.37602 -1.21319)
(448.422 -7.11051 -7.69933)
(450.684 -0.978528 -2.21174)
(357.143 12.4883 -5.04022)
(450.069 -3.23807 -0.41303)
(420.077 4.07655 -0.319996)
(403.584 -0.327745 0.531064)
(394.298 -0.500188 14.3045)
(444.219 -1.32809 1.17302)
(393.383 -0.530822 -0.00389376)
(449.036 -5.04538 7.8418)
(414.517 -2.04877 3.45688)
(384.149 8.44694 -12.031)
(445.46 2.00751 0.442696)
(451.448 1.22878 3.10843)
(441.954 -2.54049 -3.15505)
(430.93 -10.2498 -0.920163)
(443.899 -9.12628 -4.92957)
(451.87 -5.16518 2.89084)
(421.586 -3.84193 1.05112)
(353.725 14.102 3.50609)
(444.083 -10.7933 -2.94743)
(327.03 24.3568 -0.28287)
(448.779 0.11991 -1.08749)
(429.227 -0.744532 -1.14937)
(456.611 -16.1072 6.95241)
(409.62 -4.2103 6.88448)
(430.937 -10.2909 6.37897)
(453.774 -3.58841 0.308526)
(438.556 1.97166 -0.799818)
(402.419 -1.58243 4.60028)
(423.496 0.11188 -0.550144)
(420.78 3.49727 4.38043)
(447.898 -0.069908 -0.193093)
(396.841 7.14535 0.900081)
(454.296 -6.52569 6.31155)
(438.771 -0.113882 -1.43342)
(427.492 -0.772953 -0.654665)
(412.783 -5.13134 -1.58034)
(418.8 2.9116 1.68651)
(449.728 -2.57961 -3.90092)
(429.815 -0.0569006 0.109178)
(405.778 -0.232965 0.936292)
(447.018 -0.149027 -0.0337066)
(456.704 -6.26525 19.1015)
(425.645 -15.96 -0.476412)
(443.668 -4.11955 1.57897)
(452.632 -4.24538 4.14377)
(446.378 -0.485471 5.01315)
(447.593 -1.34799 -1.10419)
(450.888 0.260436 -1.52016)
(449.784 -0.160347 -3.03507)
(446.802 -0.180934 -3.21597)
(447.777 -0.373173 3.08813)
(445.234 2.24214 0.745043)
(447.498 3.8845e-05 -0.706832)
(449.302 1.73944 -0.612369)
(449.747 0.0958315 1.47202)
(449.104 -1.94709 2.73449)
(447.646 -0.158206 -0.452242)
(449.569 -0.149994 0.488101)
(443.785 -0.412328 -2.44201)
(447.825 0.105168 0.0816342)
(447.124 -3.21927 6.01112)
(449.248 0.0527486 -1.14986)
(447.774 2.32103 2.04305)
(449.188 0.202657 -1.08012)
(448.032 -0.193426 0.221958)
(447.288 -0.455686 -0.654966)
(447.413 -0.203368 -2.12272)
(450.36 0.238235 0.808061)
(447.943 -0.507726 0.449759)
(449.52 0.0736292 1.48377)
(448.959 0.361605 -0.95073)
(446.952 -1.71717 -2.98533)
(453.148 2.36243 -4.0444)
(445.308 3.31492 -5.07649)
(448.456 -0.384869 -1.90835)
(448.051 -0.634013 5.35308)
(447.82 -0.0871451 2.48724)
(449.198 -0.929257 -1.82388)
(447.763 0.439152 -1.46769)
(444.743 0.603553 1.49742)
(448.204 0.133309 -0.198472)
(446.771 0.20726 0.9816)
(448.569 0.240474 1.30002)
(451.151 0.739182 -2.01675)
(444.897 0.575163 -1.7136)
(449.131 -0.905907 -6.0027)
(449.262 -0.0282073 -0.286001)
(446.618 0.693777 2.05643)
(449.332 -0.00213559 -0.578273)
(448.261 0.412902 -1.37271)
(448.903 -0.665862 -2.35749)
(448.709 0.691828 1.48624)
(444.867 -1.0284 1.28462)
(448.75 0.412348 -2.3126)
(453.053 -1.0979 3.41249)
(447.935 0.0314877 0.160803)
(447.436 -0.545888 3.03921)
(447.797 -0.98027 -0.482359)
(446.713 -1.59069 -0.621898)
(445.863 0.111017 0.925892)
(449.42 0.889192 1.08257)
(449.929 0.0511715 -2.85161)
(447.007 0.594188 -0.931064)
(450.575 0.436668 -1.69775)
(448.687 0.466111 -1.7167)
(454.067 -0.902041 3.15152)
(443.74 -0.821994 -3.34239)
(447.413 0.19649 -1.22143)
(448.309 -0.0196866 0.681638)
(450.605 0.5497 1.71784)
(448.456 0.221071 0.873906)
(448.353 2.58705 -1.77395)
(449.117 -0.216547 2.56185)
(446.585 -0.0631394 1.23953)
(446.982 0.625339 0.903796)
(446.449 -1.16672 1.59575)
(447.218 -0.716068 0.0195433)
(447.739 0.103609 1.12135)
(447.581 0.7623 0.652509)
(447.663 -0.0731863 0.343256)
(447.401 0.269874 -0.792522)
(447.506 0.879513 2.66229)
(449.266 -1.62404 1.07154)
(447.511 -1.2837 1.36924)
(446.454 0.483942 1.95656)
(440.751 3.45496 -4.56213)
(447.906 0.0203227 0.0952236)
(448.204 -1.13878 4.88258)
(452.683 0.53155 -2.22572)
(450.915 0.400543 3.15242)
(448.515 0.00187727 -0.38485)
(447.4 0.264783 1.18451)
(449.877 0.592633 -5.14757)
(448.551 2.87777 3.30686)
(451.537 0.674513 1.47741)
(447.975 0.00268267 0.394132)
(448.109 -0.1063 0.471088)
(446.34 0.77406 -2.48797)
(448.98 -0.635511 -2.05371)
(448.843 0.540637 -1.04173)
(450.806 -0.53589 0.725082)
(448.694 0.283768 -0.244222)
(446.027 -0.849897 -1.89023)
(449.126 -1.35907 -3.50018)
(449.853 -1.62611 -2.0639)
(446.411 -0.852785 1.22712)
(247.594 24.3296 -7.0592)
(283.331 2.1257 -4.45918)
(447.762 -0.71123 0.595653)
(413.476 -1.01821 -4.21602)
(412.122 -1.16706 -0.359084)
(452.414 -4.01356 0.569664)
(448.371 -3.37126 -2.76379)
(435.712 0.209436 -4.6836)
(442.76 -0.442089 -1.36079)
(439.054 -5.39375 -1.43014)
(354.227 -0.548684 11.1442)
(441.955 -1.71307 -2.59791)
(426.613 -6.60088 2.33683)
(415.055 0.317939 0.491477)
(388.922 12.2838 -4.5096)
(428.52 -1.9504 -1.49511)
(447.903 0.569558 -3.36549)
(399.451 -2.64519 7.98959)
(400.208 7.95971 1.44039)
(347.345 -0.00220609 0.037628)
(355.073 -12.5306 -9.1002)
(385.917 0.291157 21.0927)
(448.126 0.274479 0.198502)
(421.49 -2.16532 1.20564)
(415.924 -0.535726 -0.0212362)
(383.591 9.51414 -17.3305)
(449.767 -2.05552 1.17409)
(341.715 1.24037 1.207)
(447.107 -0.421056 1.61511)
(430.551 1.82987 -0.370914)
(378.643 -1.16629 0.933723)
(411.76 2.66566 1.87832)
(440.569 1.88486 -1.8156)
(377.207 -4.93011 -3.72352)
(406.133 3.56997 6.10659)
(433.034 -19.6815 -6.45428)
(434.768 0.809042 -2.57138)
(447.826 -0.421879 -0.178211)
(430.471 -0.776384 0.373767)
(441.348 -22.7754 -6.21524)
(376.975 -0.873792 -3.09907)
(443.273 -0.309266 -0.0278824)
(446.747 7.86214 6.67894)
(330.562 15.2517 -9.55377)
(447.697 2.21511 3.34569)
(329.057 4.14021 1.76185)
(427.205 0.156207 4.70242)
(449.213 0.821095 -4.72772)
(445.716 -4.87679 8.45166)
(453.326 -11.5315 -9.19471)
(407.483 19.3998 4.40763)
(457.911 -10.0035 15.6001)
(351.138 -0.0079452 -1.55755)
(318.766 19.9968 17.9975)
(448.937 -6.09179 5.18567)
(410.969 -2.22575 -1.64701)
(350.816 0.399384 1.36214)
(445.87 -4.78432 0.454281)
(419.619 -0.0979638 -0.109069)
(423.65 -0.0934324 -0.0525744)
(440.996 2.96559 -5.00146)
(366.598 5.01732 4.99543)
(362.888 4.64185 -6.33454)
(434.886 -3.80684 -3.6411)
(448.91 -9.76815 1.12345)
(415.679 -1.6866 -0.747754)
(431.172 -2.99578 5.74981)
(431.703 1.28938 1.62039)
(442.595 -0.756777 -0.521736)
(447.462 -6.71031 0.120332)
(444.049 0.524028 2.41797)
(418.564 0.404562 -4.2048)
(446.398 -9.3086 -13.538)
(397.64 3.84216 0.928223)
(407.971 -1.37008 4.51519)
(446.855 -0.240288 -1.39465)
(438.019 0.529977 -10.0396)
(452.442 -4.65787 3.67936)
(407.722 -2.3847 -9.85843)
(427.175 0.246537 -1.60471)
(422.011 2.33499 3.54338)
(435.865 0.172039 0.780597)
(417.933 6.5042 -16.24)
(398.378 5.18205 11.7772)
(452.096 0.285394 -2.05225)
(449.721 1.86126 7.10943)
(413.919 7.98004 8.4537)
(444.029 -1.48795 -1.67201)
(408.796 -0.988531 2.19046)
(407.179 1.88193 -8.0687)
(434.075 -2.45592 -10.6997)
(448.038 -0.663042 0.464329)
(416.714 10.6767 10.1151)
(446.12 0.806444 -1.94882)
(440.346 -1.35807 1.60945)
(426.848 -0.0925566 4.54325)
(427.077 -7.92918 -1.90074)
(402.749 -5.10016 -15.932)
(423.076 0.304294 -1.77978)
(413.02 1.56491 -8.03168)
(427.497 -0.0578858 -6.173)
(439.164 0.101913 -1.32404)
(443.885 0.541793 -1.79465)
(447.635 1.33098 -2.71731)
(430.572 -2.40722 5.30492)
(434.307 -2.80545 3.38791)
(423.482 -0.135409 0.440641)
(415.252 -1.69076 -3.07194)
(440.147 -1.83886 3.36408)
(404.114 0.577963 3.57133)
(448.269 0.0867911 1.17216)
(407.969 -3.80418 -5.12782)
(448.647 1.54431 -4.72407)
(420.092 -1.26993 4.37798)
(444.095 -2.61539 5.1918)
(428.938 -1.46323 12.4221)
(430.887 -2.68995 -1.07804)
(446.213 -0.600724 -0.669695)
(445.75 -5.2397 5.17515)
(439.454 -2.6821 -17.4407)
(433.263 2.93971 -5.91694)
(434.99 -2.55973 -15.1252)
(448.302 0.744334 0.325711)
(433.091 0.0208906 -5.97008)
(395.262 1.38135 -10.6304)
(447.562 -1.47538 9.26145)
(416.172 -0.4482 -1.56989)
(417.069 2.43007 -4.96164)
(447.809 0.0147614 -4.67405)
(447.496 0.116749 -3.13383)
(427.94 -15.7185 -9.77355)
(447.563 0.0146742 0.35113)
(448.92 -0.624276 -2.04209)
(437.322 -0.0965902 1.5461)
(431.972 0.418542 0.968708)
(446.395 0.119423 1.15893)
(446.658 0.126355 -0.543036)
(409.849 3.41667 -5.76399)
(410.906 -0.826802 0.851476)
(450.52 0.00484713 -2.15362)
(447.277 -0.0744613 -7.32869)
(446.58 -0.595001 -3.58636)
(431.533 -2.12943 -4.22436)
(415.744 3.08403 -10.678)
(449.532 0.106297 -4.43361)
(438.89 2.65435 0.79528)
(447.281 -0.0874785 -0.627695)
(448.368 0.338973 2.17464)
(427.704 1.41714 25.2032)
(445.053 -2.87218 -10.8443)
(443.132 0.431271 -4.51225)
(447.351 -0.15558 2.1275)
(444.433 -1.68554 -2.81102)
(425.382 1.14737 -3.2821)
(444.58 4.01565 2.88754)
(440.609 -0.0117909 -0.0853152)
(434.984 1.38272 0.903544)
(449.928 -0.242069 -0.404021)
(441.054 6.01741 -7.32776)
(442.791 -3.46608 -5.67324)
(421.287 0.791392 -0.813798)
(426.303 -0.834525 0.454194)
(446.037 -1.04757 16.071)
(429.836 -0.160732 0.424386)
(445.087 -0.117071 -1.04858)
(436.573 -2.26198 -1.02809)
(450.68 -0.147749 -5.98235)
(446.719 0.459083 -1.00526)
(415.725 -0.193545 1.56207)
(442.553 -0.179806 -2.19282)
(424.979 -4.39042 3.99735)
(445.979 0.341576 -3.87414)
(427.589 0.0496222 0.554397)
(443.708 1.00148 5.71496)
(413.813 -1.07063 10.9221)
(448.328 0.760301 -3.48957)
(448.185 -0.156125 2.14081)
(397.979 11.7283 -0.999467)
(429.796 -0.499357 -1.91084)
(446.909 -1.74422 4.02322)
(445.45 0.752075 1.89657)
(409.898 -2.42383 -0.023833)
(445.787 -2.06874 4.55886)
(448.614 0.505281 2.40505)
(425.341 4.98992 7.58251)
(448.966 -1.43619 0.808965)
(417.674 -3.93874 -4.55013)
(411.867 -2.56301 40.0137)
(447.357 0.152062 -0.296198)
(459.97 -4.04764 -4.36306)
(452.354 0.262648 12.4194)
(431.084 -10.0228 25.4372)
(434.471 -0.232576 2.02529)
(430.646 -2.75145 -4.51013)
(446.909 -0.0344037 2.38612)
(445.559 -0.503697 2.04969)
(447.865 -1.95131 2.09885)
(436.649 -2.38083 5.34538)
(441.602 -2.81972 3.58618)
(441.055 0.0203405 -0.393182)
(434.172 -0.591686 -0.297534)
(447.465 -3.37003 1.61282)
(446.569 0.0602726 -0.857303)
(433.263 -1.39206 -3.37751)
(431.223 -4.04878 4.61337)
(439.567 13.2568 -9.55262)
(447.556 0.0729547 0.180582)
(439.271 -0.37792 -1.17489)
(444.849 7.26976 0.632038)
(447.153 0.348824 -1.83747)
(449.633 1.38805 -5.34125)
(429.063 -0.035645 -2.20882)
(430.762 -0.642164 -12.0266)
(421.55 -0.693725 3.755)
(440.113 -0.531618 1.39085)
(444.156 0.118603 0.654791)
(447.615 -0.218885 3.32306)
(448.677 -4.26793 13.969)
(423.978 -2.53471 -4.72523)
(416.827 7.14379 -17.7822)
(446.432 2.51142 2.45953)
(436.256 3.22983 -1.46295)
(450.355 -0.914157 -2.55408)
(414.303 -1.61134 5.33793)
(403.997 -5.76803 -6.53606)
(426.455 1.86221 -1.60041)
(434.971 -0.129996 2.78625)
(416.322 -0.343246 -2.67688)
(424.678 -0.714493 2.75799)
(410.271 -3.67589 -0.964001)
(435.518 -0.232831 -0.317955)
(444.948 -1.02905 0.881399)
(457.775 -1.51555 23.2294)
(414.261 3.34451 2.08055)
(420.234 0.0500386 -0.102819)
(449.637 4.98681 4.70103)
(447.187 0.32156 1.93823)
(426.538 0.863823 2.71398)
(447.497 -0.153406 -0.909636)
(447.196 -0.734878 -0.865509)
(445.839 1.84283 -2.72174)
(433.099 -0.0185124 3.73519)
(432.288 9.631 -34.7863)
(427.657 -12.0667 -7.75972)
(446.6 -0.279161 -5.77005)
(450.95 1.16382 5.79694)
(405.076 -7.38446 -9.53865)
(439.49 0.415282 0.0632961)
(420.007 -0.433279 -0.930064)
(446.642 -0.449093 -0.139045)
(430.277 -3.41095 -12.5366)
(435.904 0.985232 -1.57922)
(446.25 -0.292995 3.32351)
(446.327 0.888921 3.3984)
(410.54 4.18906 3.68083)
(445.853 0.00452531 -2.15286)
(446.22 -0.304054 0.608957)
(419.787 1.98273 4.19226)
(429.654 -1.38184 1.5924)
(447.674 -2.92149 11.4078)
(423.367 -1.30572 -1.6413)
(424.848 -1.21742 -0.394275)
(423.7 -9.51872 -18.6793)
(423.655 0.370663 8.14905)
(449.74 -0.329434 -3.38359)
(448.203 -4.31364 -1.17758)
(446.697 0.132208 0.908258)
(434.826 -1.69187 -1.74678)
(446.546 -0.132291 -2.44137)
(447.982 -0.737658 -1.26623)
(414.839 1.22454 -5.34281)
(419.664 -2.72365 4.39155)
(412.188 -21.7547 8.14268)
(447.291 -0.0877749 0.474462)
(417.544 -3.64727 27.6553)
(450.246 -0.445946 2.29466)
(434.899 -5.25472 6.04297)
(416.179 -1.50338 -2.21305)
(445.492 -0.331065 1.12314)
(442.594 0.114664 -2.41104)
(438.618 -1.39486 -5.67576)
(436.177 0.0430303 -0.831897)
(445.958 -2.78783 2.41361)
(411.658 -4.30977 28.143)
(448.037 -0.559873 1.93179)
(421.441 -5.83106 5.28746)
(429.482 -0.117311 0.190916)
(452.019 -0.559796 -4.69999)
(447.8 1.05663 1.026)
(426.883 -0.320368 -5.90071)
(429.547 -1.36943 -1.08919)
(285.242 2.19677 -20.4059)
(448.347 -1.73993 2.72717)
(297.487 14.1463 -0.0657712)
(359.93 -10.5562 -40.0632)
(322.82 6.59227 -3.89521)
(364.431 -1.75385 4.39177)
(317.472 2.17645 -7.02842)
(269.292 11.6372 -3.0909)
(287.893 13.4718 4.87079)
(276.798 13.3606 -14.9094)
(378.681 -0.0338784 2.29789)
(311.358 1.50948 0.533039)
(372.142 3.59379 -15.793)
(378.549 1.59316 3.30884)
(412.099 -11.3088 9.29824)
(345.439 -14.1656 23.6488)
(379.767 -10.9406 -11.4368)
(389.723 0.384517 -6.84832)
(415.023 -6.35769 -1.06696)
(411.392 -3.94399 -1.32081)
(327.836 0.378993 -0.173162)
(406.621 -3.93184 4.90759)
(380.504 -1.74768 2.76612)
(372.42 1.91481 4.50397)
(288.168 10.4257 7.23585)
(289.453 12.6818 -0.49417)
(404.098 -6.51789 -20.3179)
(337.218 12.416 3.43714)
(396.533 0.0877276 8.1614)
(369.546 -12.3009 -18.784)
(351.643 7.34808 -8.23293)
(359.838 1.87527 -4.39387)
(367.066 7.92233 -2.53583)
(416.22 -0.00545556 0.501093)
(365.547 7.20763 4.75506)
(346.727 4.10667 -8.93182)
(416.663 -2.65425 0.0612959)
(377.872 -1.62165 9.13968)
(380.921 16.0308 -7.00162)
(412.136 6.02936 6.36652)
(403.884 -2.37251 7.80892)
(412.923 9.23154 1.92057)
(336.978 10.6809 1.96365)
(339.756 2.67098 -1.42333)
(414.684 -1.51456 0.515493)
(408.513 2.14996 -6.27779)
(427.555 -8.70782 -0.620677)
(429.054 -1.15199 0.19983)
(412.352 32.5647 -26.7136)
(396.837 4.9753 -5.79198)
(340.527 9.00375 -6.82178)
(304.875 -4.94456 1.0175)
(344.879 1.36891 -1.7001)
(377.609 0.601881 19.754)
(350.247 5.63981 3.67673)
(419.3 1.5283 0.694821)
(418.816 -15.4813 18.1344)
(400.834 5.42891 11.3581)
(409.029 0.750667 9.19752)
(402.227 -4.92994 5.02026)
(424.687 0.289934 1.83177)
(434.033 -0.00905279 0.00562967)
(417.276 0.217561 1.342)
(371.235 4.05755 -6.02234)
(438.909 -0.559515 -0.805936)
(425.111 -0.614684 4.98663)
(381.282 10.3083 2.56289)
(446.832 -0.0578691 1.73126)
(383.132 7.79841 -17.7163)
(389.817 -9.42747 -2.77649)
(359.225 8.65045 3.13083)
(355.889 4.08052 8.78069)
(421.526 1.03671 -6.32271)
(397.355 -6.40149 27.0755)
(437.443 0.390709 -2.43381)
(445.435 -4.19744 4.92491)
(326.758 14.9592 11.9082)
(347.713 6.68244 -1.11278)
(401.896 0.312219 3.37383)
(449.625 1.22708 2.38678)
(391.784 -7.00593 -0.363664)
(311.666 3.24074 -2.38595)
(440.473 -11.8566 -5.78903)
(418.789 -0.269103 -0.917382)
(394.586 -7.58567 -4.74765)
(430.962 0.397419 1.54574)
(428.755 -2.56137 2.61011)
(446.594 -0.303249 1.60932)
(370.338 0.428674 2.83317)
(375.284 3.28188 7.40866)
(439.997 4.47633 -4.24473)
(391.658 -1.40733 -7.56861)
(345.684 -0.467506 -0.737541)
(396.246 -0.918393 0.0455858)
(446.922 2.0518 3.17034)
(429.739 -2.29317 0.834937)
(427.647 -11.7317 4.8894)
(423.536 6.80496 4.54588)
(339.054 4.37758 -1.59189)
(440.221 -6.36694 -1.27691)
(330.692 12.4865 4.08526)
(378.218 15.3343 -5.47771)
(388.984 2.23625 -10.1341)
(427.081 2.36774 0.793726)
(346.261 -0.305016 -0.129164)
(437.073 -1.93815 -0.294363)
(409.639 -2.92645 -20.5544)
(433.993 2.75068 -0.526703)
(330.173 10.5182 -6.59405)
(256.268 2.24973 -2.45468)
(446.349 -1.50101 -4.53721)
(380.581 -0.662034 -0.155149)
(423.135 -2.26352 0.510766)
(437.007 -12.2045 2.64175)
(440.551 -4.00194 -4.60262)
(447.791 -0.00457963 -0.154678)
(396.329 12.2497 -11.4531)
(353.999 2.27609 -4.73455)
(341.199 16.0676 -11.672)
(426.446 -0.18229 -1.81737)
(396.988 -0.470285 -0.291726)
(379.5 -2.44788 -1.68423)
(427.154 9.38039 0.0194201)
(261.779 17.9586 12.4171)
(219.86 28.7466 0.0672105)
(389.9 -1.02412 -0.164115)
(446.716 -4.60737 -0.386841)
(286.771 2.1652 2.99299)
(421.623 -0.76628 0.211134)
(351.112 11.8494 3.1108)
(420.459 -5.85658 7.84452)
(277.99 -2.61305 -2.39498)
(398.6 5.64764 -3.7773)
(383.517 6.06925 -22.4453)
(397.957 -7.14261 -4.76742)
(404.547 2.29335 -3.00804)
(402.133 -1.76334 -13.9629)
(424.135 1.31753 -5.96367)
(394.609 -1.01838 1.16421)
(371.239 1.4993 6.86679)
(384.407 0.164905 6.83487)
(386.214 7.68041 8.86119)
(366.465 0.341295 17.619)
(388.636 8.64042 7.62969)
(333.133 13.0218 -3.47979)
(385.055 4.54015 4.72005)
(403.96 1.70951 -8.53807)
(390.457 -5.04684 -1.61234)
(371.808 -8.1991 -13.5783)
(382.438 -3.03268 -4.92643)
(390.209 5.19973 8.1264)
(406.166 1.35532 3.28354)
(343.352 6.65043 -31.239)
(375.088 5.14729 -20.9144)
(361.381 -2.84955 9.33772)