/*--------------------------------*- C++ -*----------------------------------*\
  =========                 |
  \\      /  F ield         | OpenFOAM: The Open Source CFD Toolbox
   \\    /   O peration     | Website:  https://openfoam.org
    \\  /    A nd           | Version:  7
     \\/     M anipulation  |
\*---------------------------------------------------------------------------*/
FoamFile
{
    version     2.0;
    format      ascii;
    class       vectorField;
    location    "0.7/lagrangian/reactingCloud1";
    object      UTurb;
}
// * * * * * * * * * * * * * * * * * * * * * * * * * * * * * * * * * * * * * //


2563
(
(0 0 0)
(0 0 0)
(0 0 0)
(0 0 0)
(0 0 0)
(0 0 0)
(0 0 0)
(0 0 0)
(0 0 0)
(0 0 0)
(0 0 0)
(0 0 0)
(0 0 0)
(0 0 0)
(0 0 0)
(0 0 0)
(3.49661 -3.95848 0.504397)
(0 0 0)
(0 0 0)
(0 0 0)
(0 0 0)
(0 0 0)
(0 0 0)
(0 0 0)
(0 0 0)
(0 0 0)
(0 0 0)
(0 0 0)
(0 0 0)
(0 0 0)
(0 0 0)
(0 0 0)
(0 0 0)
(0 0 0)
(0 0 0)
(0 0 0)
(0 0 0)
(0 0 0)
(0 0 0)
(0 0 0)
(0 0 0)
(0 0 0)
(0.876317 7.22028 -1.90584)
(-5.50678 -15.3504 -8.33499)
(-10.1894 9.9127 -4.39459)
(19.448 -8.91208 28.7957)
(0 0 0)
(0 0 0)
(0 0 0)
(1.67979 -8.31122 10.475)
(0 0 0)
(0 0 0)
(2.4758 1.65948 1.17008)
(0 0 0)
(0 0 0)
(0 0 0)
(0 0 0)
(0 0 0)
(5.69969 -7.58595 7.84545)
(0 0 0)
(0 0 0)
(0 0 0)
(0 0 0)
(0 0 0)
(0 0 0)
(-1.2034 -1.45941 -1.87563)
(0 0 0)
(0 0 0)
(0.802589 0.325271 -0.122184)
(0 0 0)
(-9.17832 -0.477738 -1.25794)
(0 0 0)
(0 0 0)
(0 0 0)
(0 0 0)
(-0.0247392 0.84859 0.356196)
(0 0 0)
(-2.37749 -0.200299 -0.957469)
(-1.93462 1.26484 -2.09764)
(-1.06047 3.40431 -10.1086)
(0 0 0)
(0 0 0)
(0 0 0)
(0 0 0)
(0 0 0)
(0 0 0)
(0 0 0)
(0 0 0)
(0 0 0)
(7.03192 6.12316 3.2902)
(0 0 0)
(10.1466 -3.49534 -2.00087)
(0 0 0)
(0 0 0)
(-2.29894 2.48513 -0.756612)
(5.89347 -1.21186 -4.55479)
(0 0 0)
(0 0 0)
(0 0 0)
(0 0 0)
(0 0 0)
(0 0 0)
(0 0 0)
(0 0 0)
(0 0 0)
(0 0 0)
(-2.89748 2.79991 -2.94036)
(0 0 0)
(0.0344873 0.633762 0.657449)
(0 0 0)
(0 0 0)
(-3.57024 -0.36614 -2.93632)
(0 0 0)
(0 0 0)
(0 0 0)
(0 0 0)
(0 0 0)
(0 0 0)
(0 0 0)
(-1.50269 0.664486 -1.02119)
(7.54859 -4.34854 -8.93529)
(-3.01059 -2.52784 0.80086)
(0 0 0)
(0 0 0)
(0 0 0)
(2.70485 3.32679 5.48747)
(2.65297 5.53953 -17.3056)
(0 0 0)
(-3.02804 -0.87924 -1.40279)
(0 0 0)
(0 0 0)
(0.466623 -0.530511 2.03735)
(-0.0962621 0.186591 0.287126)
(-2.16001 5.70149 2.12817)
(2.80837 1.26786 -0.0564462)
(0.971982 5.74422 -3.78182)
(0.361627 -0.0677676 -0.0265211)
(-2.36794 -3.155 -12.6907)
(-1.9333 3.46002 -1.0247)
(5.28757 3.07942 2.4165)
(0.876591 4.79892 3.72284)
(2.52285 2.54015 5.08864)
(0 0 0)
(0 0 0)
(-0.323112 -9.61624 0.851265)
(2.31253 0.0803009 1.41449)
(0 0 0)
(1.72379 -0.505387 0.804452)
(3.59183 6.06301 -3.20108)
(0 0 0)
(5.33588 2.59565 -1.42277)
(-3.58807 -1.05444 -0.83866)
(0 0 0)
(0 0 0)
(3.3581 -4.82227 8.10639)
(-8.89992 -8.13006 -9.3513)
(0 0 0)
(0 0 0)
(0 0 0)
(0 0 0)
(-1.74255 18.2013 1.24353)
(3.18882 -4.18243 2.17372)
(6.17394 -0.17579 4.42713)
(3.83063 -1.42885 -0.551376)
(0 0 0)
(0 0 0)
(-7.38684 1.39524 -6.32431)
(-0.943202 -7.9323 5.76074)
(-0.175224 -4.46638 1.9437)
(8.12223 -10.076 -9.98351)
(-0.354102 0.289486 -0.339525)
(0 0 0)
(0.959562 -0.422846 1.52564)
(0 0 0)
(1.36826 -1.25829 0.367757)
(0 0 0)
(0.532341 -0.00274081 -0.270652)
(6.73523 -3.11709 0.714884)
(-0.151933 -2.07065 -1.62389)
(-8.70485 -4.52568 0.79943)
(11.2164 13.9722 26.1337)
(2.36298 -4.38271 1.28785)
(-2.74652 8.66361 0.0724913)
(5.23163 -14.5303 -2.52897)
(0 0 0)
(-0.395402 -0.347287 0.206744)
(0 0 0)
(-0.135543 0.265318 -0.193571)
(-5.68854 -11.863 -6.72586)
(-3.68267 -0.254918 -0.23914)
(-4.62271 -7.24921 1.04522)
(-14.3459 -8.41162 -3.35604)
(-1.32909 1.85129 -0.756314)
(1.57269 -5.85698 -1.60648)
(1.56686 0.172464 4.94658)
(-1.77897 -7.74986 6.96606)
(-5.73547 -4.71914 5.73063)
(1.5791 4.08909 9.22288)
(0 0 0)
(1.31311 1.85506 -0.733939)
(0 0 0)
(-0.129563 2.90443 -3.3767)
(0 0 0)
(-0.720573 -12.1506 -2.83137)
(-0.00345609 -0.0308045 -0.00360248)
(-5.02811 3.04042 -0.78331)
(0 0 0)
(0 0 0)
(-2.32396 0.393661 5.79736)
(-13.1234 -3.95013 4.04419)
(0 0 0)
(0 0 0)
(-5.64569 -13.818 7.75223)
(2.33039 -2.554 -3.1512)
(-1.70437 -2.36551 1.68119)
(-2.01982 -1.87658 -6.6651)
(1.13481 -0.688338 -1.26231)
(-5.68642 -4.06457 -2.20832)
(0.381319 -0.675908 -1.99311)
(0.0976664 -2.16885 -0.940455)
(-0.10678 -2.72177 1.18447)
(-3.69513 -0.72023 2.86657)
(0.317475 -0.248561 0.818867)
(0.704438 -0.386715 1.64836)
(-3.94351 -3.58167 2.98658)
(-2.28051 -5.24538 8.66212)
(13.4419 12.5164 -3.05439)
(-9.64656 6.47867 9.3221)
(-0.54295 0.194346 -0.379694)
(0 0 0)
(0 0 0)
(0 0 0)
(0 0 0)
(0 0 0)
(0.00588076 -0.0389666 0.0272731)
(-0.107596 -0.202139 0.238046)
(-3.22172 13.7862 -5.0083)
(7.72685 0.897009 6.29085)
(-1.32233 0.0780548 -0.175652)
(-0.178125 1.74833 -0.843594)
(-2.67848 -3.54145 1.34475)
(0 0 0)
(5.54015 4.29824 0.285481)
(0 0 0)
(3.69975 -6.35974 -2.0492)
(-14.231 8.47698 -2.98057)
(-5.78292 -5.45286 0.238518)
(-3.60959 -1.46273 -0.419111)
(9.09272 0.11823 -5.88582)
(-1.37655 -7.40541 10.8403)
(0 0 0)
(1.33048 -0.518271 1.3603)
(1.99164 1.4031 -0.676348)
(0 0 0)
(-1.35476 -1.18898 -0.011691)
(0 0 0)
(-6.79741 9.45735 -13.5138)
(0 0 0)
(0 0 0)
(1.36246 -8.93486 -4.60319)
(4.13463 -16.0444 -17.0995)
(4.97757 -6.96727 0.903824)
(0.0879506 -0.0910202 0.14813)
(-7.461 4.32429 2.25016)
(-0.452008 3.0615 1.87167)
(2.02581 -2.52041 2.2896)
(1.96793 -2.12496 -0.208855)
(-0.798745 -2.86456 -2.05073)
(-0.342501 -1.59793 -2.39289)
(1.37023 -3.26575 2.42069)
(-2.91277 -1.29446 -0.821534)
(-0.206083 -2.17308 -7.32694)
(-1.82455 -4.05212 -1.82526)
(-16.7014 -2.05564 -3.31281)
(1.21845 -7.55625 1.1666)
(0.131795 -1.30869 0.852718)
(-0.0029014 -0.106919 -0.0434837)
(0.0498082 -0.668196 -0.155477)
(0.00106893 -1.32969 7.00061)
(-4.09226 -1.70581 -1.67946)
(3.49933 -0.959018 2.48749)
(-0.101182 -0.700821 0.0965278)
(0.25334 -3.55878 -0.732664)
(-2.55734 -3.11426 3.55308)
(1.243 -0.512803 -3.12572)
(-1.28511 -2.66451 0.98808)
(-6.33732 -1.90531 -1.09035)
(0.220898 -0.391642 0.634029)
(2.66689 -2.54926 0.153002)
(2.80486 -1.43094 1.38145)
(-3.61201 -5.64598 2.87645)
(-0.0148343 -3.34288 -2.16258)
(0.516085 -0.969333 1.14885)
(-1.56319 -1.12798 1.05435)
(0.105423 -2.09797 -0.455736)
(-1.08148 -1.28701 2.42702)
(2.62632 -6.27128 0.878381)
(-3.47487 -6.40021 2.12638)
(-6.03585 1.88532 -5.70685)
(13.5184 11.9121 -19.3949)
(-3.71718 1.2385 -5.14926)
(-3.37015 15.6761 -5.71962)
(-0.124365 -0.843864 0.2104)
(-5.96925 -2.95604 -5.16003)
(8.22942 -31.7034 -3.62374)
(-0.994631 -1.13288 0.941069)
(-0.102492 2.35004 0.313531)
(-3.49486 14.0975 -14.9254)
(0.876449 -1.18214 0.664816)
(-3.15453 5.84373 -2.64173)
(0 0 0)
(18.455 18.8763 20.6475)
(-2.59242 17.761 -14.2995)
(-4.58471 11.089 -1.17099)
(0.217438 -2.01724 7.36292)
(-6.35542 -2.05469 -1.10448)
(7.1927 15.0399 7.0204)
(-0.220932 -0.303708 0.34168)
(-14.102 -4.73676 -10.9598)
(-31.4219 2.48891 -1.4688)
(-2.32392 5.86576 -0.147232)
(-3.99769 -2.96675 0.824029)
(0 0 0)
(-2.68732 -8.29962 1.3317)
(4.73182 -1.60971 0.867244)
(-9.5252 -7.39035 -11.2953)
(-1.80581 -0.45598 0.845274)
(1.72598 -1.89593 1.53372)
(0.577944 -0.657939 4.10235)
(-4.55768 -7.2323 8.62662)
(3.27242 0.810806 7.79631)
(1.96782 -12.2534 4.10044)
(0.47874 1.29775 -1.03754)
(-1.27376 -9.70885 1.99156)
(0 0 0)
(4.31894 1.90967 1.23983)
(10.1521 -12.2249 3.8354)
(-3.81098 5.84152 -5.50362)
(-11.7419 2.14513 4.3697)
(-0.321692 -0.0186427 -0.23546)
(-1.93862 -0.268487 1.45129)
(0.165136 2.19101 1.06349)
(-1.93765 -1.39819 1.30691)
(7.39205 3.99311 4.94812)
(-2.18851 -2.3996 -0.517476)
(3.27476 -1.64123 9.55052)
(0 0 0)
(0 0 0)
(-2.60501 -11.6234 1.40349)
(0.367279 -1.3054 -0.247144)
(-5.46838 -1.00095 -3.20075)
(-2.21601 12.0093 -5.23025)
(-1.67586 -0.235857 5.75959)
(0 0 0)
(7.8317 -4.75046 -2.31055)
(2.82042 -0.995261 -4.60992)
(-9.52358 -19.4178 -9.11429)
(0.0626641 -5.6013 -11.5448)
(1.83642 0.193678 2.04263)
(2.0623 -2.26018 -2.78868)
(3.29866 -1.70445 -0.479794)
(4.68936 -2.17025 0.497733)
(-1.03726 -0.686473 -1.52873)
(0.401759 -6.68328 -1.38954)
(-0.092915 -0.137445 0.281277)
(1.01838 -1.52469 -1.72216)
(2.16141 -1.00225 -0.0200018)
(0.817862 -2.01611 -2.9192)
(0.990207 -1.13877 0.897239)
(-2.92695 -3.23695 1.04004)
(-0.174872 -0.420418 0.232372)
(-2.51314 -0.511475 1.72274)
(0.0848977 -0.642676 3.34783)
(-0.122897 -0.219546 0.358022)
(-1.21765 -2.88495 -1.55808)
(-1.04697 -0.598836 0.451356)
(-1.35699 -0.839245 0.702281)
(0.0469659 -0.630065 -0.146605)
(0.258932 -2.51702 1.99738)
(-0.496264 -0.108829 -0.0901846)
(-2.96515 -0.891574 2.86759)
(0.881627 0.0333961 1.06863)
(0.262181 -0.844097 1.44687)
(-0.139509 -0.487533 0.129059)
(-1.47469 -0.578617 -0.86086)
(1.78858 -0.890542 -3.58525)
(4.76005 -1.94126 -1.62022)
(-8.53696 -3.21847 -1.03561)
(0.219395 -3.08193 -0.634493)
(-2.27333 -2.7684 3.15849)
(-0.383702 -0.849245 3.173)
(-1.18456 -2.45603 0.91077)
(4.04548 -2.08252 1.49255)
(0.784318 -0.685618 0.414113)
(-1.86484 -1.01693 -3.10606)
(-0.05252 -0.349943 -0.0521567)
(3.13523 -1.39969 -1.7128)
(-1.54172 -2.37726 2.47653)
(-6.6874 -0.724169 -0.905675)
(11.6327 -4.8044 -1.12224)
(0.604098 -0.330348 -0.199467)
(-1.84193 -2.7156 -0.950035)
(2.47146 -4.82252 -2.54347)
(-0.0171267 -0.0330886 0.0271109)
(0.0397834 -0.102188 0.0887882)
(2.71514 -1.13505 -2.58654)
(-2.29239 -1.46899 1.21247)
(0.616472 -4.45365 -0.377142)
(0.0917287 -1.82545 -0.396537)
(1.41461 -0.0895891 2.29886)
(-1.20792 -0.753736 -2.23007)
(3.14345 -12.0263 2.90849)
(7.60006 -2.4825 7.76333)
(-1.22002 -0.905399 0.25148)
(-0.578595 -2.06928 -2.66448)
(-1.68225 -3.83838 0.194043)
(0.144085 -1.89413 -1.01142)
(-0.0829395 -0.0303298 -0.744216)
(-2.40616 -2.01947 -2.10988)
(-0.782047 -1.37067 1.83134)
(-0.0592879 -0.334128 0.879772)
(-6.93946 -2.17305 -0.99439)
(-0.19099 -0.249064 -0.364938)
(0.608434 -3.50624 -1.96313)
(-2.56556 -3.0078 1.44051)
(9.39123 -7.27233 -7.98902)
(-3.91081 -6.95942 -0.760999)
(-1.87899 -1.45762 1.00727)
(2.02446 -3.72664 -0.135029)
(15.725 3.53139 -3.46319)
(4.15166 5.94312 -4.07508)
(-1.36073 0.287466 1.58498)
(-0.52281 0.208404 -1.25826)
(-2.89333 0.548153 -0.601185)
(0.0246275 0.0875799 -0.685383)
(-10.4881 -7.26944 -3.85139)
(0.714345 -0.377171 0.169749)
(0.0639324 -10.2314 7.1202)
(1.86191 -21.0193 -15.138)
(3.69516 9.4625 -4.59678)
(-5.59812 -7.2298 -2.7068)
(-6.27544 -17.3123 6.75423)
(-1.00573 -3.47822 3.46243)
(-5.41005 -7.48617 0.715932)
(7.75414 -13.0086 0.507203)
(14.626 -10.8141 -7.94089)
(-2.45526 5.05605 -0.145145)
(-10.4787 4.71713 -21.5411)
(0.0218265 0.198661 0.318638)
(1.40154 -0.0184435 -2.21879)
(1.04948 -0.358932 -0.0247536)
(2.95019 4.22013 -1.25707)
(-0.384483 -1.10523 -1.2132)
(0.586593 -7.11153 -7.69933)
(3.10772 -0.975393 -2.21174)
(0.0338086 12.4617 -5.04021)
(1.99884 -3.23807 -0.41303)
(3.27495 4.50356 -0.32001)
(2.44212 0.203881 0.531063)
(-7.73169 0.0274109 14.3045)
(-0.36956 -1.26989 1.173)
(-0.00249914 0.0175566 -0.00388106)
(0.996675 -5.04643 7.8418)
(3.78924 -1.57213 3.45689)
(7.06255 8.91957 -12.031)
(-1.29629 2.02524 0.442691)
(3.90874 1.23146 3.10843)
(-0.685128 -2.45028 -3.15507)
(-16.8535 -10.2514 -0.920164)
(-3.85249 -9.12758 -4.92957)
(4.33749 -5.16312 2.89083)
(6.4903 -3.40283 1.05112)
(6.59793 13.7232 3.50612)
(-3.98292 -10.7934 -2.94743)
(-17.0977 23.9098 -0.282868)
(1.15035 0.119888 -1.08749)
(1.66372 -0.439475 -1.14939)
(9.2487 -16.103 6.95241)
(-5.76004 -3.77547 6.88449)
(7.1915 -9.94125 6.37897)
(5.94131 -3.59003 0.308526)
(0.339382 2.1289 -0.799823)
(-0.820363 -1.06288 4.60029)
(-2.57979 0.433893 -0.550155)
(6.07066 3.9378 4.38042)
(0.547263 -0.0655933 -0.193095)
(-1.03298 7.6861 0.90009)
(6.44772 -6.52811 6.31155)
(2.02465 0.0644987 -1.43342)
(-0.358824 -0.473628 -0.654672)
(-1.87141 -4.69031 -1.58035)
(0.668007 3.31985 1.6865)
(2.58964 -2.57414 -3.90093)
(0.122189 0.217638 0.109145)
(8.08023 0.310125 0.936294)
(0.137881 -0.13902 -0.0337171)
(18.6998 -6.10813 19.1015)
(-21.7288 -15.9599 -0.476412)
(-3.95972 -4.12331 1.57897)
(4.59159 -4.65527 3.6773)
(-1.60175 -2.17079 4.54478)
(-0.411156 -1.42173 -1.00747)
(2.8732 -1.48461 -0.41791)
(1.74615 -1.91369 -2.36117)
(-1.24309 -0.571513 3.16994)
(-0.218121 -0.693926 3.03221)
(-2.81939 -2.32223 -0.435384)
(-0.535015 -0.241714 -0.664218)
(1.25926 -1.82332 -0.275927)
(1.69168 -0.363739 1.42959)
(1.13151 -2.6968 1.99897)
(-0.415349 -0.248775 -0.409467)
(1.51194 -0.232473 0.454639)
(-4.22621 -2.34974 -0.782391)
(-0.221791 -0.121452 0.0545325)
(-0.931973 -4.75145 4.89091)
(1.20214 -0.529246 -1.02218)
(-0.224552 -2.76375 1.38668)
(1.14773 -0.505293 -0.975916)
(0.00219401 -0.252547 0.151323)
(-0.711855 -0.652216 -0.459613)
(-0.644826 -0.387601 2.09691)
(2.35707 -0.63167 -0.557415)
(-0.0422863 -0.578112 0.35476)
(1.47007 -0.287514 1.45751)
(0.967053 -0.432706 -0.920549)
(-1.07418 -2.0682 2.7538)
(5.10606 -3.7753 -2.77224)
(-2.69183 -5.48843 -2.57615)
(0.42519 -1.94477 -0.0882342)
(0.000808621 -1.00588 5.29581)
(-0.202638 -0.346656 2.46451)
(1.18162 -1.85516 -0.865128)
(-0.297831 -1.28979 -0.826692)
(-3.31942 -0.903912 1.33771)
(0.146132 -0.154039 -0.182851)
(-1.24406 -0.769399 0.643833)
(0.565464 -0.610876 1.17248)
(3.16562 -0.730096 -2.02006)
(-3.09002 -1.28804 -1.26814)
(1.15778 -3.44563 -4.99807)
(1.22226 -0.183315 -0.221333)
(-1.42783 -1.16154 -1.83332)
(1.2751 -0.308249 -0.489271)
(0.224362 -0.722336 1.23816)
(0.923709 -1.7554 -1.70872)
(0.6465 -1.11885 1.19821)
(-3.15752 -1.62383 0.266525)
(0.724401 -1.62856 -1.69291)
(5.01336 -1.5056 -3.25326)
(-0.0852112 -0.163621 0.00880176)
(-0.60006 -1.64464 2.61341)
(-0.229517 -1.03786 -0.341238)
(-1.34069 -1.68523 -0.277584)
(-2.19133 -0.892548 0.27011)
(1.40406 -1.36281 0.324631)
(1.91621 -2.77866 -0.642936)
(-1.02527 -0.813739 -0.746839)
(2.52344 -1.20837 -1.26999)
(0.721158 -1.60968 -0.757131)
(6.05508 -1.83176 2.71853)
(-4.29445 -2.20401 -2.64379)
(-0.609938 -1.23689 -0.0245869)
(0.312468 -0.0315798 -0.68119)
(2.55648 -1.14132 -1.39662)
(0.487207 -0.708435 0.557408)
(0.306404 -3.11629 0.358438)
(1.06522 -1.07969 2.33329)
(-1.46074 -0.779661 0.965692)
(-1.07651 -0.781476 0.772782)
(-1.57639 -1.77932 0.861223)
(-0.816172 -0.7163 -0.00704321)
(-0.317674 -0.470945 1.02292)
(-0.385137 -1.00162 0.0601628)
(-0.374059 -0.142954 0.320539)
(-0.660021 -0.771766 -0.3245)
(-0.480983 -2.0744 1.88633)
(1.23375 -1.937 0.183677)
(-0.524795 -1.57681 1.01802)
(-1.54336 -1.76464 -0.973847)
(-7.30661 -4.0369 -4.05626)
(-0.0994315 -0.0364001 0.0903083)
(0.245982 -4.01082 3.00828)
(4.63593 -0.497938 -2.23348)
(2.87729 -1.7195 2.67235)
(0.51312 -0.129862 -0.362283)
(-0.600842 -0.878947 -0.837029)
(1.8576 -4.05134 -3.23038)
(0.494919 -4.383 0.0788903)
(3.55414 -1.0322 1.2539)
(-0.0230014 -0.384962 0.0845688)
(0.0460866 -0.275032 0.396965)
(-1.66818 -2.45944 -0.860417)
(0.92634 -1.72128 -1.28795)
(0.791917 -0.649013 0.977893)
(2.78014 -0.695385 0.5739)
(0.657278 -0.367154 -0.073254)
(-1.9895 -1.89641 -0.836022)
(1.0671 -1.59992 -3.39685)
(1.83345 -1.62611 -2.0639)
(-1.58359 -0.852785 1.22712)
(-8.07703 24.127 -7.05922)
(-1.32808 1.60913 -4.45918)
(-0.288596 -0.71123 0.595653)
(0.59856 -0.437655 -4.21604)
(-0.514954 -0.583373 -0.359089)
(6.19834 -3.97449 0.569664)
(2.05014 -3.33313 -2.7638)
(-0.0916086 0.451546 -4.68361)
(1.86793 -0.290237 -1.3608)
(9.2659 -5.05991 -1.43016)
(-1.97512 -0.278629 11.1442)
(-0.0140347 -1.58296 -2.59793)
(5.93653 -6.14422 2.33681)
(0.497794 0.848513 0.491455)
(-15.1446 12.9148 -4.5096)
(-1.15275 -1.62163 -1.49512)
(1.3272 0.606259 -3.36549)
(-9.38462 -2.06368 7.9896)
(0.88522 8.62076 1.4404)
(-0.00809488 0.0345781 0.0377164)
(0.787933 -12.3183 -9.1002)
(-4.20766 0.976909 21.0927)
(0.063991 -0.338502 0.0125643)
(0.969806 -1.71866 1.20564)
(-3.3817e-05 -0.0400433 -0.02124)
(15.9462 10.0111 -17.3304)
(2.39593 -2.03933 1.17409)
(-2.22758 1.16803 1.20699)
(-0.947884 -0.421056 1.61511)
(-1.34673 2.11381 -0.370934)
(-1.06379 -0.526306 0.933722)
(1.44989 3.21573 1.87832)
(1.07477 2.04858 -1.81563)
(-1.74405 -4.29816 -3.72349)
(0.936577 4.16334 6.10659)
(-9.69241 -19.576 -6.45428)
(-2.64476 1.00471 -2.57141)
(-0.192894 -0.421438 -0.178211)
(1.60444 -0.455657 0.373765)
(-6.35101 -22.7681 -6.21524)
(0.00208337 -0.268497 -3.09907)
(-0.56288 -0.224999 -0.0279052)
(-1.1 7.86608 6.67894)
(-14.6955 15.1714 -9.55378)
(-0.268215 2.21645 3.34569)
(1.15819 3.69921 1.76185)
(5.36931 0.562494 4.70241)
(1.17202 0.821112 -4.72772)
(5.32515 -4.73348 8.45162)
(5.28733 -11.5314 -9.19471)
(-3.64781 19.9144 4.40764)
(10.0876 -9.9996 15.6001)
(2.1494 -0.0192606 -1.55749)
(-5.17672 19.4899 17.9975)
(3.94977 -6.03107 5.18565)
(-2.26401 -1.73581 -1.64702)
(3.02893 0.348384 1.36219)
(0.286304 -4.73533 0.454281)
(-0.567897 0.319108 -0.109079)
(-0.226297 0.280924 -0.052586)
(-1.23087 3.0753 -5.00147)
(6.14712 5.29463 4.99543)
(-17.2522 5.23964 -6.33455)
(2.18474 -3.54981 -3.64112)
(0.960361 -9.76738 1.12345)
(2.32284 -1.20668 -0.747755)
(-5.68964 -2.80111 5.74982)
(0.765598 1.56889 1.62035)
(-0.0461342 -0.656475 -0.521737)
(0.754879 -6.6852 0.120328)
(0.413557 0.606178 2.41796)
(5.18035 0.876552 -4.2048)
(-1.62788 -9.30891 -13.538)
(1.91227 4.42228 0.928229)
(-2.40059 -0.875665 4.51519)
(-0.516448 -1.35884 -0.395404)
(1.66898 -6.59288 -7.59006)
(4.59416 -4.65787 3.67936)
(-5.95677 -8.26747 5.87575)
(0.876776 -0.983072 -1.29207)
(0.987129 -3.03274 -2.9682)
(1.07334 -0.689229 0.404837)
(2.27731 -9.82646 -14.4735)
(-16.827 -11.7772 5.18205)
(4.36375 -2.01956 0.463173)
(2.86076 -2.43249 6.93479)
(1.90244 -11.3979 2.28768)
(-1.58628 -1.97007 -1.06226)
(-0.973712 -1.95132 1.40273)
(-20.044 -4.9713 -6.62811)
(5.15363 -10.6002 -2.85475)
(1.57784 -0.799487 0.126677)
(4.95746 -11.8154 8.758)
(0.933803 -1.39807 -1.57914)
(2.86455 -2.02589 0.574871)
(3.58054 -1.03513 4.42473)
(0.596399 -7.92918 -1.90074)
(-6.86772 -15.2525 -6.87043)
(0.322779 -1.1678 -1.37713)
(-13.1015 -6.35687 -5.15238)
(-3.4847 -0.702823 -6.13314)
(-2.52294 -1.12121 -0.711583)
(-0.857034 -1.72819 -0.726417)
(0.644912 -2.99562 -0.426143)
(-1.51088 -3.61909 4.56498)
(-1.85801 -3.35113 2.84928)
(1.36493 -0.209868 0.410433)
(-3.1284 -2.8663 -2.01986)
(-7.42604 -2.49811 2.90825)
(-6.78906 -3.41671 1.18934)
(0.802792 -0.923236 0.727419)
(-12.6524 -5.94346 -2.33273)
(4.06744 -3.4461 -3.58136)
(4.33383 -1.93916 -4.12542)
(10.4596 -4.23337 3.98418)
(0.794377 -2.75368 12.2011)
(6.77733 -2.87085 -0.395259)
(0.303579 -0.688081 -0.579573)
(7.5251 -7.12529 1.86196)
(2.39198 -15.6863 -8.0815)
(0.126223 -4.29794 5.01795)
(16.6774 -5.39871 14.3588)
(0.609557 -0.787071 0.201594)
(-3.02231 0.0208906 -5.97008)
(-15.5016 -2.70144 -10.3738)
(6.62515 -8.75835 3.35301)
(-0.224564 -0.609843 -1.51444)
(2.54838 -3.83129 -3.9805)
(0.166692 -1.11643 -4.53879)
(4.84607 -0.751574 -3.04461)
(-8.76963 -16.5105 8.3664)
(0.0208029 -0.0525941 -0.347478)
(1.23267 -1.93529 -0.902498)
(10.105 -0.569634 1.44058)
(4.48801 -0.673111 -0.812707)
(-1.25685 -0.619403 0.986775)
(0.0404786 -0.543036 -0.126355)
(-1.30264 -5.64124 -3.61575)
(-0.169751 -1.17575 0.161942)
(3.17399 -0.732027 -2.0254)
(1.39778 -4.15988 -6.03412)
(2.01432 -2.00226 -3.03429)
(-4.94101 -3.76575 -2.86335)
(3.42743 -7.70536 -8.00982)
(1.61883 -0.893773 4.34389)
(-5.31692 -2.73434 0.448799)
(-0.0871726 -0.236733 -0.587886)
(0.88687 -0.500344 2.14327)
(-2.05949 -6.44042 24.4075)
(15.6889 -4.71164 -10.1808)
(8.25892 -3.5494 2.81924)
(-0.450221 -1.68514 1.30796)
(-0.0725592 -3.09809 -1.06992)
(0.0324092 -3.14419 -1.48416)
(-1.30896 -4.18157 2.64155)
(-0.00216495 -0.0797806 -0.0324464)
(-3.88146 -1.58095 0.47844)
(2.71738 -0.256021 -0.395327)
(0.358608 -8.56584 -4.06592)
(6.16548 -3.46608 -5.67324)
(-0.238473 -1.07836 -0.354553)
(0.731323 -0.834525 0.454194)
(1.8141 -2.72171 15.8735)
(3.62084 -0.182723 -0.415392)
(3.62759 -1.03344 -0.21269)
(-1.39238 -2.44351 -0.450331)
(3.87754 -0.772265 -5.93413)
(-1.02584 -0.814194 -0.747256)
(-1.91414 -0.409059 1.51993)
(7.33741 -2.17118 -0.356025)
(-0.637669 -5.80089 1.2666)
(-1.92755 -3.84088 -0.610991)
(0.206496 -0.161672 0.532617)
(9.2324 -1.60515 5.57559)
(-1.42237 -10.9742 0.0769004)
(0.4337 -2.59956 2.44897)
(0.60984 -0.8446 -1.97335)
(-19.2738 -11.7237 -1.05231)
(-11.3899 -1.23339 -1.54253)
(0.428328 -4.35632 0.501068)
(-1.99459 -1.0923 1.72322)
(-2.76179 -2.42383 -0.023833)
(-0.643405 -4.90417 1.00599)
(2.13958 -0.600159 2.38314)
(-11.2409 -8.89964 1.78612)
(1.16783 -1.63465 0.212054)
(-2.29879 -4.53367 -3.95768)
(-14.9606 -36.5332 16.5223)
(-0.352527 -0.180484 -0.279789)
(14.0323 -5.79544 -1.35373)
(4.83392 -8.43831 9.11622)
(19.9722 -19.5025 19.1614)
(-0.768787 -1.57419 1.29531)
(-6.24476 -5.19276 -0.973136)
(-0.952715 -0.448226 2.34389)
(-0.51217 -1.65883 1.30507)
(0.695171 -2.09297 1.95762)
(8.25201 -4.20988 4.06428)
(-3.85767 -3.50371 2.92157)
(-1.69095 -0.0482438 -0.39074)
(-0.139565 -0.591686 -0.297534)
(3.0569 -3.7184 0.362934)
(-0.980749 -0.677032 -0.529366)
(-1.80842 -2.64547 -2.51931)
(-1.25077 -4.78837 3.84022)
(1.06205 -14.3972 -7.72757)
(-0.293231 -0.082314 -0.176512)
(1.8305 -1.17264 -0.384838)
(0.82385 -7.296 0.131322)
(-0.0966959 -0.460409 1.81274)
(1.97844 -4.3149 -3.44053)
(2.98676 -0.788956 -2.06342)
(-0.442262 -2.30969 -11.8202)
(11.7745 -2.94509 2.43058)
(2.8587 -1.01393 1.09043)
(0.210103 -0.350002 0.565965)
(-0.310056 -0.450156 3.29969)
(15.3431 -14.4262 2.28763)
(-5.14737 -4.90652 -2.16302)
(-9.44866 -9.61438 -16.5772)
(0.742118 -3.51382 0.0980276)
(-0.804308 -3.37913 -1.07399)
(2.6076 -1.09009 -2.48409)
(-5.90884 -3.18199 4.57874)
(-12.0056 -5.88122 6.4344)
(0.662241 -2.4513 -0.142364)
(-0.694305 -0.564262 -2.73161)
(-8.76218 -2.29633 1.41786)
(-0.156744 -2.23042 -1.77264)
(-0.425362 -3.79991 -0.046089)
(0.644838 -0.334985 -0.207583)
(0.836155 -1.18982 0.648186)
(21.7064 -7.09024 22.1728)
(-0.996095 -3.85111 0.826667)
(0.0524042 -0.064025 -0.0947445)
(3.40323 -5.19654 4.4681)
(-0.600873 -0.785953 -1.80067)
(-5.35517 -1.35221 2.50667)
(-0.320589 -0.426991 -0.81771)
(-0.265998 -0.764636 -0.839334)
(0.220559 -2.89945 -1.54823)
(-2.5226 -2.87322 2.38675)
(6.35682 -32.5855 -15.5253)
(1.6218 -13.2308 -5.54648)
(-1.30132 -1.27688 -5.63392)
(3.11771 -5.42829 2.34364)
(-9.93824 -8.34107 -8.71451)
(0.832618 -0.419367 0.024429)
(0.71681 -0.990976 -0.265923)
(-1.14076 -0.466415 -0.0589486)
(3.6924 -5.5361 -11.7539)
(1.96 -1.54388 -1.03975)
(0.25325 -0.752687 3.25039)
(-1.59753 -3.50113 0.285291)
(-8.95951 -5.06645 2.32977)
(-1.64618 -0.516434 -2.09001)
(-1.47477 -0.325121 0.597974)
(5.26851 -4.59978 0.590207)
(0.973966 -1.72603 1.21081)
(3.41873 -11.2225 3.56766)
(-1.9844 -1.52143 -1.44361)
(3.73277 -1.27664 -0.0880431)
(0.8608 -10.1648 -18.3357)
(1.42977 0.228386 -8.15428)
(1.80904 -0.329434 -3.38359)
(2.73803 -4.43555 -0.565773)
(0.0327139 0.116337 -0.910427)
(-3.10028 -2.14884 -1.13847)
(-0.741313 -0.174878 2.43869)
(0.118267 -1.36085 -0.543653)
(-3.20274 -2.32441 -4.9641)
(-8.54586 -2.72365 4.39155)
(-6.18384 -23.1564 1.83083)
(-0.63378 -0.0877749 0.474462)
(-2.76387 -15.805 -22.9853)
(3.17362 -0.445946 2.29466)
(3.364 -7.94855 0.974712)
(1.44724 -1.93064 -1.85212)
(-0.194071 -0.331065 1.12314)
(-2.64024 -0.180022 2.40704)
(-5.86673 -2.90527 -5.07142)
(-1.75301 -0.404347 -0.728292)
(-0.820468 -3.66089 0.44204)
(-10.1451 -24.8304 13.9304)
(0.52309 -0.559873 1.93179)
(-11.9724 -5.83106 5.28746)
(0.113354 -0.117311 0.190916)
(4.29078 -0.559796 -4.69999)
(3.57328 -1.22326 0.820225)
(-7.12996 -0.7312 -5.86399)
(-4.65991 -1.36943 -1.08919)
(-2.79173 1.78569 -20.4059)
(2.18849 -2.87041 1.49183)
(11.1227 13.7316 -0.0657782)
(-7.47534 -9.96001 -40.0632)
(0.554278 6.51031 -3.89521)
(2.76224 -1.21723 4.39178)
(-2.83845 2.04103 -7.02841)
(3.10802 11.2995 -3.09093)
(-4.94366 13.0491 4.87079)
(-9.78828 12.9221 -14.9094)
(4.8025 0.608819 2.29791)
(-1.57049 1.25006 0.533019)
(-9.93139 4.26707 -15.7931)
(-10.4132 2.24732 3.30889)
(-1.71209 -11.3088 9.29824)
(9.79661 -14.068 23.6488)
(4.2413 -10.2718 -11.4368)
(8.91647 1.07145 -6.84833)
(8.21812 -5.91916 -1.06696)
(0.461426 -3.7525 -1.32081)
(-0.0860481 0.328953 -0.173149)
(-2.42244 -3.54984 4.90761)
(-0.18641 -1.05055 2.76613)
(1.76888 2.54462 4.50404)
(-5.56348 9.97936 7.23584)
(13.5319 12.2586 -0.494177)
(0.714523 -5.90204 -20.318)
(-0.0517224 12.5284 3.43714)
(-10.6024 0.653464 8.16143)
(-22.0794 -11.5816 -18.7841)
(-8.11288 7.83969 -8.23293)
(1.26479 2.34678 -4.39387)
(-4.78436 8.56255 -2.53582)
(0.401409 0.373798 0.501103)
(-1.80238 7.79908 4.75507)
(6.59664 4.24662 -8.93181)
(2.30321 -2.19776 0.0612964)
(-0.856606 -0.925659 9.1397)
(6.36213 16.6954 -7.00162)
(9.30565 6.69291 6.36655)
(-10.1882 -1.83911 7.80896)
(-0.116798 9.75322 1.92062)
(-43.413 11.3883 1.96365)
(-2.25286 2.83617 -1.42331)
(2.56578 -0.939239 0.515494)
(9.03901 2.86137 -6.27781)
(-1.7237 -8.70782 -0.620677)
(8.19725 -0.747528 0.199843)
(10.4432 33.2684 -26.7137)
(-2.75376 5.69641 -5.792)
(6.6029 9.00968 -6.82175)
(17.8802 -5.42258 1.0175)
(-1.89856 1.61377 -1.70009)
(-6.34386 1.32874 19.754)
(0.782498 5.93694 3.67674)
(4.1373 2.09845 0.694812)
(-9.08006 -15.181 18.1345)
(7.35977 6.17289 11.3581)
(2.44695 1.43945 9.19755)
(7.30425 -4.18465 5.02033)
(0.528507 0.743073 1.8318)
(-0.00473046 -0.00829017 0.0056297)
(-0.252127 0.790112 1.34204)
(25.1527 4.27277 -6.02235)
(2.69141 -0.50759 -0.805933)
(4.80447 -0.0779798 4.98662)
(2.23539 11.0054 2.56291)
(-1.09608 -0.148397 -1.72586)
(-3.31545 8.5358 -17.7164)
(-4.55258 -8.67985 -2.7765)
(12.9059 8.86002 3.13083)
(-2.23991 4.50602 8.78069)
(13.7714 1.72334 -6.32273)
(17.3045 -5.69881 27.0755)
(3.79456 0.694976 -2.43381)
(0.176458 -4.19744 4.92491)
(6.95775 14.6645 11.9082)
(-3.69507 6.97595 -1.11277)
(-2.91954 1.01935 3.37386)
(1.79404 -2.50197 0.970871)
(1.69168 -6.26179 -0.363665)
(-8.672 2.94045 -2.38595)
(1.36174 -11.6676 -5.78905)
(3.69805 0.340437 -0.917383)
(-0.513522 -6.84371 -4.74767)
(-9.13695 0.577847 1.54575)
(8.51464 -2.01824 2.61007)
(-0.40764 -0.331289 -1.60378)
(-0.132122 1.0259 2.83323)
(-7.57872 3.9947 7.40868)
(-2.32187 4.61085 -4.24474)
(-14.0436 -0.718184 -7.56866)
(-2.4716 -0.263364 -0.737513)
(-0.314606 -0.184049 0.0456073)
(0.259418 2.06741 3.17035)
(1.68045 -1.88445 0.834935)
(-16.6192 -11.6362 4.88941)
(9.21453 7.40939 4.54589)
(-14.8384 4.69453 -1.59189)
(0.303562 -6.17611 -1.27692)
(-6.66878 12.4575 4.08526)
(16.452 15.8001 -5.47763)
(-2.98869 2.98385 -10.134)
(-3.76505 2.73594 0.793718)
(-0.149377 -0.144879 -0.129138)
(-0.306187 -1.6874 -0.294368)
(10.7468 -2.18693 -20.5544)
(0.630829 3.08132 -0.526713)
(-7.27774 10.4836 -6.59405)
(-1.30758 2.00668 -2.4547)
(6.24791 -1.30487 -4.53724)
(-0.0790703 0.0771533 -0.155127)
(-4.03341 -1.8409 0.510741)
(7.84847 -11.8155 2.64169)
(0.24444 -3.82089 -4.60263)
(0.00832892 -0.00396744 -0.154678)
(9.59555 13.0189 -11.4531)
(7.11192 2.44421 -4.73453)
(2.86886 16.0401 -11.672)
(-5.90469 0.142343 -1.81745)
(0.481588 0.290162 -0.29173)
(-0.395642 -1.71628 -1.68422)
(-1.12509 9.77156 0.0194074)
(14.0949 17.9237 12.4171)
(-28.2309 28.7453 0.0672104)
(0.309195 -0.256506 -0.164126)
(0.632374 -4.56853 -0.38687)
(2.62243 1.65571 2.99297)
(-0.340025 -0.296773 0.211133)
(-2.9096 12.1483 3.11078)
(3.16947 -5.32039 7.84448)
(-17.063 -3.15513 -2.39498)
(-2.47948 -6.52382 -1.89834)
(-2.77588 -12.619 -19.5292)
(15.9978 -8.26624 -2.3269)
(-0.892526 -3.08624 -2.18698)
(-1.36 -12.3327 -6.7806)
(14.8797 -2.82409 -5.41532)
(0.695224 -1.29983 0.838405)
(7.27065 -6.81029 1.73803)
(14.2182 0.164906 6.83487)
(24.6966 -11.4297 2.62132)
(-1.23571 -3.93126 17.1782)
(17.7415 -11.5154 0.513802)
(-28.2043 -13.0171 -3.49729)
(-11.6032 -6.32935 -1.68258)
(-2.05461 -7.1046 -5.03447)
(2.98956 -5.26176 0.619739)
(-6.24708 -15.1787 -4.60434)
(1.34571 -4.13441 -4.04642)
(8.8918 -9.60131 -0.943682)
(4.76999 -3.06296 1.79911)
(-33.5194 -20.5222 -24.4733)
(2.8038 -12.0983 -17.8197)
(-19.0808 -9.2293 3.18324)
(-11.3012 -12.1343 -26.9353)
(3.48259 -16.0714 7.39491)
(0.759381 -0.562026 1.6451)
(5.79869 -4.16334 -0.474783)
(-4.66144 -1.5769 2.52415)
(-0.684361 -1.15788 1.03514)
(-6.54488 -9.08372 6.45586)
(-1.48995 -6.9513 -10.4096)
(0.0535232 -0.08162 -0.307995)
(2.12925 -12.7568 2.56042)
(-5.39171 -21.068 3.88503)
(0.156702 -0.630333 0.542565)
(7.7678 -2.8267 -25.4022)
(11.2071 -5.19674 -0.103711)
(0.661773 -0.106353 0.236017)
(-0.480849 -1.15603 0.63896)
(-40.613 -4.53665 27.8291)
(-1.80247 -3.04963 2.72636)
(1.04965 -1.72588 -0.110621)
(28.0798 -5.92125 22.4323)
(3.32112 -6.55155 0.206817)
(7.49555 -1.34401 4.68012)
(6.15976 -2.95092 -7.0977)
(3.58296 -8.83233 -12.7887)
(1.22263 -10.9177 15.82)
(-24.2153 -13.4636 -4.48294)
(-5.75424 -31.6976 30.821)
(0.538727 -2.16702 1.86528)
(5.65067 -3.99631 1.134)
(-2.9406 -17.2268 15.8024)
(-0.325306 -1.10537 16.0804)
(8.12189 -16.9389 4.49684)
(-20.4506 -10.2687 22.1135)
(-3.14765 -6.34716 -2.66793)
(5.95939 -2.20547 -1.99962)
(0.78334 -10.4146 -2.49653)
(0.109855 -0.508599 -0.763713)
(-6.11548 -1.23342 -10.7634)
(1.15114 -1.05483 0.971193)
(0.909761 -5.99585 6.3259)
(-6.4741 -7.35594 8.9233)
(-0.633652 -0.964512 -0.348643)
(-0.178243 -0.318417 0.519254)
(7.88673 -13.5391 -32.9698)
(0.195857 -0.714696 1.95127)
(1.32129 -2.45806 2.14847)
(-5.32881 -38.5245 30.6426)
(29.5835 -22.8879 10.4627)
(-34.8356 -11.7187 13.6426)
(-0.900707 -0.549903 1.16495)
(11.1729 -1.61278 0.37103)
(-16.4606 -8.28406 2.88363)
(1.98611 -14.6027 -9.51726)
(-24.1767 -11.357 -4.45746)
(-0.818543 -0.0291915 0.328024)
(6.35267 -4.01805 8.06183)
(8.64422 -12.0752 18.7936)
(-7.61051 -2.39297 0.240133)
(-0.096831 -2.74953 -1.53775)
(13.2292 -11.2083 -11.6482)
(19.3542 -8.19835 -1.12875)
(-1.80793 -0.396474 -0.32855)
(7.53779 -10.8692 -5.45238)
(43.2826 -32.2779 9.41065)
(20.1196 -19.0507 4.97827)
(-22.3483 -15.9743 -8.67896)
(-8.19891 -18.6672 -3.83149)
(5.23381 -32.4576 5.01109)
(2.35146 -7.36843 1.78726)
(-8.22836 -2.87345 -9.56475)
(0.809852 -1.2232 -0.861904)
(-1.97535 -16.5016 -6.87664)
(8.79851 -12.7116 -11.5903)
(-8.2596 -10.9207 4.14678)
(0.376191 -8.35397 -3.62244)
(-3.39457 -0.664858 -2.0842)
(0.213646 -7.27471 8.4934)
(1.96885 -1.98955 -2.5921)
(-18.6435 -3.24897 -12.4764)
(-5.18118 -2.96349 2.23364)
(3.26385 -3.16796 0.754632)
(15.6357 -20.6702 7.91327)
(-5.93461 -11.4263 15.2141)
(-5.75005 -13.6234 -7.35765)
(-3.16513 -4.97157 4.19923)
(25.3994 -6.82293 -5.01892)
(11.6608 -17.3582 3.81188)