/*--------------------------------*- C++ -*----------------------------------*\
  =========                 |
  \\      /  F ield         | OpenFOAM: The Open Source CFD Toolbox
   \\    /   O peration     | Website:  https://openfoam.org
    \\  /    A nd           | Version:  7
     \\/     M anipulation  |
\*---------------------------------------------------------------------------*/
FoamFile
{
    version     2.0;
    format      ascii;
    class       scalarField;
    location    "0.7/lagrangian/reactingCloud1";
    object      yH2O;
}
// * * * * * * * * * * * * * * * * * * * * * * * * * * * * * * * * * * * * * //


2563
(
0.022
0.022
0.022
0.022
0.022
0.022
0.022
0.022
0.022
0.022
0.022
0.022
0.022
0.022
0.022
0.022
0.022
0.022
0.022
0.022
0.022
0.022
0.022
0.022
0.022
0.022
0.022
0.022
0.022
0.022
0.022
0.022
0.022
0.022
0.022
0.022
0.022
0.022
0.022
0.022
0.022
0.022
0.022
0.022
0.022
0.022
0.022
0.022
0.022
0.022
0.022
0.022
0.022
0.022
0.022
0.022
0.022
0.022
0.022
0.022
0.022
0.022
0.022
0.022
0.022
0.022
0.022
0.022
0.022
0.022
0.022
0.022
0.022
0.022
0.022
0.022
0.022
0.022
0.022
0.022
0.022
0.022
0.022
0.022
0.022
0.022
0.022
0.022
0.022
0.022
0.022
0.022
0.022
0.022
0.022
0.022
0.022
0.022
0.022
0.022
0.022
0.022
0.022
0.022
0.022
0.022
0.022
0.022
0.022
0.022
0.022
0.0219985
0.022
0.022
0.022
0.022
0.022
0.022
0.022
0.022
0.022
0.022
0.022
0.022
0.022
0.022
0.022
0.022
0.022
0.022
0.022
0.00528132
0.0219976
0.0194882
0.0219997
0.0219995
0.022
0.0219995
0.0219639
0.0139699
0.0217811
0.0185317
0.022
0.022
0.022
0.0219333
0.022
0.0216981
0.0219992
0.022
0.0219987
0.0219735
0.022
0.022
0.022
0.0219772
0.022
0.022
0.0219999
0.022
0.0128203
0.0219998
0.0219128
0.0218116
0.022
0.022
0.0219993
0.0195695
0.0211957
0.0219809
0.0219992
0.022
0.0217985
0.022
0.0164704
0.022
0.0152574
0.022
0.022
0.022
0.00525471
0.0219896
0.00515345
0.022
0.022
0.0216936
0.022
0.0149575
0.0219998
0.0219382
0.0212037
0.0201674
0.021996
0.021999
0.0171411
0.0219955
0.0219843
0.0219408
0.0219998
0.0127759
0.022
0.0201764
0.022
0.0178595
0.0211723
0.0212743
0.022
0.022
0.0219901
0.0219633
0.022
0.022
0.0219944
0.022
0.022
0.022
0.022
0.022
0.022
0.022
0.022
0.022
0.022
0.022
0.022
0.022
0.000160555
0.0115119
0.0170575
0.0219979
0.0219993
0.0219999
0.022
0.022
0.0155608
0.0215867
0.000103416
0.0170956
0.0184938
0.0196598
0.0219969
0.0219994
0.0219705
0.0219996
0.0219424
0.000601903
0.0219988
0.0219726
0.0206583
0.0182133
0.022
0.021998
0.0139872
0.0219999
0.0198884
0.0219999
0.000287234
0.0219997
0.022
0.022
0.0219968
0.0174767
0.021979
0.0112218
0.0161121
0.022
0.022
0.022
0.022
0.022
0.022
0.022
0.022
0.022
0.022
0.022
0.022
0.022
0.022
0.022
0.022
0.022
0.022
0.022
0.022
0.022
0.022
0.022
0.022
0.022
0.022
0.022
0.022
0.022
0.022
0.022
0.022
0.022
0.000113272
0.00155081
0.0093539
0.00408078
0.0188519
0.0218834
0.01952
0.0219925
0.0219722
0.00438843
0.0201712
0.0189237
0.0219974
0.010984
0.0100874
0.00299006
0.0192418
0.0219301
0.00060681
0.0218978
0.0101466
0.0101764
0.00915634
0.0165704
0.0219957
0.0146341
0.021891
0.0177706
0.0219951
0.0219117
0.0218045
0.0184808
0.0211828
0.020077
0.0171039
0.0219138
0.022
0.0219138
0.0219994
0.0188843
0.00718814
0.0219936
0.0175604
0.0193905
0.02092
0.0139583
0.0219853
0.0219853
0.022
0.021999
0.0219954
0.0118269
0.0147249
0.00718676
0.0135639
0.0219988
0.0217935
0.0219938
0.022
0.0219962
0.0219728
0.022
0.0219999
0.0219979
0.0219984
0.0219985
0.0219987
0.0219993
0.0219992
0.0219999
0.0219999
0.022
0.022
0.022
0.0219994
0.0219999
0.0219998
0.0219999
0.0219992
0.0219998
0.022
0.0219999
0.0219999
0.0219999
0.022
0.0219994
0.0219999
0.0219999
0.0219988
0.0219977
0.0219977
0.0219985
0.0219999
0.022
0.0219982
0.022
0.0219985
0.0219999
0.022
0.0219985
0.0219999
0.0219999
0.0219997
0.0219994
0.0219996
0.0219988
0.0219995
0.0219977
0.0219999
0.0219999
0.0219995
0.0219999
0.0219999
0.0219984
0.0219997
0.0219997
0.0219999
0.0219994
0.0219987
0.0219996
0.0219992
0.0219991
0.0219999
0.0219991
0.0219998
0.0219999
0.0219995
0.00143449
0.0104804
0.0129155
0.0153052
0.00701093
0.00877523
0.0168158
0.0219808
0.0206946
0.0219979
0.01553
0.0219791
0.0171581
0.0219772
0.00932689
0.0219875
0.0219986
0.0219953
0.0198438
0.0162896
0.0219964
0.0177107
0.00544924
0.0216074
0.0106488
0.0219922
0.0117629
0.0178805
0.0219695
0.0218851
0.00130152
0.0219997
0.0148466
0.011527
0.0115726
0.0210076
0.00966726
0.0219989
0.0134987
0.00549959
0.0216992
0.0218955
0.0206583
0.0219782
0.0219696
0.0218815
0.0145529
0.000416033
0.0219998
0.000304782
0.0219399
0.0171923
0.0218461
0.0144947
0.0165289
0.0219922
0.0197089
0.0120975
0.0167086
0.0145666
0.0218597
0.0108825
0.0219965
0.0190836
0.017431
0.0143533
0.0153054
0.0218147
0.0175303
0.0110036
0.0217592
0.0194128
0.0219098
0.0219785
0.0219869
0.021938
0.021959
0.0219666
0.0219855
0.0219894
0.0219496
0.0219931
0.0219821
0.0219882
0.0219944
0.0219312
0.0219971
0.0219955
0.021963
0.0219905
0.021995
0.0219894
0.0219545
0.0219869
0.0219779
0.0219545
0.021996
0.0219545
0.021938
0.0219923
0.0219496
0.0219755
0.0219869
0.0219545
0.0219801
0.0219923
0.0219728
0.0219666
0.0219971
0.0219974
0.021996
0.0219666
0.021959
0.0219441
0.0219441
0.0219312
0.0219855
0.0219894
0.0219955
0.0219838
0.021938
0.0219974
0.0219755
0.0219755
0.0219855
0.0219699
0.0219838
0.0219755
0.0219938
0.0219938
0.0219666
0.0219666
0.0219801
0.0219931
0.0219236
0.021963
0.0219821
0.0219728
0.0219496
0.0219905
0.0219236
0.0219905
0.0219931
0.0219894
0.021996
0.0219755
0.0219821
0.0219955
0.0219236
0.0219838
0.0219968
0.0219441
0.0219801
0.0219838
0.0219496
0.0219955
0.021959
0.0219152
0.0219905
0.0219855
0.0219545
0.0219545
0.0219699
0.021995
0.021938
0.0219545
0.0219974
0.021959
0.0219938
0.0219923
0.0219755
0.0219838
0.0219666
0.0219964
0.0219699
0.0219496
8.7217e-05
0.000155468
0.0219923
0.0133549
0.0133549
0.0212619
0.0212619
0.018553
0.0199114
0.0172729
0.00312018
0.0201184
0.0151306
0.0139502
0.0114971
0.0171568
0.0214122
0.0126259
0.0106334
0.00212663
0.00279027
0.00860455
0.0219974
0.0151936
0.014087
0.00463427
0.021738
0.00174382
0.0219944
0.0177511
0.00677425
0.0129675
0.0196982
0.00652317
0.0117538
0.0202968
0.0190293
0.0219767
0.0171415
0.0218606
0.00604885
0.0207619
0.0219059
0.0016257
0.0219621
0.000629921
0.0154208
0.0219869
0.0197454
0.0219862
0.0133441
0.0219171
0.00173773
0.000466101
0.0209118
0.0138221
0.00162935
0.0212232
0.0151585
0.016169
0.0202212
0.00287144
0.00635415
0.0181481
0.0219666
0.0137709
0.0190326
0.0176318
0.0204631
0.0215035
0.0206419
0.0137675
0.0219922
0.0100352
0.0131406
0.0215706
0.0182534
0.0218349
0.0131595
0.0155992
0.0143336
0.0178152
0.0135396
0.0131595
0.0217633
0.0213468
0.0127911
0.0207744
0.0124346
0.0160366
0.0160366
0.0211921
0.0127911
0.0207744
0.0182534
0.0151686
0.0155992
0.0124346
0.0147464
0.0155992
0.0169249
0.0194911
0.020507
0.0213468
0.0169249
0.0178152
0.0147464
0.0139311
0.0217128
0.0124346
0.0216497
0.0143336
0.020507
0.0135396
0.0173712
0.0160366
0.0151686
0.0210024
0.0186819
0.0182534
0.0173712
0.0139311
0.0217633
0.0178152
0.0124346
0.0194911
0.0135396
0.0131595
0.0217128
0.0198613
0.0182534
0.0216497
0.0217633
0.0160366
0.0160366
0.0217633
0.0211921
0.0124346
0.0124346
0.0215706
0.0210024
0.020507
0.0182534
0.0127911
0.0218777
0.0202016
0.0215706
0.0216497
0.0164792
0.0164792
0.0178152
0.021804
0.020507
0.0155992
0.0210024
0.0190961
0.0186819
0.0214713
0.0190961
0.0182534
0.0147464
0.0155992
0.0202016
0.0155992
0.0194911
0.0186819
0.0213468
0.021804
0.0139311
0.0178152
0.0155992
0.0218777
0.0160366
0.0173712
0.0131595
0.0218588
0.0217128
0.0135396
0.0194911
0.0211921
0.0216497
0.0127911
0.0211921
0.0211921
0.0182534
0.021804
0.0143336
0.0155992
0.0217633
0.0210024
0.0216497
0.0124346
0.0178152
0.0182534
0.0218588
0.0210024
0.0214713
0.0160366
0.0207744
0.0198613
0.0173712
0.020507
0.0217128
0.0178152
0.0169249
0.0186819
0.0218349
0.0182534
0.0202016
0.0214713
0.0217633
0.0155992
0.0169249
0.0124346
0.0182534
0.0202016
0.0218928
0.0173712
0.0164792
0.0155992
0.0207744
0.0182534
0.021804
0.0143336
0.0135396
0.0155992
0.0178152
0.0151686
0.0151686
0.0124346
0.0178152
0.0202016
0.0178152
0.0131595
0.0143336
0.0210024
0.021804
0.0169249
0.0218349
0.0216497
0.0207744
0.0178152
0.0155992
0.0155992
0.0218777
0.0218349
0.0131595
0.0186819
0.0143336
0.021804
0.0155992
0.0173712
0.0210024
0.0218928
0.0143336
0.0216497
0.0217633
0.0131595
0.0160366
0.0202016
0.0155992
0.0143336
0.0147464
0.0147464
0.0218928
0.0207744
0.0211921
0.0186819
0.0215706
0.0218588
0.0139311
0.0160366
0.0139311
0.0218928
0.0143336
0.0214713
0.0169249
0.0131595
0.0207744
0.0207744
0.020507
0.0186819
0.0213468
0.0147464
0.0216497
0.0173712
0.0164792
0.0217633
0.0202016
0.0173712
0.0173712
0.000519716
0.0210024
0.000463267
0.00627213
0.00193769
0.00550451
0.00175636
0.000165376
0.00057668
0.000426705
0.00696618
0.0013161
0.00817858
0.00921924
0.0131595
0.00276853
0.00725944
0.00796998
0.0117979
0.0126093
0.00213854
0.0123557
0.00787688
0.00653339
0.00053546
0.000232174
0.0113311
0.00281891
0.0118611
0.00950019
0.00511698
0.00489338
0.00664799
0.0134742
0.00605618
0.00294162
0.0134894
0.00753109
0.00704211
0.0112167
0.0135454
0.0132487
0.00779466
0.00309129
0.01313
0.0108129
0.0164792
0.0148678
0.0112147
0.0107552
0.00234927
0.000343035
0.00346408
0.00817157
0.00377888
0.0136858
0.0161683
0.00978614
0.0122531
0.0100778
0.015531
0.0173712
0.0140054
0.0033384
0.0182173
0.0145262
0.00738412
0.0218928
0.00869677
0.00981892
0.00322542
0.00453917
0.0121032
0.00754287
0.0178426
0.0207744
0.00123542
0.00364527
0.0117015
0.0218349
0.009036
0.0012275
0.0189397
0.0137306
0.00988262
0.0192949
0.0148867
0.0213468
0.00592011
0.00774636
0.0198343
0.0117687
0.00314553
0.010157
0.0213128
0.0164033
0.020556
0.0135736
0.00359425
0.0194099
0.0021449
0.00461811
0.00925047
0.0171557
0.00287345
0.0187183
0.0104513
0.0176845
0.00198105
9.25388e-05
0.0196538
0.00714642
0.0164008
0.0170333
0.0195468
0.021804
0.00822403
0.00267913
0.00200583
0.0175312
0.0101488
0.00703515
0.0165795
8.21747e-05
8.18771e-05
0.00885063
0.0212783
0.000187297
0.0154416
0.00338669
0.0144936
0.000281025
0.0108292
0.00860326
0.00801663
0.0114366
0.0111272
0.0120901
0.00974426
0.00577602
0.00647239
0.00557317
0.00622433
0.00660303
0.00557317
0.0100001
0.0117574
0.00860326
0.00749275
0.00783544
0.00783544
0.0108292
0.0073307
0.00673834
0.00766091
0.00702384
0.00599266
0.00647239
0.00599266
0.0114366
0.0108292
0.0111272
0.00687854
0.00903345
0.0100001
0.00840023
0.00766091
0.00673834
0.00702384
0.00702384
0.00766091
0.00660303
0.00783544
0.00717448
0.00903345
0.00702384
0.00567294
0.0114366
0.0111272
0.00749275
0.00634622
0.010266
0.00588254
0.0092613
0.0120901
0.0117574
0.00687854
0.00702384
0.00622433
0.0108292
0.0114366
0.00840023
0.010266
0.00974426
0.00660303
0.0117574
0.0105422
0.010266
0.0117574
0.00717448
0.0105422
0.0117574
0.00557317
0.0114366
0.00660303
0.00599266
0.0100001
0.00860326
0.00783544
0.0100001
0.00881422
0.0092613
0.0073307
0.0105422
0.00903345
0.00840023
0.0100001
0.00840023
0.00860326
0.00634622
0.00547657
0.00567294
0.00840023
0.00673834
0.00547657
0.00547657
0.00840023
0.00673834
0.010266
0.00840023
0.00766091
0.00717448
0.00567294
0.00599266
0.00673834
0.0105422
0.00599266
0.00903345
0.0092613
0.0105422
0.00717448
0.00557317
0.00567294
0.00783544
0.00610653
0.00588254
0.00860326
0.00547657
0.0120901
0.00567294
0.0117574
0.0117574
0.00949812
0.00766091
0.00820479
0.010266
0.00840023
0.0117574
0.00749275
0.00783544
0.00860326
0.0100001
0.0111272
0.0073307
0.00860326
0.00622433
0.00881422
0.0120901
0.0114366
0.00647239
0.00622433
0.00588254
0.00974426
0.00783544
0.0100001
0.00860326
0.00974426
0.0073307
0.00610653
0.00673834
0.00766091
0.00647239
0.00717448
0.00974426
0.0114366
0.00717448
0.00903345
0.00783544
0.0100001
0.00974426
0.0108292
0.0105422
0.00577602
0.0111272
0.00702384
0.00717448
0.0117574
0.0108292
0.00647239
0.00860326
0.00647239
0.0073307
0.00840023
0.00717448
0.00766091
0.00783544
0.010266
0.0092613
0.0105422
0.0111272
0.00702384
0.0073307
0.00610653
0.00634622
0.00840023
0.00749275
0.00673834
0.00949812
0.0111272
0.00801663
0.00820479
0.00577602
0.00949812
0.00974426
0.00660303
0.00622433
0.00577602
0.00702384
0.00588254
0.0092613
0.00567294
0.00634622
0.00840023
0.00903345
0.00577602
0.00820479
0.00801663
0.0111272
0.0092613
0.00702384
0.00634622
0.00547657
0.00567294
0.00881422
0.0092613
0.00860326
0.00610653
0.00949812
0.00622433
0.00647239
0.00903345
0.0092613
0.0108292
0.00547657
0.00622433
0.00577602
0.00949812
0.00903345
0.0073307
0.00974426
0.00612927
0.00599266
0.00860326
0.00577602
0.00801663
0.00881422
0.00749275
0.00588254
0.0111272
0.00860326
0.00702384
0.0105422
0.00673834
0.0111272
0.00588254
0.00717448
0.00881422
0.00610653
0.00647239
0.00974426
0.0073307
0.010266
0.0073307
0.00567294
0.0029249
0.00162648
0.000530096
0.00179858
0.0114366
0.00448407
0.00251823
0.00207911
0.00567294
0.00552405
0.00418088
0.00903345
0.00300195
0.0053754
0.00492785
0.0051872
0.00376608
0.00390986
0.00469094
0.0051271
0.00362114
0.00414003
0.00481872
0.00503081
0.00815018
0.00412969
0.0048394
0.00556825
0.00597639
0.00585914
0.0020258
0.00601253
0.00452419
0.00287465
0.00577548
0.00596872
0.00586617
0.00118932
0.00200377
0.00422814
0.00257216
0.00840023
0.0053671
0.0120901
0.00949812
0.00611202
0.00622479
0.00303404
0.00462547
0.00530939
0.00560239
0.0034385
0.0019898
0.0114366
0.00673197
0.00248323
0.00717448
0.000301703
0.00324211
0.005296
0.000713796
0.000202191
0.00108519
0.00528781
0.00949812
0.00721772
0.00783544
0.00691057
0.00457849
0.00678191
0.00349908
0.0065125
0.00520329
0.00564483
0.00786346
0.00819421
0.00690668
0.00812833
0.008103
0.00334125
0.00750479
0.00175568
0.0108292
0.001873
0.00538586
0.00474805
0.00349831
0.00774984
0.00872212
0.0044653
0.00577409
0.00775028
0.00659537
0.00899169
0.00949812
0.00530465
0.00144557
0.00925674
0.00718906
0.0108292
0.00782146
0.00886308
0.00527734
0.00785994
0.00753873
0.0102268
0.00666908
0.00623975
0.00907203
0.00991383
0.00977585
0.00814791
0.0103942
0.0105358
0.00805212
0.00239001
0.00768623
0.0083187
0.00920091
0.0014517
0.00899565
0.00754813
0.0109688
0.00102068
0.0107346
0.00399488
0.00410133
0.00487883
0.00427203
0.00399488
0.00458979
0.00375098
0.00410133
0.00410133
0.00345074
0.00520448
0.00366095
0.00375098
0.00465893
0.00439384
0.00370549
0.00384506
0.00394369
0.00353252
0.00520448
0.00480336
0.00529234
0.00394369
0.00452262
0.00410133
0.00349127
0.00503671
0.00480336
0.00361731
0.0040474
0.00384506
0.00357452
0.00465893
0.00375098
0.00394369
0.00337165
0.00473009
0.00357452
0.00480336
0.00394369
0.00357452
0.00337165
0.00415671
0.00361731
0.005383
0.00361731
0.00465893
0.00427203
0.00495658
0.00399488
0.00445732
0.00384506
0.005383
0.00375098
0.00480336
0.00445732
0.0040474
0.005383
0.00452262
0.00458979
0.00349127
0.00439384
0.00511931
0.00421359
0.00370549
0.00452262
0.00445732
0.00349127
0.00465893
0.00465893
0.00495658
0.005383
0.00487883
0.00384506
0.00399488
0.00480336
0.0040474
0.00337165
0.00452262
0.00427203
0.005383
0.00410133
0.00345074
0.00465893
0.00427203
0.00458979
0.00473009
0.00473009
0.00341088
0.00357452
0.00520448
0.00389377
0.00353252
0.00415671
0.00433209
0.00458979
0.00415671
0.00480336
0.00452262
0.005383
0.00520448
0.00341088
0.00480336
0.00366095
0.00341088
0.00375098
0.00410133
0.00410133
0.00341088
0.00427203
0.00433209
0.00384506
0.00480336
0.00337165
0.00337165
0.00458979
0.00480336
0.00520448
0.00357452
0.00375098
0.00529234
0.005383
0.00415671
0.0040474
0.00341088
0.00366095
0.00375098
0.00495658
0.00452262
0.00394369
0.00341088
0.00495658
0.00503671
0.00480336
0.00458979
0.00427203
0.00345074
0.00452262
0.00433209
0.00389377
0.00445732
0.00427203
0.00473009
0.00410133
0.00361731
0.00394369
0.00415671
0.00445732
0.00345074
0.00366095
0.00465893
0.00520448
0.00341088
0.00379748
0.00465893
0.00415671
0.00415671
0.00503671
0.00520448
0.00445732
0.00439384
0.00433209
0.00458979
0.00375098
0.00458979
0.00495658
0.00480336
0.0040474
0.005383
0.00480336
0.00361731
0.00427203
0.0040474
0.00439384
0.00487883
0.00337165
0.0040474
0.00341088
0.00452262
8.18945e-05
8.1877e-05
0.000188267
0.00120209
0.00353252
0.000494803
0.000352718
0.00135416
0.0021042
0.00130598
0.000693208
0.00191209
0.000360337
0.00234329
0.00322882
8.18789e-05
0.0033635
0.00341052
0.00301547
0.00255061
0.00336113
0.0034794
0.00344685
0.00352599
0.00452262
0.00282735
0.0033348
0.00529234
0.00329769
8.1877e-05
0.00297134
0.00342341
0.00238354
0.000368867
0.00362373
0.00361314
0.000413125
0.00348878
0.00273728
0.000881303
0.00152491
0.00077946
0.00379748
0.00238945
0.00251966
0.00347587
0.00340005
0.00323501
0.00197041
0.00243776
0.00371829
0.00376756
0.000687444
0.00299113
0.00355224
0.00383602
0.00124521
0.00281528
0.00382193
0.00394483
0.00084181
0.00362853
0.00408356
0.00404685
0.00409185
0.0040438
0.00406835
0.00271405
0.000206195
8.1877e-05
0.00397066
0.00243264
0.00358849
0.00427203
0.0042223
0.00422573
0.00433144
0.00425236
0.00412155
0.000269898
0.00384428
0.00109405
0.00425622
0.00265084
0.00347754
0.00185248
0.00365123
0.00373229
0.000919128
0.00236157
0.00328058
0.00445272
0.00407413
0.00145393
0.000488775
0.00272484
0.00427053
0.0035526
0.00303112
0.00431392
0.00159479
0.005383
0.00281807
0.00464022
0.00262245
0.00464022
0.00495658
8.1877e-05
0.0036301
0.00179424
0.00497853
0.00420325
0.0027252
0.00492557
0.00317258
0.00339734
0.00389023
0.00528044
0.00492497
0.00065178
0.00230286
0.00389069
0.00447229
0.00254631
0.00500045
0.0052352
0.00329497
0.00287326
0.00300768
0.0026181
0.00300768
0.0026181
0.00223409
0.0031122
0.00287326
0.00325744
0.00268038
0.00287326
0.00333302
0.00258731
0.00329497
0.00268038
0.00293982
0.00290638
0.00264912
0.00314783
0.00290638
0.0024663
0.00284043
0.00226245
0.00226245
0.00243657
0.00280789
0.00307697
0.0026181
0.00223409
0.00307697
0.0031122
0.00264912
0.00287326
0.00274362
0.0024663
0.00287326
0.00240705
0.00322043
0.00287326
0.00277562
0.00293982
0.00329497
0.0031839
0.00258731
0.00249623
0.00223409
0.00307697
0.00300768
0.00314783
0.00290638
0.00223409
0.00333302
0.00325744
0.00290638
0.00231971
0.00293982
0.00333302
0.00268038
0.0031122
0.00255674
0.00284043
0.0031122
0.00271187
0.00322043
0.00231971
0.0031122
0.0031122
0.0026181
0.00243657
0.00314783
0.00255674
0.00268038
0.00229098
0.00284043
0.00314783
0.00307697
0.00229098
0.00307697
0.00252638
0.00314783
0.0031839
0.00325744
0.00252638
0.00280789
0.0024663
0.00304214
0.0026181
0.00223409
0.00237773
0.00329497
0.00234862
0.00274362
0.00268038
0.0031839
0.00264912
0.00314783
0.00277562
0.00274362
0.00329497
0.00243657
0.0026181
0.00293982
0.00300768
0.00255674
0.00271187
0.00277562
0.00231971
0.00293982
0.00226245
0.00255674
0.00293982
0.00258731
0.00255674
0.00229098
0.0031839
0.00280789
0.00221059
0.00252638
0.0026181
0.00284043
0.00255674
0.00297358
0.00277562
0.00314783
0.00234862
0.00252638
0.0026181
0.00237773
0.0024663
0.00258731
0.0031839
0.00249623
0.00307697
0.00333302
0.00325744
0.00333302
0.00280789
0.00227952
8.1877e-05
0.00329497
8.1877e-05
8.1877e-05
0.0026181
0.00333302
0.000369512
0.000287972
0.0024663
0.000482749
0.0031839
0.00102172
8.1877e-05
0.00144092
0.00156374
0.00151631
0.00176062
0.00249623
0.00176062
0.0017692
0.00226245
0.00222334
0.00192097
0.000660154
0.00223121
0.00223396
0.00177777
0.00127464
0.00217464
0.00293982
0.00145588
0.00167222
0.00186766
0.000961882
0.00185836
0.00099016
0.00138233
0.00211402
0.000588333
0.00184014
0.00232737
0.00284043
0.00226711
0.00146306
8.1877e-05
0.00233355
0.00177112
0.000702953
0.00111877
0.00163179
0.00234048
0.00240457
0.00297358
0.00138945
0.00240607
8.1877e-05
0.00243657
8.1877e-05
0.00242884
0.000532557
0.00234793
0.00238139
0.00325744
8.1877e-05
0.00162463
0.000851533
8.18776e-05
0.00115507
0.00159745
0.0024617
0.00238459
8.1877e-05
0.00247707
0.00227835
0.00155669
0.00284043
0.00284043
0.00234942
0.00216628
0.00168557
0.000542806
0.00249451
0.00227642
0.00255618
0.00333302
0.00241142
0.00223715
0.00144496
0.000903353
0.00290638
0.0018166
0.00263745
0.00245868
0.00284043
0.000935921
0.00263511
0.00216925
0.00256814
0.00190294
0.00270716
0.000844771
0.00226727
0.00259636
0.00194111
0.00248027
0.00248027
0.00266363
0.00196664
0.00248027
0.000255045
0.00274704
0.00293982
0.00189543
0.00106388
0.00244208
0.00188494
0.00240898
0.0031839
0.00245353
0.00272317
0.00223467
0.00239327
0.00143281
0.00260554
0.00123917
0.00281371
0.00276944
0.00276994
0.00279631
0.00183083
0.00273542
8.1877e-05
0.00227345
0.002456
0.00218949
0.00293405
0.00249521
0.00296564
0.000656773
0.00106041
0.00116684
0.00280214
0.00293512
0.00300333
0.00243619
0.00192659
0.00231241
0.00297963
0.00301871
0.0029671
0.00287988
0.00223322
0.00149909
0.00242096
0.00297075
0.00298643
0.00287805
0.00289982
0.00284383
0.00314689
0.00310867
0.00300962
0.0031836
0.00195204
0.00163338
0.00317685
0.00307668
0.00317685
0.00131682
0.00131776
0.00302042
0.00322007
8.18784e-05
0.00211023
0.00328949
0.00324528
0.00329133
0.00212079
8.1877e-05
0.000282597
0.00235547
0.00263533
0.00333194
0.0013131
0.000823654
0.00323063
0.00333302
0.00319416
0.00139463
0.00167601
0.00201252
0.0021223
0.00144086
0.00158981
0.00153238
0.00149634
0.00155093
0.00146024
0.00149634
0.00185082
0.00157004
0.00193109
0.00195814
0.00144086
0.00172325
0.0016993
0.00185082
0.00149634
0.00193109
0.00151423
0.00182451
0.00193109
0.00136621
0.00151423
0.00136621
0.00139463
0.00190416
0.00215002
0.00157004
0.00203982
0.00185082
0.00167601
0.00172325
0.00136621
0.00174782
0.00193109
0.00203982
0.00144086
0.00201252
0.00215002
0.00201252
0.0022059
0.00158981
0.00177294
0.00153238
0.00157004
0.00190416
0.00195814
0.00198529
0.00141935
0.00185082
0.00206721
0.00177294
0.00182451
0.00195814
0.00167601
0.00187739
0.00151423
0.00201252
0.00141935
0.00165339
0.00163148
0.00151423
0.00151423
0.00165339
0.00144086
0.00185082
0.00206721
0.00146024
0.00139463
0.00167601
0.00177294
0.0020947
0.00158981
0.00187739
0.00215002
0.00177294
0.00151423
0.00151423
0.00144086
0.00193109
0.00153238
0.00201252
0.00161029
0.00146024
0.00158981
0.00203982
0.00163148
0.00206721
0.00193109
0.00172325
0.00172325
0.00201252
0.00203982
0.00165339
0.00206721
0.00172325
0.00141935
0.00187739
0.00201252
0.00172325
0.00174782
0.00163148
0.0016993
0.00144086
0.00201252
0.00155093
0.00139463
0.00149634
0.00147849
0.00163148
0.00198529
0.00158981
0.00201252
0.00174782
0.00155093
0.00182451
0.00149634
0.0021223
0.00151423
0.00149634
0.00195814
0.00203982
0.00185082
0.0020947
0.0022059
0.00136621
0.00155093
8.30599e-05
8.1877e-05
8.1877e-05
0.00193109
0.00144086
0.00141935
0.00174782
8.39984e-05
0.000708457
0.00190416
0.00151423
0.00136621
0.0020947
8.1877e-05
8.1877e-05
8.1877e-05
0.00172325
0.00141935
0.00101518
0.00161029
0.00107952
8.1877e-05
0.00116834
0.00136475
0.00120834
0.00104778
0.000290801
0.0010534
0.000983968
0.00129181
0.0008463
0.00130284
8.1877e-05
0.00135089
0.00117523
0.00134976
0.000216878
0.000623481
0.000892995
0.00135593
0.00101531
0.00141815
0.000181596
0.000683748
0.00101978
0.00141274
0.000936572
0.00127814
8.1877e-05
0.00139081
0.00134423
0.00135003
0.00117962
9.01124e-05
0.00185082
0.000561715
0.00131543
0.00136068
0.00140065
0.00155093
0.00185082
0.000810678
0.00132492
0.00137414
0.00143886
0.000762132
0.00123588
0.000718469
0.000115171
0.00143241
8.43065e-05
0.000210598
0.00100749
0.000802859
0.000782924
8.1877e-05
8.1877e-05
0.00116113
0.0010513
0.00134903
8.1877e-05
0.00143405
0.000527056
0.00149498
0.000783628
0.0009207
0.00185082
0.000851337
0.00117652
8.18773e-05
0.00145606
0.000362154
0.00138932
0.00147849
0.00146192
0.00121313
0.00115581
0.00145365
0.0011377
0.00135813
0.00187739
8.42462e-05
0.00147845
0.000451867
0.000717108
0.00147849
0.0014728
0.00142816
0.00146065
0.000354761
0.00129179
0.00142073
0.00149562
0.000834755
0.000912919
0.00137535
0.00147661
8.1877e-05
0.00195814
0.00116479
0.00124168
0.00146308
0.00151423
0.000738536
8.20128e-05
0.00136845
8.1877e-05
0.00143364
8.18801e-05
0.000826855
0.00151423
8.1877e-05
0.00148617
0.00150988
0.00148181
0.000995445
0.00125624
0.000806128
0.00172325
0.00151419
0.00132869
8.1877e-05
0.00177294
0.0013327
0.000616955
0.00140665
0.000642289
0.0014547
8.18771e-05
8.1877e-05
0.00117494
0.00149156
0.00132686
0.000995047
0.00132019
0.000232584
0.000333869
0.00132818
0.00129342
0.00152361
0.00148115
0.000422693
0.000746059
0.00156152
0.00155337
0.00156335
0.00133659
0.00113051
0.00121797
0.0015272
0.0012471
8.18795e-05
8.18773e-05
0.00145269
0.00149785
8.20603e-05
0.00144323
0.000848486
0.0015272
0.00143947
0.000273916
0.00156922
0.00131549
0.0014201
0.00163148
0.00157771
0.00066209
0.000857931
8.18794e-05
0.000314472
8.18776e-05
0.00190416
8.1877e-05
0.00153041
0.000837687
0.00160216
0.00161024
0.00148476
0.000260251
0.00124519
0.00163112
0.000644488
0.0015739
0.00162405
0.00157145
0.00150159
0.00182451
0.00156455
0.0016505
0.0016326
8.1877e-05
0.00160163
0.000252849
8.1877e-05
8.1877e-05
0.00162375
0.00155474
0.00135303
0.00132597
0.00166801
0.00133687
0.00166994
0.00156313
0.00133195
0.000881721
0.000859943
0.00101203
0.000273492
0.0011596
0.00168185
0.00164912
0.00146477
8.1877e-05
9.83674e-05
0.0016955
0.00156099
0.00168873
8.1877e-05
8.1877e-05
0.00169862
0.00184696
0.00174448
8.1877e-05
0.00156605
0.00140281
0.00150732
0.00169187
8.2591e-05
8.18806e-05
0.00159428
0.0016036
0.00173017
0.000937453
0.00155187
8.35561e-05
0.00176784
0.00179565
0.000823406
0.00172234
0.00155725
0.00176848
0.00113914
0.00179734
0.000618606
0.00161789
0.00116074
0.000848065
0.00181696
0.00178382
0.00180713
0.00158868
0.000258479
0.00154679
0.00169392
0.00183768
0.00149005
0.00137288
0.00123125
0.00165286
0.00192548
0.00173713
0.00182219
0.00166319
0.00148369
0.000996727
0.000675527
8.1877e-05
0.00144486
0.0016468
0.0019039
0.00186803
9.40756e-05
0.00140362
0.00180366
0.00190159
0.00128423
0.000685086
0.00185316
0.00190416
8.1877e-05
0.00111442
0.00179124
0.00188998
0.00152646
0.00105166
0.000774637
0.0019224
0.00192843
0.00193109
0.00184183
0.00184628
0.000803673
0.00190975
0.00123843
0.00194776
0.00176658
0.0016451
0.000681835
0.00115947
0.00191272
8.59315e-05
0.000238235
0.00189358
0.0010347
8.1877e-05
0.00163851
0.00196175
8.1877e-05
0.00192204
0.00168631
8.1877e-05
0.00197598
0.00134909
0.00199445
0.00201242
0.00201252
0.00198817
0.00185564
0.00197001
0.00181404
0.00189111
0.00200289
0.00189111
0.00108966
0.00182891
0.00200453
0.00173146
0.00104971
8.1877e-05
8.1877e-05
0.0019212
0.00199886
0.00181671
0.00187385
0.00205838
0.00205533
8.1877e-05
0.00200484
0.00139179
0.00206485
0.00191363
0.00206553
0.00183718
8.1877e-05
0.00158693
0.00183695
0.00195251
0.00119894
0.000259553
0.00171438
0.00204773
0.00209186
0.00208628
0.00211286
0.0017885
8.32171e-05
0.00137411
0.00197508
0.0020151
0.0012565
0.00211857
0.00172251
8.19253e-05
0.00198106
8.1877e-05
0.000754976
0.00157718
0.00114134
0.00118814
0.00132513
0.00207032
0.00217596
0.00203301
0.00162069
0.00181698
0.00110212
0.00126559
8.1877e-05
0.00220552
8.1877e-05
)


// ************************************************************************* //
