/*--------------------------------*- C++ -*----------------------------------*\
  =========                 |
  \\      /  F ield         | OpenFOAM: The Open Source CFD Toolbox
   \\    /   O peration     | Website:  https://openfoam.org
    \\  /    A nd           | Version:  7
     \\/     M anipulation  |
\*---------------------------------------------------------------------------*/
FoamFile
{
    version     2.0;
    format      ascii;
    class       scalarField;
    location    "0.1425/lagrangian/reactingCloud1";
    object      age;
}
// * * * * * * * * * * * * * * * * * * * * * * * * * * * * * * * * * * * * * //


1207
(
0.00683663
0.006285
0.006237
0.006405
0.006309
0.006501
0.006333
0.006141
0.006213
0.006189
0.006357
0.006381
0.006069
0.006525
0.005997
0.006813
0.005949
0.006117
0.008397
0.005973
0.006165
0.006045
0.005829
0.006093
0.006021
0.005901
0.005805
0.005853
0.00578063
0.005781
0.005733
0.005757
0.005661
0.008805
0.005445
0.005637
0.005613
0.005397
0.005493
0.005589
0.005541
0.005349
0.005421
0.005277
0.006261
0.005325
0.005565
0.005205
0.005181
0.005517
0.005133
0.005709
0.005877
0.005037
0.005013
0.005301
0.005061
0.005229
0.005685
0.005373
0.004989
0.005157
0.005925
0.004869
0.004845
0.005469
0.002133
0.001557
0.001533
0.001509
0.001485
0.001461
0.001437
0.001413
0.00141263
0.001389
0.001365
0.001341
0.001317
0.001293
0.001269
0.001245
0.001221
0.001197
0.001173
0.001149
0.001125
0.001101
0.001077
0.001053
0.001029
0.001005
0.000981
0.000957
0.000933
0.000909
0.000885
0.000861
0.000837
0.000813
0.000789
0.000765
0.000741
0.000717
0.000693
0.000669
0.000645
0.000621
0.000597
0.000573
0.000549
0.000525
0.000501
0.000477
0.000453
0.000429
0.000405
0.000381
0.000357
0.000333
0.000309
0.000285
0.000261
0.000237
0.000213
0.000189
0.000165
0.000141
0.000117
9.3e-05
6.9e-05
4.5e-05
2.1e-05
0.005085
0.003477
0.004461
0.003933
0.002925
0.002949
0.002901
0.002853
0.002877
0.002781
0.002757
0.002733
0.003285
0.002709
0.003501
0.002685
0.002661
0.002637
0.003093
0.002613
0.002565
0.002517
0.002541
0.002589
0.002493
0.002469
0.002445
0.002397
0.002349
0.002373
0.002325
0.002421
0.002301
0.002277
0.002205
0.002229
0.002181
0.002157
0.002061
0.002109
0.002085
0.002013
0.002037
0.001989
0.001941
0.002253
0.001917
0.001869
0.001893
0.001845
0.001821
0.001965
0.001773
0.001797
0.001749
0.001701
0.001725
0.001677
0.001653
0.001605
0.001629
0.001581
0.004917
0.007005
0.004149
0.004005
0.003909
0.003957
0.003885
0.004269
0.003861
0.003741
0.003693
0.003717
0.003789
0.003765
0.003645
0.003597
0.003621
0.003549
0.006597
0.003525
0.003669
0.003453
0.004317
0.003837
0.003333
0.003573
0.003381
0.003261
0.003357
0.003429
0.003813
0.003213
0.003981
0.003237
0.003405
0.007461
0.003141
0.003117
0.003045
0.003309
0.002997
0.002973
0.003021
0.003165
0.00285263
0.002829
0.002805
0.003189
0.003069
0.004965
0.004773
0.004725
0.004797
0.004629
0.004821
0.004581
0.004701
0.005253
0.004533
0.004653
0.004509
0.004749
0.005109
0.004437
0.004365
0.004941
0.004413
0.004893
0.004677
0.004389
0.004485
0.004341
0.004605
0.004293
0.004557
0.004245
0.004197
0.004125
0.004173
0.004077
0.004053
0.004101
0.004029
0.004221
0.014877
0.015885
0.014853
0.014109
0.014397
0.014637
0.015645
0.013245
0.013869
0.012741
0.013221
0.012909
0.012429
0.012357
0.016677
0.012189
0.012069
0.012717
0.012141
0.012381
0.011949
0.012165
0.012333
0.011925
0.011829
0.011805
0.012117
0.011877
0.014157
0.011685
0.012933
0.012021
0.011853
0.011733
0.011637
0.011781
0.012045
0.012477
0.011973
0.011541
0.011589
0.012597
0.011469
0.011709
0.015189
0.011517
0.011613
0.013149
0.011997
0.012861
0.012261
0.011421
0.011901
0.018717
0.014133
0.011445
0.011493
0.011373
0.011325
0.011565
0.011229
0.011181
0.011109
0.014325
0.0117086
0.011205
0.011133
0.011085
0.010965
0.015525
0.011061
0.011037
0.010821
0.011397
0.011253
0.010869
0.0107726
0.011277
0.011757
0.011157
0.010701
0.011301
0.010989
0.010725
0.010533
0.010653
0.010485
0.010509
0.010677
0.010365
0.010749
0.010917
0.010605
0.010845
0.011013
0.010557
0.0102206
0.010221
0.010413
0.010317
0.010341
0.010437
0.010389
0.009981
0.011349
0.010101
0.010581
0.010773
0.010077
0.010269
0.009933
0.009837
0.009957
0.010029
0.009909
0.009885
0.010293
0.009861
0.009741
0.010197
0.009645
0.009621
0.010941
0.009789
0.009717
0.009813
0.009525
0.013605
0.009453
0.009693
0.010797
0.010245
0.009357
0.009381
0.009477
0.009549
0.009573
0.009261
0.00930863
0.009669
0.009333
0.010461
0.009765
0.009189
0.009501
0.009309
0.009117
0.009165
0.010629
0.010173
0.009213
0.009021
0.009141
0.009069
0.010053
0.008949
0.008973
0.008877
0.010125
0.010005
0.009093
0.008853
0.009237
0.008685
0.008613
0.008925
0.008733
0.009405
0.009285
0.008997
0.009045
0.008541
0.011661
0.008589
0.008445
0.008421
0.008517
0.008781
0.008637
0.008253
0.008493
0.008277
0.008229
0.008565
0.008181
0.016005
0.008061
0.008901
0.008349
0.007965
0.007941
0.007989
0.008133
0.007917
0.008013
0.008325
0.008157
0.008709
0.007869
0.007845
0.008757
0.008205
0.007773
0.007797
0.007701
0.009429
0.007893
0.009597
0.010149
0.008661
0.007677
0.008373
0.008085
0.007629
0.008037
0.007581
0.007821
0.007557
0.007485
0.007749
0.007533
0.007437
0.007413
0.007725
0.007389
0.007605
0.007365
0.010893
0.00729263
0.007221
0.007269
0.007509
0.007245
0.007125
0.007653
0.007341
0.007293
0.008469
0.007173
0.007077
0.006981
0.007317
0.007053
0.007149
0.006957
0.006909
0.007029
0.008301
0.006837
0.006765
0.006933
0.006669
0.006693
0.006645
0.00666863
0.006717
0.006885
0.006621
0.006861
0.007101
0.008829
0.006549
0.007197
0.006573
0.00861263
0.006477
0.006789
0.006453
0.006741
0.008109
0.006429
0.021357
0.019797
0.016437
0.022677
0.016989
0.022653
0.022125
0.022845
0.019749
0.023901
0.024405
0.019845
0.019365
0.020277
0.019509
0.021645
0.019005
0.020349
0.0194606
0.019053
0.020421
0.018861
0.020805
0.021333
0.018813
0.018669
0.026445
0.019437
0.018789
0.018693
0.018573
0.018621
0.018501
0.019413
0.018549
0.018933
0.018453
0.018525
0.018429
0.021141
0.018477
0.024669
0.018981
0.020445
0.018405
0.018957
0.018285
0.020493
0.020565
0.018213
0.018189
0.018309
0.018261
0.019533
0.018117
0.018885
0.018141
0.018069
0.018333
0.020229
0.018237
0.017877
0.020757
0.018045
0.018093
0.018021
0.017853
0.017805
0.018357
0.017901
0.017973
0.017925
0.0177086
0.017661
0.019965
0.017997
0.027549
0.017829
0.017565
0.018597
0.017949
0.017637
0.017469
0.019077
0.021021
0.017613
0.021189
0.018165
0.017781
0.017349
0.017325
0.017757
0.017229
0.018765
0.017541
0.017253
0.017421
0.017685
0.016893
0.017397
0.017277
0.017205
0.017157
0.016773
0.017013
0.017301
0.016917
0.016629
0.016845
0.016797
0.019197
0.017109
0.018909
0.017133
0.016965
0.018381
0.021069
0.016581
0.016557
0.019149
0.016749
0.016821
0.019869
0.016269
0.016293
0.016725
0.018741
0.019557
0.017733
0.018837
0.017061
0.017181
0.016221
0.016197
0.016173
0.016029
0.015933
0.016053
0.016413
0.016365
0.015789
0.018645
0.015837
0.015765
0.016653
0.015909
0.016485
0.015717
0.015741
0.015861
0.017517
0.015573
0.015501
0.015453
0.016101
0.015693
0.016125
0.015333
0.015597
0.016245
0.0172286
0.015381
0.016149
0.015429
0.015285
0.023373
0.015237
0.015213
0.0168206
0.016533
0.017709
0.0159086
0.015045
0.015069
0.015261
0.014997
0.014949
0.015357
0.017373
0.015621
0.020301
0.016941
0.014973
0.014901
0.015813
0.015309
0.014685
0.015981
0.020109
0.015021
0.017085
0.014757
0.014829
0.014421
0.014541
0.016077
0.014613
0.015669
0.015093
0.014469
0.014205
0.016509
0.015117
0.017445
0.014181
0.014733
0.014493
0.0170846
0.014037
0.014589
0.017589
0.014373
0.014013
0.013941
0.014805
0.013917
0.013677
0.016389
0.013629
0.014229
0.013821
0.013749
0.016605
0.013557
0.014061
0.014925
0.013509
0.013845
0.014301
0.013533
0.013341
0.017493
0.013461
0.014565
0.015165
0.0155006
0.014277
0.014085
0.013701
0.014517
0.016317
0.013413
0.013365
0.014253
0.013485
0.0134606
0.013773
0.013125
0.016701
0.013965
0.013797
0.013077
0.0157886
0.014445
0.013029
0.014781
0.013989
0.013053
0.015549
0.013005
0.014709
0.013389
0.017037
0.016341
0.013653
0.013293
0.013581
0.013725
0.013269
0.015957
0.012957
0.016461
0.013893
0.015141
0.012837
0.012621
0.012765
0.013101
0.012693
0.014349
0.012981
0.016869
0.012453
0.015477
0.014661
0.012645
0.012573
0.015405
0.013197
0.013173
0.012813
0.012501
0.012405
0.012213
0.012885
0.013317
0.012789
0.012525
0.012309
0.012237
0.013437
0.012285
0.012549
0.012669
0.012093
0.027933
0.029733
0.028029
0.028869
0.027189
0.030693
0.028149
0.027141
0.028125
0.027069
0.030093
0.026541
0.027117
0.026949
0.031029
0.026613
0.026853
0.026589
0.026517
0.028221
0.026349
0.033093
0.026901
0.026565
0.026733
0.036645
0.026301
0.031149
0.026373
0.029709
0.026109
0.026013
0.028917
0.0261566
0.026469
0.026781
0.027309
0.027861
0.026637
0.028677
0.027453
0.025869
0.025965
0.025629
0.029157
0.026973
0.028605
0.025797
0.026229
0.025845
0.030453
0.025773
0.025653
0.027165
0.027597
0.025461
0.027237
0.029493
0.025389
0.026085
0.026805
0.026397
0.025581
0.026061
0.027333
0.026037
0.025989
0.025677
0.028701
0.026493
0.025077
0.028725
0.025053
0.027645
0.024957
0.025245
0.025533
0.025149
0.027285
0.025701
0.025413
0.025029
0.026157
0.026685
0.025101
0.024813
0.024645
0.027813
0.024909
0.024885
0.024525
0.024789
0.025269
0.024861
0.024549
0.029517
0.024453
0.024717
0.024765
0.026181
0.027981
0.025557
0.026133
0.024333
0.025317
0.026997
0.025941
0.024477
0.024165
0.025221
0.024357
0.024141
0.024093
0.023973
0.024117
0.024309
0.025437
0.024213
0.023925
0.023781
0.024261
0.023613
0.024597
0.023877
0.024981
0.024573
0.025293
0.023661
0.026709
0.024741
0.025173
0.023421
0.025341
0.023637
0.023829
0.024069
0.024237
0.023469
0.024501
0.027093
0.023805
0.023997
0.023733
0.024429
0.023541
0.023757
0.023397
0.023949
0.023277
0.027261
0.023709
0.023133
0.023589
0.023685
0.023325
0.023253
0.022965
0.023493
0.023085
0.023109
0.022917
0.025605
0.024381
0.025509
0.025197
0.022941
0.023013
0.022557
0.022725
0.024021
0.022629
0.022509
0.024285
0.022389
0.022437
0.023061
0.0224126
0.022797
0.023445
0.023301
0.022413
0.022533
0.023517
0.022053
0.024621
0.026325
0.021885
0.022173
0.023853
0.022269
0.022317
0.022581
0.022293
0.024933
0.022077
0.022773
0.022005
0.025821
0.022869
0.022029
0.021597
0.026421
0.021549
0.022605
0.025365
0.023181
0.021909
0.022101
0.022245
0.022221
0.021861
0.022485
0.022149
0.022341
0.021933
0.0222926
0.021309
0.021237
0.021789
0.021453
0.021981
0.0212606
0.020997
0.021405
0.021381
0.023349
0.021621
0.020925
0.022461
0.024837
0.021669
0.021165
0.021765
0.021573
0.029133
0.0208286
0.025125
0.020853
0.021741
0.021429
0.022821
0.021261
0.021045
0.023205
0.021693
0.021117
0.020469
0.022701
0.022893
0.020949
0.020589
0.022989
0.020637
0.020517
0.020901
0.0207566
0.021837
0.020541
0.020157
0.020661
0.020253
0.021285
0.020397
0.020685
0.020133
0.020973
0.023229
0.023157
0.019989
0.020829
0.021957
0.022197
0.020373
0.023565
0.019773
0.020013
0.019725
0.022365
0.019245
0.019581
0.020181
0.019917
0.020325
0.019701
0.020085
0.021813
0.019629
0.019677
0.020061
0.020205
0.020613
0.019461
0.019893
0.021717
0.020709
0.020781
0.019341
0.019653
0.021093
0.019821
0.020037
0.021501
0.019389
0.019605
0.019293
0.020877
0.021525
0.022749
0.019101
0.019221
0.019125
0.019317
0.019485
0.019029
0.019269
0.019941
0.019173
0.031893
0.029013
0.030285
0.029829
0.033453
0.033069
0.031725
0.027789
0.031293
0.028581
0.025893
0.029085
0.028533
0.025725
0.026205
0.024045
0.032637
0.029901
0.0237806
0.027501
0.025485
0.025749
0.025005
0.028941
0.028437
0.021477
0.026661
0.024693
0.021213
0.026253
0.025917
0.024189
0.023037
0.020733
0.028461
)


// ************************************************************************* //
