/*--------------------------------*- C++ -*----------------------------------*\
  =========                 |
  \\      /  F ield         | OpenFOAM: The Open Source CFD Toolbox
   \\    /   O peration     | Website:  https://openfoam.org
    \\  /    A nd           | Version:  7
     \\/     M anipulation  |
\*---------------------------------------------------------------------------*/
FoamFile
{
    version     2.0;
    format      ascii;
    class       labelField;
    location    "0.1425/lagrangian/reactingCloud1";
    object      cellId;
}
// * * * * * * * * * * * * * * * * * * * * * * * * * * * * * * * * * * * * * //


1207
(
54
17
44
51
51
86
85
78
115
116
153
153
147
176
219
259
218
297
367
254
292
293
284
329
329
327
360
363
396
432
467
503
539
575
564
609
606
598
606
605
643
673
710
703
740
743
748
772
773
841
806
869
925
917
949
950
1004
1004
978
1003
1000
1002
1030
1022
1022
1057
800
1030
1003
1005
970
969
944
921
925
928
902
883
868
854
829
823
804
796
774
768
741
723
707
681
672
661
643
629
602
587
561
520
527
440
504
492
466
455
420
430
402
381
371
341
347
321
240
288
263
271
250
233
228
204
182
170
146
145
125
106
91
90
66
46
42
26
6
735
755
715
795
1038
1018
1038
978
775
1000
1046
1046
902
982
615
918
962
837
655
879
902
928
859
675
798
819
820
848
805
780
811
716
784
719
754
722
703
659
673
596
577
626
622
601
591
515
564
543
539
521
501
476
484
502
459
443
462
425
427
385
398
390
500
200
965
906
951
846
890
560
745
708
711
667
624
645
672
589
588
549
260
467
402
386
346
303
348
282
305
309
284
263
241
312
222
289
242
100
229
209
193
143
176
108
65
41
72
75
54
21
2
464
486
482
571
593
599
617
652
736
673
705
700
761
790
865
831
898
865
896
897
948
950
1001
1034
404
380
364
324
307
284
293
248
224
252
164
28
39
24
36
44
32
211
30
156
76
196
149
151
146
147
147
146
192
232
232
183
233
274
233
230
226
231
231
315
228
316
272
271
270
270
312
271
267
312
265
310
567
266
353
520
311
311
565
353
568
605
309
350
395
392
393
392
435
384
424
429
430
389
558
476
430
474
431
425
472
512
514
466
556
514
512
508
555
544
512
550
595
592
544
586
592
590
589
632
630
674
671
757
670
715
716
669
669
753
712
753
753
794
748
744
793
794
877
833
784
832
834
833
832
831
869
991
871
868
915
910
912
914
913
915
915
908
1035
946
956
28
25
5
5
100
22
137
17
20
96
39
138
39
38
93
168
36
38
51
239
83
90
90
124
279
161
123
159
310
151
157
159
195
157
192
228
264
227
299
300
377
225
257
262
258
256
296
297
439
327
366
330
328
329
363
506
359
398
400
429
427
430
467
429
466
468
457
500
464
463
537
501
496
498
494
617
535
570
606
605
532
606
569
567
565
565
604
600
598
632
631
628
628
663
628
661
655
722
690
683
687
720
748
745
779
779
780
807
807
806
801
838
806
832
834
863
865
896
892
890
893
915
919
916
948
950
953
948
982
983
984
976
983
1006
1009
1002
1010
1001
1008
1038
1053
253
678
851
454
998
424
97
81
20
68
25
21
77
119
48
45
51
54
110
79
16
47
53
211
16
15
56
15
16
77
15
107
75
168
15
44
46
107
44
143
44
209
73
145
103
195
104
108
169
137
104
137
137
143
137
254
280
161
131
234
291
135
201
225
219
160
131
195
220
193
222
284
193
191
299
160
199
190
190
193
221
281
217
189
254
217
229
310
308
339
218
341
277
283
359
273
301
395
303
301
360
301
425
329
330
330
390
329
359
390
368
419
398
450
385
485
424
417
386
427
473
413
435
413
445
416
396
454
465
490
473
413
413
473
442
442
442
502
534
560
501
482
499
527
561
497
559
497
528
528
478
561
525
589
554
553
616
553
553
586
535
587
617
615
581
663
581
615
566
565
632
644
612
612
610
641
641
641
563
672
663
592
702
700
637
697
666
693
728
728
693
697
694
695
726
674
721
645
722
789
749
703
779
746
777
814
781
777
779
811
744
841
841
808
805
833
833
765
862
866
892
866
793
892
895
815
891
922
925
921
890
788
922
789
789
816
917
952
923
945
821
952
950
954
948
951
953
949
856
945
979
947
854
849
976
843
980
976
979
980
870
1010
871
1001
982
1007
1009
1006
1001
915
1015
902
927
902
1012
1017
1015
1029
1027
928
1024
942
1024
1032
932
1038
1037
961
1041
1041
1036
1049
1047
1046
1051
1058
1052
1061
1057
1059
1056
1056
1058
1058
1052
9
45
103
162
4
111
133
9
5
162
78
5
0
0
81
0
53
85
28
124
6
182
48
78
50
231
48
230
74
105
208
104
175
72
149
145
101
170
96
301
169
144
152
144
206
196
249
199
172
144
353
192
170
222
273
198
327
271
192
194
246
192
192
192
264
217
216
243
243
320
216
377
245
342
192
242
291
240
358
319
268
266
270
392
288
288
289
425
290
268
312
312
336
367
338
469
336
389
336
417
363
288
415
336
337
468
493
360
390
420
360
385
384
384
411
412
434
413
408
408
362
434
459
433
487
432
460
458
512
456
514
456
512
482
458
513
537
456
504
491
459
508
485
563
492
537
504
506
505
623
504
504
482
529
561
588
504
534
557
552
530
583
554
579
604
576
580
577
576
632
633
604
632
600
600
601
632
629
627
624
658
648
651
648
732
659
672
674
701
672
700
699
695
729
702
672
698
759
700
697
697
696
695
718
757
745
697
777
721
746
745
773
744
773
741
744
741
743
741
749
796
766
764
766
766
793
792
787
790
825
787
812
815
846
402
787
844
788
812
810
874
838
837
847
865
833
835
887
864
860
857
838
856
856
860
858
884
880
878
878
879
909
905
878
908
906
918
906
903
904
930
930
925
936
922
926
944
956
944
944
944
947
944
946
970
963
968
968
966
971
973
966
966
972
973
969
988
988
991
992
998
1022
989
1015
1016
1019
1017
1009
1010
1014
1038
1033
1040
1032
1032
1033
1032
689
287
935
951
205
206
371
455
405
463
611
740
666
55
482
811
365
225
645
365
902
929
927
362
144
966
962
443
959
323
982
622
1005
1029
892
)


// ************************************************************************* //
