/*--------------------------------*- C++ -*----------------------------------*\
  =========                 |
  \\      /  F ield         | OpenFOAM: The Open Source CFD Toolbox
   \\    /   O peration     | Website:  https://openfoam.org
    \\  /    A nd           | Version:  7
     \\/     M anipulation  |
\*---------------------------------------------------------------------------*/
FoamFile
{
    version     2.0;
    format      ascii;
    class       vectorField;
    location    "0.1425/lagrangian/reactingCloud1";
    object      coordinates;
}
// * * * * * * * * * * * * * * * * * * * * * * * * * * * * * * * * * * * * * //


1207
(
(1.78898 0.0770589 1.4187e-07)
(1.7979 0.0397381 -8.95905e-13)
(1.79357 0.0139897 1.04864e-14)
(1.78466 0.0571111 -6.75705e-07)
(1.78503 0.0544724 7.49918e-08)
(1.75648 0.0792659 1.615e-07)
(1.75546 0.0685228 2.93252e-07)
(1.74872 0.0230816 4.16974e-14)
(1.72735 0.0565451 -7.76582e-08)
(1.73448 0.0599441 2.47716e-07)
(1.71389 0.0745536 -1.20819e-07)
(1.70953 0.0732634 1.02227e-07)
(1.70912 0.0321772 -5.09549e-14)
(1.68896 0.000534598 2.37398e-08)
(1.66162 0.0465013 -1.31271e-12)
(1.6276 0.0850282 2.82087e-07)
(1.64596 0.0407587 -2.09519e-13)
(1.60848 0.0980932 4.01046e-07)
(1.56119 0.0994492 -1.5392e-06)
(1.62187 0.0488344 -3.71837e-08)
(1.60717 0.0683533 -9.84748e-08)
(1.60724 0.0734729 1.011e-09)
(1.61176 0.0182278 -3.64344e-13)
(1.58955 0.0840729 -1.87786e-08)
(1.58317 0.0808362 2.4223e-07)
(1.58211 0.0680056 1.28371e-07)
(1.56394 0.053619 -5.24553e-13)
(1.56274 0.0718896 4.45834e-07)
(1.54924 0.0579986 1.28609e-08)
(1.52778 0.0671536 -2.16562e-08)
(1.48899 0.0652012 -8.65305e-10)
(1.47388 0.0730679 -4.3576e-08)
(1.46288 0.078108 2.93826e-09)
(1.44192 0.0843521 -4.81121e-08)
(1.44268 0.0170632 -5.72718e-13)
(1.42489 0.0804383 -2.13672e-07)
(1.42556 0.0601322 -8.74023e-08)
(1.42581 0.010736 -1.66703e-13)
(1.4221 0.05639 -1.47479e-07)
(1.40839 0.0540708 1.50341e-07)
(1.3991 0.0715488 -2.4698e-10)
(1.37787 0.0445463 -1.38469e-13)
(1.37 0.0671525 -1.37141e-07)
(1.36809 0.0210548 1.15163e-14)
(1.3507 0.0345594 2.75633e-07)
(1.34756 0.0566487 -5.05839e-08)
(1.33749 0.0921515 -6.5237e-07)
(1.3344 0.0248038 9.33576e-14)
(1.32062 0.0281016 -2.33263e-12)
(1.29868 0.0774489 1.17538e-07)
(1.30115 0.0265706 -3.72924e-15)
(1.27528 0.0818065 -2.13726e-07)
(1.25056 0.0944335 -1.09011e-08)
(1.23887 0.046504 -5.4271e-12)
(1.2349 0.0806159 1.5031e-07)
(1.23037 0.0838247 -1.80353e-07)
(1.20471 0.0820116 9.83953e-08)
(1.20301 0.0822999 3.54672e-08)
(1.21249 0.0876274 -2.39259e-07)
(1.19729 0.0781142 -1.28181e-07)
(1.19798 0.0577654 -3.11773e-12)
(1.19285 0.074044 -3.24279e-08)
(1.19045 0.0775204 5.87321e-08)
(1.18964 0.0231422 -3.33337e-14)
(1.17742 0.0243143 -6.3232e-14)
(1.17343 0.0778345 -3.40836e-07)
(0.380645 0.135116 -3.40906e-07)
(0.422536 0.0740791 -1.20541e-11)
(0.421702 0.129447 9.04456e-11)
(0.418591 0.108034 -5.20959e-11)
(0.413239 0.0722483 -4.53893e-11)
(0.410439 0.0767979 -8.00932e-12)
(0.409404 0.111454 1.25593e-11)
(0.405387 0.135498 1.6255e-11)
(0.405579 0.105049 -1.07419e-10)
(0.401291 0.0836134 -1.01676e-10)
(0.400496 0.129019 2.7544e-11)
(0.396965 0.120997 5.67106e-13)
(0.391622 0.0827574 -3.62338e-11)
(0.385445 0.0367727 -3.07083e-12)
(0.383492 0.0750253 -3.45916e-11)
(0.383821 0.118863 -4.80815e-11)
(0.379767 0.106667 -1.21006e-10)
(0.371774 0.0208111 -1.11486e-11)
(0.36834 0.034426 -1.56147e-11)
(0.366693 0.0785693 -8.13197e-11)
(0.365767 0.125519 -5.03587e-13)
(0.360923 0.109512 -1.07091e-10)
(0.355731 0.080586 -1.20487e-10)
(0.353508 0.12568 -6.67858e-11)
(0.346496 0.0471834 -2.6257e-11)
(0.346652 0.120518 -3.34262e-11)
(0.341474 0.107826 -1.38152e-11)
(0.336479 0.0696639 -1.72814e-12)
(0.334182 0.116904 -2.41637e-10)
(0.328669 0.0794681 -6.96431e-11)
(0.326053 0.11943 -8.18672e-13)
(0.315352 0.12578 2.69937e-08)
(0.316583 0.0795758 8.71585e-12)
(0.297198 0.125242 1.4209e-07)
(0.309813 0.0987541 -4.83005e-11)
(0.304069 0.0474087 -1.49783e-11)
(0.301218 0.0861492 2.04983e-12)
(0.296354 0.0268077 5.99593e-13)
(0.291259 0.123399 -3.56493e-09)
(0.288856 0.060435 3.71396e-12)
(0.285858 0.113896 -9.71067e-12)
(0.281671 0.117275 -3.80365e-11)
(0.276692 0.0537879 2.57062e-12)
(0.27282 0.122302 -1.09752e-11)
(0.269164 0.0835719 -9.98349e-12)
(0.265241 0.11751 -3.8103e-12)
(0.24709 0.126016 1.23526e-12)
(0.257795 0.0765571 1.97196e-12)
(0.2534 0.108858 1.12563e-11)
(0.249244 0.0579808 -1.18174e-11)
(0.246011 0.0633321 -7.15762e-12)
(0.24146 0.0421488 2.70848e-12)
(0.237824 0.0751097 1.10106e-11)
(0.233319 0.10219 3.6975e-12)
(0.22974 0.111446 -2.77497e-12)
(0.2257 0.0609827 4.23237e-12)
(0.221369 0.0873659 1.83227e-11)
(0.217724 0.0907422 -2.70073e-12)
(0.214074 0.0913209 -4.29578e-12)
(0.209354 0.0839969 -3.23949e-12)
(0.205393 0.0579758 -4.74387e-14)
(0.202198 0.0585593 -1.77267e-12)
(0.198089 0.0847362 -1.25839e-12)
(0.193527 0.0897113 -2.56159e-13)
(0.189955 0.113272 1.33119e-11)
(0.1863 0.0878622 -9.65505e-14)
(0.181826 0.089591 -5.73025e-15)
(0.503671 0.159993 3.80707e-07)
(0.509854 0.16186 5.59386e-09)
(0.501554 0.158614 5.42918e-07)
(0.518445 0.153944 4.60082e-09)
(0.566803 0.123607 4.40798e-11)
(0.560289 0.127075 4.85857e-07)
(0.564698 0.122404 -7.73379e-12)
(0.554008 0.130613 1.67485e-10)
(0.510338 0.153831 -6.07727e-09)
(0.557318 0.113086 6.08981e-11)
(0.566077 0.0643503 -2.87488e-12)
(0.563506 0.0660148 -2.58422e-12)
(0.537423 0.101482 8.58998e-07)
(0.554148 0.0968858 -5.32497e-12)
(0.480668 0.164909 -7.56871e-09)
(0.541022 0.1264 9.51455e-11)
(0.549248 0.0960213 6.80589e-12)
(0.524498 0.139185 1.3819e-07)
(0.487249 0.15957 1.15067e-07)
(0.534084 0.125039 2.873e-11)
(0.537027 0.0995233 2.21178e-11)
(0.538677 0.047007 4.33439e-11)
(0.527652 0.124031 5.33196e-12)
(0.490316 0.158014 4.25823e-09)
(0.517005 0.13499 5.68391e-11)
(0.521087 0.122958 9.68393e-12)
(0.520315 0.116093 1.294e-12)
(0.523852 0.0526841 3.09736e-13)
(0.516308 0.0769883 3.73143e-12)
(0.513752 0.112784 4.94688e-13)
(0.516345 0.0304705 2.21468e-13)
(0.497928 0.154462 -7.74061e-07)
(0.510334 0.0858303 3.10132e-12)
(0.500832 0.124345 1.50581e-11)
(0.50243 0.00433913 -3.80401e-15)
(0.500612 0.101118 2.06769e-11)
(0.49563 0.0947467 1.00814e-11)
(0.488408 0.125873 3.70746e-11)
(0.485017 0.0134908 4.57711e-12)
(0.473858 0.152324 -9.46822e-08)
(0.471831 0.144126 3.58244e-08)
(0.478568 0.0713513 2.46381e-13)
(0.479373 0.103477 1.18127e-11)
(0.472918 0.114148 5.38604e-11)
(0.470504 0.0255054 -9.62414e-14)
(0.456524 0.157223 4.03116e-08)
(0.466718 0.0870975 -3.11589e-12)
(0.461273 0.0916838 1.06975e-10)
(0.460547 0.128242 9.24182e-12)
(0.457736 0.111123 1.39876e-13)
(0.454883 0.106179 -3.52776e-13)
(0.449796 0.148932 -4.05033e-08)
(0.449862 0.0867078 -6.55195e-12)
(0.452536 0.0980127 1.51511e-10)
(0.446062 0.120682 1.14109e-10)
(0.44099 0.0940727 5.1791e-11)
(0.444233 0.103318 1.38663e-10)
(0.437902 0.0722358 -8.62204e-12)
(0.434621 0.0564998 1.12557e-11)
(0.428584 0.0722764 -9.86456e-13)
(0.432265 0.128034 4.1442e-11)
(0.425294 0.03761 -1.75366e-12)
(0.679376 0.119081 -7.19506e-08)
(0.613715 0.139131 1.02967e-08)
(0.795607 0.0774493 7.29085e-09)
(0.779906 0.0691035 1.14381e-08)
(0.788769 0.0400728 8.21251e-13)
(0.763095 0.0701676 7.57329e-08)
(0.772297 0.049438 8.5949e-12)
(0.692957 0.110691 5.16688e-07)
(0.733061 0.0758693 3.89852e-11)
(0.72404 0.0604864 5.6919e-11)
(0.724669 0.0471229 -4.24096e-11)
(0.715128 0.0649716 3.25021e-11)
(0.706973 0.0853154 4.78046e-11)
(0.709007 0.0795396 6.95845e-11)
(0.715413 0.0431008 1.27902e-12)
(0.696833 0.0571842 8.73865e-11)
(0.694413 0.0669214 4.45599e-11)
(0.685701 0.0609584 1.78967e-11)
(0.624479 0.135852 4.19011e-07)
(0.668828 0.0792056 1.71295e-10)
(0.658413 0.111928 7.75394e-09)
(0.651283 0.088454 1.62413e-10)
(0.641744 0.0884597 1.24591e-07)
(0.634122 0.109762 2.75377e-08)
(0.641096 0.0774971 2.23814e-11)
(0.631759 0.119877 1.22932e-08)
(0.634357 0.0987737 1.64023e-10)
(0.634721 0.0669466 4.066e-11)
(0.629897 0.100836 2.09019e-10)
(0.627181 0.112938 -3.23618e-11)
(0.621551 0.125136 -8.9267e-08)
(0.632695 0.0492337 -4.54445e-14)
(0.618867 0.117962 -1.1843e-06)
(0.630387 0.068094 1.57051e-11)
(0.620116 0.117604 6.8896e-08)
(0.591804 0.144049 -3.36904e-07)
(0.615028 0.0734934 -3.3259e-12)
(0.611394 0.0728288 -1.78067e-12)
(0.607894 0.0479122 3.84473e-11)
(0.601653 0.119747 -2.03357e-07)
(0.603158 0.0267847 1.61704e-11)
(0.589764 0.0834684 -5.89175e-12)
(0.584911 0.11002 -2.7816e-12)
(0.580514 0.134778 -6.69192e-08)
(0.580282 0.0545253 -2.17561e-12)
(0.579785 0.0343184 -1.95437e-12)
(0.575952 0.0421922 -9.13659e-13)
(0.57552 0.136559 1.60775e-07)
(0.569165 0.134115 -3.30447e-07)
(1.13932 0.0775878 -6.53269e-07)
(1.1327 0.0396863 -7.77201e-13)
(1.12683 0.0204738 -4.56524e-13)
(1.09018 0.0680282 7.64524e-08)
(1.07553 0.0334572 2.18575e-12)
(1.07254 0.0792257 3.40652e-07)
(1.06539 0.0192959 -2.55108e-14)
(1.0539 0.0666185 -9.95748e-09)
(1.02498 0.0879045 4.43265e-08)
(1.03785 0.0316659 1.9164e-13)
(1.03269 0.0626955 5.16582e-07)
(1.02686 0.030396 1.26146e-12)
(1.01099 0.0781658 -1.74927e-07)
(0.997181 0.0850682 -8.13882e-08)
(0.973284 0.0509156 2.58897e-12)
(0.978889 0.00860368 5.29778e-12)
(0.958367 0.0878778 -7.65446e-07)
(0.964832 0.0508947 2.37217e-12)
(0.962275 0.0741358 -1.37553e-07)
(0.955415 0.0816847 2.40003e-08)
(0.938918 0.0586102 2.36636e-08)
(0.938667 0.07594 2.80173e-08)
(0.925494 0.0565036 5.31209e-12)
(0.914256 0.091018 -3.23177e-08)
(0.909298 0.0545548 2.85439e-11)
(0.899033 0.0828322 -2.69689e-07)
(0.889491 0.0553499 6.23453e-12)
(0.874011 0.0539616 3.8222e-11)
(0.870573 0.0349659 1.88917e-11)
(0.860498 0.0571586 -4.07783e-11)
(0.863487 0.00750431 -2.52303e-14)
(0.846346 0.0308006 1.37445e-11)
(0.841426 0.0526931 -3.42481e-11)
(0.845842 0.0113753 9.48764e-13)
(0.822886 0.0802071 -1.90388e-07)
(4.61939 0.177642 4.08971e-07)
(4.5548 0.154202 -6.41705e-08)
(4.66443 0.153866 -6.25493e-08)
(4.58711 0.138734 -1.97761e-07)
(4.49244 0.086536 -3.20033e-07)
(4.5914 0.10924 1.65673e-07)
(4.28108 0.217181 -5.64815e-07)
(4.54364 0.0940345 -5.25735e-07)
(4.34159 0.131638 -2.7259e-07)
(4.4313 0.0816322 1.15017e-07)
(4.26797 0.121024 -6.11876e-07)
(4.34439 0.0784142 -3.92977e-07)
(4.32643 0.0958626 -3.0568e-07)
(4.33332 0.0471959 2.02893e-08)
(4.29357 0.0579062 2.14236e-07)
(4.2929 0.0552001 1.94794e-07)
(4.33403 0.0473565 4.15165e-07)
(4.24419 0.0868588 -1.35486e-07)
(4.22247 0.0614454 5.65299e-08)
(4.19928 0.0641635 -1.56808e-07)
(4.28503 0.0109897 1.81445e-07)
(4.16949 0.0773171 8.463e-07)
(4.15526 0.0790437 8.87847e-08)
(4.20639 0.0737973 4.98822e-07)
(4.20918 0.0479302 5.81848e-08)
(4.21739 0.0186104 3.49676e-07)
(4.18226 0.0526685 -1.09766e-07)
(4.17688 0.0575136 9.37642e-07)
(4.06313 0.0894168 -3.25509e-08)
(4.19261 0.0286909 4.25876e-07)
(4.05582 0.100976 4.14105e-07)
(4.11544 0.0608928 1.63911e-08)
(4.13528 0.0566929 -4.56896e-08)
(4.14073 0.0503717 -3.86116e-08)
(4.14928 0.0451959 1.82117e-07)
(4.09367 0.0627545 -6.36228e-08)
(4.12279 0.0510359 -3.06024e-07)
(4.15053 0.0227523 1.2564e-07)
(4.07931 0.0637903 1.54866e-07)
(4.15137 0.00682432 -8.10149e-08)
(4.08249 0.048577 -4.43517e-08)
(3.74355 0.159441 7.90235e-08)
(4.11351 0.0151738 9.81138e-09)
(4.03639 0.0720132 -7.76323e-08)
(3.76944 0.124986 1.21947e-07)
(4.07092 0.0587263 -8.50934e-08)
(4.05359 0.053732 -8.11579e-08)
(3.74762 0.146463 -5.79568e-07)
(4.00497 0.0718284 -1.2522e-06)
(3.72047 0.16607 -5.96409e-07)
(3.699 0.149011 1.6692e-07)
(4.05515 0.0377209 2.00545e-08)
(4.02657 0.0428881 -1.95407e-07)
(3.93376 0.0908456 1.26694e-08)
(3.94283 0.0619339 6.60644e-08)
(3.94602 0.0673718 -2.88179e-07)
(3.94998 0.0607946 -2.18404e-08)
(3.91377 0.0929663 -3.85986e-08)
(3.96824 0.000464725 2.16674e-08)
(3.90952 1.73616e-10 3.21001e-13)
(3.91635 0.0372855 -2.07509e-07)
(3.92663 0.0453137 -6.00063e-08)
(3.92977 0.0383042 1.90491e-08)
(3.74418 0.110059 -2.46428e-07)
(3.82219 0.0996071 -3.15325e-07)
(3.91586 0.0460487 3.57368e-07)
(3.84708 0.0823438 -7.38984e-07)
(3.87279 0.0499287 -1.0851e-07)
(3.88854 0.0092252 2.97085e-08)
(3.83841 0.0635312 -1.92927e-07)
(3.79747 0.0572186 -1.71826e-07)
(3.77639 0.0795566 -1.30221e-07)
(3.82199 0.0123324 -1.64224e-08)
(3.73758 0.0962904 6.2721e-08)
(3.76869 0.0814165 4.2491e-07)
(3.7791 0.0578213 -9.95861e-08)
(3.78837 0.0317233 1.77619e-07)
(3.70995 0.0869635 -5.10964e-07)
(3.75598 2.64235e-11 7.56529e-14)
(3.75666 0.0586243 -4.75488e-08)
(3.74064 0.0433558 1.11112e-07)
(3.66115 0.0836782 -7.8432e-08)
(3.68234 0.0625142 3.22142e-07)
(3.70665 0.00160396 -3.08986e-07)
(3.69729 0.0147622 2.07722e-07)
(3.65886 0.0585826 -6.18482e-09)
(3.65363 0.0471169 -8.33623e-08)
(3.64603 0.0394979 1.8883e-07)
(3.62622 0.0560579 2.26668e-07)
(3.60833 0.0403851 1.86635e-07)
(3.56361 0.076162 -5.32458e-10)
(3.56338 0.0543207 -9.18794e-07)
(3.47826 0.101952 3.50012e-07)
(3.56872 0.0419193 8.48246e-08)
(3.52702 0.086724 1.75132e-07)
(3.51533 0.0935095 -7.90447e-07)
(3.54624 0.0356492 6.88452e-08)
(3.54086 0.0341869 -1.07403e-07)
(3.47645 0.0717629 2.44303e-07)
(3.48898 0.062714 -3.17029e-07)
(3.46848 0.0687973 -3.77518e-08)
(3.44957 0.0678962 -1.08618e-07)
(3.4257 0.0786064 5.2825e-08)
(3.43355 0.0271309 -6.51734e-08)
(3.43804 0.00205101 -7.97638e-08)
(3.41254 0.0656183 3.40059e-07)
(3.39729 0.0744649 -6.03211e-09)
(3.31844 0.0980412 9.27637e-08)
(3.36906 0.0713061 2.02443e-07)
(3.37916 1.58949e-11 8.59983e-14)
(3.36573 0.05782 -8.63672e-08)
(3.34889 0.0717561 2.3145e-07)
(3.33365 0.062708 -2.33086e-07)
(3.33568 0.0567131 -5.44552e-08)
(3.33238 0.0484407 2.1099e-09)
(3.32528 0.0313818 3.06806e-07)
(3.15095 0.135582 7.60388e-08)
(3.31474 0.0496359 1.01754e-07)
(3.29214 0.0275807 -4.39001e-08)
(3.26514 0.0798703 2.05292e-08)
(3.25713 0.0388211 -3.62871e-08)
(3.24978 0.0574715 1.97454e-07)
(3.23411 0.0767756 -7.10458e-07)
(3.23715 0.0656862 -8.44795e-10)
(3.22843 0.0799512 -4.76156e-08)
(3.22606 0.0803619 6.77471e-07)
(3.22788 0.0270758 -7.81295e-08)
(3.06714 0.133539 -1.9751e-08)
(3.21596 0.0167734 3.28885e-13)
(3.18193 0.0927846 5.37825e-07)
(3.11459 0.108605 -1.55842e-08)
(3.11538 0.091552 1.55838e-07)
(3.16022 0.0354028 1.1013e-08)
(3.15341 0.0346083 2.35588e-07)
(2.94809 0.122703 5.20883e-07)
(3.10127 0.0622788 -4.25119e-08)
(2.93094 0.133281 -5.91394e-08)
(3.12573 0.0294205 -2.30685e-07)
(3.09157 0.0480945 -2.51235e-07)
(2.98074 0.0954445 3.02088e-07)
(3.07252 0.0528272 1.56184e-07)
(2.89706 0.136706 2.94673e-07)
(3.04953 0.0591628 1.37372e-07)
(3.06993 0.0521288 1.4262e-07)
(2.97846 0.0727934 -3.55534e-07)
(2.88589 0.118841 -4.83939e-07)
(3.05722 0.0294612 5.37903e-09)
(3.04967 0.0492886 -3.11695e-08)
(3.01241 0.0154173 5.59864e-07)
(2.79391 0.132635 3.81623e-07)
(2.98041 1.42592e-08 -5.07201e-12)
(2.95739 0.0476316 -5.70537e-08)
(2.95799 0.0442414 9.20524e-08)
(2.91851 0.0466626 4.09567e-08)
(2.73416 0.164144 -8.58027e-08)
(2.87624 0.0684624 -2.458e-07)
(2.91645 0.0374561 -1.33716e-07)
(2.88594 0.0531131 2.70572e-07)
(2.68323 0.146547 -3.73458e-07)
(2.88112 4.61422e-11 -2.3848e-13)
(2.86943 0.0394713 -1.6595e-07)
(2.84944 0.0523138 4.14861e-08)
(2.80938 0.073405 1.62405e-07)
(2.85535 0.0375952 -1.69071e-08)
(2.82521 0.0449745 6.57146e-08)
(2.76875 0.0643214 -2.19477e-07)
(2.7539 0.0752448 7.72413e-08)
(2.77333 0.0511177 1.44691e-07)
(2.71173 0.0833567 -1.76819e-07)
(2.68012 0.0931403 -4.55859e-07)
(2.59539 0.135793 -6.91159e-07)
(2.79075 0.0424796 -1.3174e-07)
(2.75018 0.0236507 5.42581e-07)
(2.74382 0.0611157 1.53296e-07)
(2.76093 0.0312114 5.97031e-15)
(2.75789 0.0193398 1.98695e-12)
(2.71128 0.0650018 6.54978e-08)
(2.67849 0.0685453 2.31667e-07)
(2.55356 0.107804 1.37408e-06)
(2.66351 0.0375851 -5.16404e-07)
(2.60774 0.0744175 7.19854e-07)
(2.64849 0.0596283 -1.29371e-07)
(2.64985 0.0435864 -1.9761e-08)
(2.63546 0.0565312 -2.20128e-08)
(2.62497 0.0523709 -1.59631e-07)
(2.47144 0.103209 1.12946e-09)
(2.59492 0.0250591 -1.54029e-12)
(2.58645 0.0570196 -1.10285e-06)
(2.55991 0.0729563 3.67316e-07)
(2.54329 0.0362019 -2.22646e-07)
(2.54101 0.0262224 4.49379e-14)
(2.53889 0.04483 5.44482e-08)
(2.49551 0.0719978 1.33726e-07)
(2.52496 0.0341784 -2.99053e-08)
(2.51319 0.0618027 -1.60932e-07)
(2.48102 0.0779839 2.463e-07)
(2.50991 0.00417639 2.50957e-07)
(2.47133 0.0635622 -1.1439e-07)
(2.49344 0.0425051 -4.33264e-09)
(2.4855 0.0385912 -2.98909e-08)
(2.41759 0.083314 1.64871e-07)
(2.45456 0.0677677 -7.03018e-09)
(2.46295 0.0312392 -5.35101e-13)
(2.46261 0.0462543 4.32906e-08)
(2.43996 0.0192785 -1.79701e-12)
(2.33867 0.144018 -8.39725e-07)
(2.40739 0.0641869 1.68599e-08)
(2.378 0.0713631 2.29016e-07)
(2.32651 0.0884981 4.59431e-07)
(2.36085 0.0802802 -3.49685e-07)
(2.41514 0.0448336 3.67997e-07)
(2.33456 0.0863033 -2.41515e-08)
(2.37276 0.0702358 1.50853e-07)
(2.37911 0.0482133 1.63438e-07)
(2.37526 0.0376125 4.44999e-08)
(2.37125 0.0366849 -3.40662e-12)
(2.33557 0.0778247 -4.91132e-08)
(2.35517 0.041794 5.72773e-07)
(2.33531 0.0311787 -3.10123e-13)
(2.29995 0.0694742 -1.16503e-07)
(2.30973 0.0613535 3.9805e-07)
(2.30891 0.0362699 -1.32009e-13)
(2.29491 0.0385895 -1.63537e-13)
(2.27062 0.0782318 7.60176e-08)
(2.29087 0.0341813 -1.5664e-12)
(2.27322 0.0700574 1.675e-07)
(2.28933 0.0206369 -2.38081e-13)
(2.21205 0.0912296 -1.67917e-07)
(2.23445 0.0627647 1.56424e-07)
(2.22706 0.0190924 -1.46162e-13)
(2.22035 0.0444945 3.12488e-08)
(2.19337 0.0726995 4.68615e-07)
(2.18216 0.0628173 1.59665e-07)
(2.15797 0.0443434 1.52987e-07)
(2.1286 0.0834414 6.52485e-08)
(2.13636 0.0813044 1.65961e-07)
(2.12246 0.0840566 -1.18683e-07)
(2.11554 0.0755713 3.17889e-07)
(2.11501 0.0748675 2.58457e-07)
(2.11912 0.0665819 1.05509e-07)
(2.11547 0.0269953 -4.12971e-13)
(2.07459 0.0867537 1.17167e-07)
(2.09279 0.0615633 -2.49261e-08)
(2.08174 0.0448959 -3.10808e-08)
(2.06674 0.0597822 -9.0931e-08)
(2.04814 0.0568661 7.72791e-08)
(2.03232 0.0751262 -1.3454e-07)
(1.99611 0.0824721 4.05633e-07)
(2.01259 0.0533439 1.38765e-07)
(2.00939 0.0384531 8.48504e-13)
(1.99641 0.0648454 1.18931e-07)
(1.98579 0.0147037 3.19802e-13)
(1.97334 0.0415347 -1.92241e-13)
(1.96892 0.0245198 2.22854e-13)
(1.96207 0.043537 -1.45506e-13)
(1.95968 0.0597186 7.08115e-08)
(1.94564 0.0788161 4.41325e-07)
(1.94744 0.03796 2.07382e-12)
(1.92496 0.0791313 -1.72776e-07)
(1.91533 0.0850563 7.64183e-09)
(1.9146 0.0888306 -3.97831e-07)
(1.91744 0.0368381 1.12698e-12)
(1.90678 0.0878445 -2.13622e-07)
(1.90388 0.0557278 4.40558e-08)
(1.89352 0.0750309 4.61257e-08)
(1.89176 0.0278756 -2.71234e-14)
(1.88386 0.083595 4.00464e-08)
(1.88493 0.0225479 -2.6175e-14)
(1.87717 0.0739655 -7.92042e-08)
(1.85572 0.0962211 -1.07479e-06)
(1.83155 0.0557656 -3.15204e-08)
(5.95703 0.432515 9.49474e-08)
(6.08888 0.297603 -5.1028e-08)
(5.32008 0.248193 -1.69153e-07)
(7.05686 0.269314 3.15877e-07)
(4.66799 0.235913 1.19127e-07)
(7.20224 0.266512 -3.33186e-07)
(6.99286 0.211387 -7.98938e-08)
(7.02853 0.0798434 2.64514e-08)
(7.1601 0.0516793 6.19286e-07)
(7.06596 0.218472 6.62955e-07)
(7.19441 0.107913 1.18237e-07)
(7.13271 0.0617899 -2.67873e-09)
(6.99883 0.0428285 -9.28318e-07)
(6.91489 0.170319 -1.08293e-06)
(7.05633 0.0451856 5.40765e-07)
(7.10879 0.0154319 7.90148e-08)
(7.11557 0.0719883 -7.15347e-08)
(7.11552 0.111843 2.09966e-07)
(6.95574 0.0797642 -9.59566e-08)
(7.02901 0.0614514 -7.61762e-08)
(7.19196 0.00908029 -3.57565e-07)
(7.05383 0.0290267 -5.17821e-09)
(7.09449 0.101751 -3.49281e-07)
(6.70781 0.193483 -1.13109e-07)
(7.18135 0.0158184 -1.29493e-07)
(7.1775 0.00438179 -3.64544e-07)
(7.05879 0.124277 -5.04521e-07)
(7.16497 0.00318973 1.69379e-08)
(7.14532 0.014469 -3.6785e-08)
(7.03966 0.0414517 1.08708e-08)
(7.12725 0.00132896 9.58867e-08)
(6.9373 0.0500431 4.41408e-07)
(7.03211 0.0196287 -9.47367e-08)
(6.82528 0.0858392 1.01694e-07)
(7.12445 0.000153241 -1.06137e-07)
(7.09224 1.86096e-05 -4.89008e-08)
(7.10342 0.0190646 1.90526e-07)
(6.92612 0.0545269 -5.09708e-07)
(7.07438 0.00613573 4.83758e-07)
(6.88378 0.131937 -5.79355e-07)
(7.09559 0.00686654 1.49588e-07)
(6.71611 0.181695 -1.16522e-07)
(6.99176 7.08749e-10 5.41862e-12)
(6.86424 0.146469 3.11116e-07)
(6.95933 0.0151595 2.19619e-08)
(6.72558 0.0560245 5.68924e-07)
(6.96961 0.02399 -2.40785e-07)
(6.96638 0.0572831 5.69152e-07)
(6.80199 0.0942365 -2.3043e-07)
(6.8576 0.0593884 -2.01435e-07)
(6.97198 0.0212455 4.58459e-09)
(6.87013 0.0568782 2.81258e-07)
(6.88896 0.0578862 -4.79761e-07)
(6.88065 0.127243 1.16253e-07)
(6.88998 0.0574167 2.45889e-07)
(6.59253 0.091376 7.97724e-08)
(6.53196 0.0691827 -1.87132e-07)
(6.77469 0.013715 1.43549e-07)
(6.83817 1.10725e-10 -6.91286e-13)
(6.67415 0.163829 -4.08295e-07)
(6.51402 0.171417 -3.21561e-07)
(6.83978 0.0384476 4.1033e-07)
(6.75126 0.125147 2.54087e-08)
(6.67831 0.0839019 1.23508e-07)
(6.63933 0.0187036 -4.36358e-07)
(6.83508 1.48749e-10 -3.41626e-13)
(6.8409 7.13857e-11 2.88939e-13)
(6.73617 0.0637479 5.97047e-07)
(6.68526 0.0292747 5.08812e-08)
(6.76002 0.0385503 4.33427e-08)
(6.64646 0.0478275 -2.32103e-07)
(6.52354 0.111126 -9.63626e-08)
(6.72659 0.0388618 -1.61259e-07)
(6.76019 0.0169535 1.81511e-07)
(6.53346 0.224788 -7.61317e-08)
(6.79765 8.68089e-10 8.19739e-13)
(6.72125 0.108022 -3.31532e-07)
(6.71457 0.0129075 8.08625e-07)
(6.71567 0.0122131 -3.08283e-07)
(6.73457 0.0419567 -1.83917e-07)
(6.66867 0.035096 -8.1041e-08)
(6.53863 0.0809813 2.79431e-07)
(6.68404 0.000510692 -9.44271e-07)
(6.69723 5.88498e-08 -8.06745e-11)
(6.5605 0.0903256 -3.07409e-07)
(6.68731 0.00181036 4.35207e-07)
(6.64247 0.127689 1.44682e-06)
(6.44113 0.0906752 1.01615e-07)
(6.46331 0.0650046 2.96878e-07)
(6.38219 0.104131 3.25826e-07)
(6.62859 0.012271 1.16681e-08)
(6.40189 0.118912 -5.98691e-07)
(6.50921 0.0417163 -1.62867e-07)
(6.51797 0.098845 -2.66578e-08)
(6.31677 0.0179954 -5.26153e-08)
(6.50093 0.00597425 5.15351e-07)
(6.4736 0.00337484 1.83888e-08)
(6.20319 0.100361 2.40601e-08)
(6.40727 0.0230487 -3.1887e-08)
(6.41608 3.41284e-11 -8.0802e-14)
(6.30165 0.0261946 -2.37022e-07)
(6.41832 0.0066796 -1.16691e-07)
(6.1382 0.118661 3.69304e-09)
(6.37982 0.00200961 -3.70231e-08)
(6.34251 0.0087045 -3.73084e-08)
(6.34292 0.0153988 7.92275e-08)
(6.2359 0.0435962 1.66878e-09)
(6.33599 2.84657e-11 -6.96757e-14)
(6.29613 0.0187066 -5.96096e-07)
(6.20006 0.0470458 -6.25986e-08)
(6.30505 0.108403 -3.28152e-07)
(6.15101 0.0617518 6.41066e-07)
(6.24533 0.133339 3.80546e-07)
(6.08913 0.0878606 -1.11111e-07)
(6.2143 0.00372694 2.31819e-07)
(6.01119 0.149422 -1.10641e-06)
(6.1633 0.107892 -2.6101e-07)
(6.18575 0.0356453 -4.07183e-07)
(6.21467 0.0111013 1.03046e-09)
(6.15461 0.140647 -7.60952e-08)
(6.01677 0.0366578 1.18407e-07)
(6.1787 1.53384e-10 4.57639e-14)
(6.13816 0.184149 5.31338e-08)
(6.1834 2.16328e-09 -1.34725e-11)
(6.11291 0.0369114 4.90758e-07)
(6.13663 0.0273742 1.13928e-07)
(6.19216 0.110177 5.91053e-07)
(6.10555 0.130987 2.30181e-07)
(6.10763 0.20342 1.96385e-07)
(6.01262 0.17761 2.02342e-07)
(6.03605 0.0355909 8.24571e-08)
(6.12709 0.0031469 3.44404e-07)
(6.11581 0.00116135 -5.14664e-08)
(6.0094 0.0348767 -1.41368e-07)
(6.07999 0.00975472 8.40737e-08)
(6.07739 0.0102308 -1.34923e-08)
(6.05539 0.00834946 -8.58678e-08)
(5.96068 0.046491 -2.122e-08)
(5.8637 0.0872374 -9.98e-08)
(5.79659 0.0698393 -1.40001e-06)
(5.93159 0.0353907 -2.91079e-07)
(6.01296 0.13008 -1.32284e-06)
(5.94489 0.01759 -1.44927e-06)
(5.89767 0.0206879 -9.04092e-08)
(5.76423 0.0793113 -2.75452e-07)
(5.94258 5.3265e-12 -2.25571e-14)
(5.76872 0.0522357 -1.66517e-07)
(5.92971 0.000799734 -9.28609e-08)
(5.86648 0.0254024 -3.83762e-07)
(5.87503 0.0300713 -5.52088e-07)
(6.01233 0.0847322 -7.93863e-07)
(5.76927 0.0725522 3.58303e-07)
(5.85229 8.64635e-11 -5.068e-13)
(5.74853 0.0749491 3.22689e-07)
(5.77902 0.0138238 6.61092e-09)
(5.81612 0.00416059 5.98572e-08)
(5.68147 0.0616986 1.3447e-06)
(5.78505 4.96219e-09 -1.11837e-11)
(5.79577 0.00505349 3.70075e-07)
(5.70309 0.0425791 -3.10252e-07)
(5.87197 0.0938113 2.50953e-07)
(5.69533 0.0515731 6.82257e-07)
(5.62288 0.0708217 -3.31503e-07)
(5.66602 0.0505142 1.30527e-08)
(5.72605 0.000370583 -3.18593e-08)
(5.59788 0.211339 9.57937e-08)
(5.69893 0.000258837 -4.91191e-08)
(5.61822 0.0519802 -6.054e-08)
(5.80069 0.123902 -1.7777e-07)
(5.7795 0.11201 8.94862e-07)
(5.66392 0.184716 1.2036e-07)
(5.56203 0.0618703 1.60309e-07)
(5.64669 0.0287837 1.30531e-07)
(5.65908 0.0228043 -4.93593e-08)
(5.65052 0.0086675 -1.21591e-07)
(5.5949 0.0366816 -2.66268e-07)
(5.57727 0.0342618 1.8198e-07)
(5.58181 0.0374221 -2.2808e-07)
(5.80428 0.0978445 -4.37991e-08)
(5.50165 0.0650428 1.32034e-07)
(5.56951 0.212654 2.53974e-07)
(5.74082 0.103311 -3.8892e-08)
(5.44184 0.0807023 -5.34333e-08)
(5.45196 0.0647643 1.06543e-07)
(5.54817 3.86417e-11 -3.06761e-13)
(5.4554 0.0357664 -1.12151e-07)
(5.51566 0.010057 4.60821e-08)
(5.45696 0.00176581 -5.22097e-09)
(5.39268 0.0646336 -1.57718e-07)
(5.36491 0.0588572 -2.00727e-07)
(5.45911 6.0049e-11 4.15118e-15)
(5.4116 0.0323845 7.8444e-07)
(5.40782 0.0130154 -3.80879e-08)
(5.41812 0.0207815 -6.85966e-07)
(5.37768 0.0393034 -3.47101e-07)
(5.53782 0.0812933 4.77095e-07)
(5.37512 0.00328909 -1.92379e-08)
(5.57641 0.0695205 -5.30384e-07)
(5.35564 0.0121386 -9.87139e-08)
(5.23643 0.107686 7.89451e-08)
(5.31744 0.00558326 1.83399e-07)
(5.46422 0.098599 1.9221e-07)
(5.24501 0.0185261 -1.00462e-06)
(5.34399 0.196629 4.03401e-07)
(5.25208 0.000167153 7.42708e-08)
(5.13973 0.0799322 1.07611e-07)
(5.2206 0.0320513 1.72451e-08)
(5.23255 0.00125141 7.9924e-08)
(5.22214 0.016995 -1.10158e-07)
(5.17671 0.0492422 -9.46468e-08)
(5.36883 0.181235 -2.28114e-07)
(5.10217 0.0708878 -4.13674e-08)
(5.10877 0.0668193 -4.79427e-07)
(5.13986 0.0285912 8.81358e-09)
(5.14608 0.00090176 1.11732e-07)
(5.11424 8.68182e-11 -6.22464e-13)
(5.11295 0.0020548 -6.63335e-09)
(5.29528 0.144452 -2.25215e-07)
(5.05209 0.0108572 -1.44453e-07)
(5.02238 0.0426331 -7.09826e-07)
(4.97945 0.0244634 8.65936e-07)
(4.99795 0.0444861 5.00152e-09)
(5.23966 0.143063 2.91981e-07)
(4.97176 0.0243384 -6.1762e-07)
(4.95654 0.0504246 -8.25092e-08)
(5.16079 0.0957441 -2.46475e-07)
(4.9661 0.015299 2.08281e-08)
(4.92331 0.0452524 3.16038e-07)
(4.87951 0.0692157 1.72546e-07)
(4.91824 0.0357258 -1.01608e-07)
(4.93215 0.0111647 6.10961e-08)
(5.20916 0.103083 2.51081e-07)
(4.91506 0.0373892 7.96125e-09)
(5.20122 0.113621 5.87907e-08)
(5.21497 0.113604 -2.074e-07)
(5.19521 0.102652 -1.31475e-07)
(4.92178 6.09596e-11 -6.50443e-14)
(4.86128 0.0601311 -8.84545e-09)
(4.87471 0.0497241 -1.58256e-07)
(4.84718 0.00442143 -1.95475e-07)
(5.13895 0.142057 8.43449e-07)
(4.84826 0.0554342 9.36635e-08)
(4.86024 0.042595 -1.44126e-08)
(4.80642 0.0757507 -4.74715e-07)
(4.84654 0.0241891 -3.0531e-07)
(4.84187 0.050937 3.62335e-07)
(4.80921 0.0658415 -1.00315e-07)
(4.84296 0.034446 1.86584e-08)
(5.07284 0.179119 -1.26074e-07)
(4.82723 0.000626497 -1.85797e-08)
(4.79317 0.0534969 1.838e-07)
(4.81469 0.0178096 -1.42741e-08)
(5.06772 0.167597 6.57658e-09)
(5.10352 0.14142 -3.46941e-08)
(4.77696 0.0240288 1.62981e-07)
(5.09482 0.0955192 8.22726e-07)
(4.75589 0.0573594 -1.54496e-07)
(4.77414 0.0210778 -6.35607e-08)
(4.73778 0.048457 8.33368e-07)
(4.74382 0.0542589 -9.80615e-08)
(5.01515 0.0772331 -2.08399e-07)
(4.70726 0.0734663 1.61223e-07)
(5.05413 0.0908218 3.72175e-08)
(4.72836 0.00164462 8.5308e-08)
(4.76834 0.0797648 -2.02794e-08)
(4.70262 0.0459048 -6.52779e-08)
(4.68246 0.0670377 -8.98308e-08)
(4.70044 0.037702 -2.46477e-08)
(4.7013 0.00177589 4.76479e-07)
(4.94595 0.197648 -4.79438e-07)
(4.64772 0.0212032 -8.46389e-08)
(4.97132 0.114764 4.36172e-07)
(4.91744 0.093856 4.45381e-07)
(4.9614 0.116592 2.68301e-08)
(4.63615 7.59953e-05 6.00206e-08)
(4.61535 0.0374726 5.20045e-07)
(4.61225 0.0235182 1.74049e-07)
(4.58971 0.0547102 -4.70581e-07)
(4.5785 0.0427607 3.36409e-07)
(4.90787 0.10216 -1.35158e-06)
(4.5598 0.0188613 -9.24906e-08)
(4.87552 0.186838 1.75476e-08)
(4.54256 0.0192866 -1.39221e-08)
(4.53126 0.000133359 2.87394e-07)
(4.87029 0.132149 3.81019e-07)
(4.52072 0.0522439 -1.24373e-09)
(4.52525 0.0379168 -9.01434e-08)
(4.86221 0.137842 7.22712e-08)
(4.50007 0.0783847 8.22631e-08)
(4.4899 0.077061 3.67253e-07)
(4.49846 0.0338402 5.5382e-07)
(4.44303 0.0556281 -3.51948e-07)
(4.43631 0.0368235 -9.98384e-08)
(4.42598 0.0282872 -1.51811e-07)
(4.41734 0.0759599 -6.95445e-08)
(4.40859 0.0460236 4.27799e-07)
(4.41033 2.78268e-11 -1.6635e-13)
(4.4005 0.0734397 3.90688e-07)
(4.40671 0.0374539 1.55334e-07)
(4.39396 0.0550379 -1.1129e-07)
(4.39312 0.0271573 4.16673e-07)
(4.3905 0.0345482 -1.11852e-07)
(4.38506 0.0443727 9.28355e-08)
(4.36992 0.0472671 -1.88758e-07)
(4.35996 0.00263681 9.61446e-08)
(10.0035 0.115738 -7.01113e-07)
(9.95583 0.23315 -2.74583e-07)
(9.77021 0.0961415 1.10053e-06)
(9.69366 0.209559 -1.4323e-06)
(10.0069 0.0513276 -8.69626e-07)
(9.76364 0.19009 1.40822e-07)
(9.7284 0.172471 -1.09052e-08)
(9.96977 0.125824 3.3317e-07)
(10.0032 0.0616991 7.06011e-07)
(9.66343 0.207437 -1.1116e-06)
(9.81748 0.0834998 1.74318e-06)
(9.96343 0.0664411 1.29416e-07)
(9.97 0.00803376 1.78007e-07)
(9.98878 0.00515329 -4.28345e-07)
(9.80809 0.115589 4.45315e-07)
(9.96017 0.00144994 -1.67647e-08)
(9.88008 0.0667197 -1.21205e-08)
(9.84503 0.163676 9.60027e-07)
(9.92168 0.0492397 -7.32842e-07)
(9.75162 0.0506152 1.06836e-06)
(9.96784 0.0816992 8.15928e-07)
(9.60821 0.179304 1.38331e-06)
(9.88588 9.79609e-08 6.32764e-10)
(9.82704 0.0762092 1.19959e-06)
(9.88059 0.0301544 3.90027e-07)
(9.49234 0.186812 -3.66177e-07)
(9.90156 2.51348e-07 3.64021e-10)
(9.52825 0.171334 2.09524e-08)
(9.81256 0.0264711 1.0666e-09)
(9.79608 0.121673 -8.65185e-07)
(9.56789 0.193804 -1.87425e-07)
(9.75819 0.0999142 -9.68048e-07)
(9.64016 0.0880782 -4.35792e-07)
(9.83457 1.21688e-08 5.71715e-11)
(9.66846 0.067231 2.59391e-07)
(9.6885 0.0129369 4.65522e-07)
(9.78523 0.0696322 2.61365e-07)
(9.64233 0.0272127 5.31308e-07)
(9.78619 4.01982e-06 -7.56979e-09)
(9.31308 0.163072 1.65242e-07)
(9.62397 0.0127894 -1.01259e-06)
(9.67081 0.0089365 -3.60682e-07)
(9.65948 0.0990185 -1.88982e-06)
(9.68812 0.00335339 1.43774e-07)
(9.59011 0.179493 -3.59349e-07)
(9.55691 0.0543287 -1.0638e-06)
(9.44116 0.118182 8.54496e-07)
(9.54906 0.0867588 4.95158e-07)
(9.64339 0.0523955 -1.51607e-06)
(9.69146 1.06421e-08 -6.29622e-11)
(9.21115 0.199291 3.0873e-08)
(9.58303 1.11055e-08 7.0518e-12)