/*--------------------------------*- C++ -*----------------------------------*\
  =========                 |
  \\      /  F ield         | OpenFOAM: The Open Source CFD Toolbox
   \\    /   O peration     | Website:  https://openfoam.org
    \\  /    A nd           | Version:  7
     \\/     M anipulation  |
\*---------------------------------------------------------------------------*/
FoamFile
{
    version     2.0;
    format      ascii;
    class       scalarField;
    location    "0.1425/lagrangian/reactingCloud1";
    object      d;
}
// * * * * * * * * * * * * * * * * * * * * * * * * * * * * * * * * * * * * * //


1207
(
2e-07
2e-07
2e-07
2e-07
2e-07
2e-07
2e-07
2e-07
2e-07
2e-07
2e-07
2e-07
2e-07
2e-07
2e-07
2e-07
2e-07
5.9809e-07
7.6211e-07
2e-07
2e-07
2e-07
2e-07
2e-07
2e-07
2e-07
2e-07
2e-07
2e-07
2e-07
2e-07
2e-07
2e-07
2e-07
2e-07
2e-07
2e-07
2e-07
2e-07
2e-07
2e-07
2e-07
2e-07
2e-07
2e-07
2e-07
2e-07
2e-07
2e-07
2e-07
2e-07
2e-07
2e-07
2e-07
2e-07
2e-07
2e-07
2e-07
2e-07
2e-07
2e-07
2e-07
2e-07
2e-07
2e-07
2e-07
2e-07
2e-07
2e-07
2e-07
2e-07
2e-07
2e-07
2e-07
2e-07
2e-07
2e-07
2e-07
2e-07
2e-07
2e-07
2e-07
2e-07
2e-07
2e-07
2e-07
2e-07
2e-07
2e-07
2e-07
2e-07
2e-07
2e-07
2e-07
2e-07
2e-07
2e-07
2e-07
2e-07
2e-07
2e-07
2e-07
2e-07
2e-07
2e-07
2e-07
2e-07
2e-07
2e-07
2e-07
2e-07
2e-07
2e-07
2e-07
2e-07
2e-07
2e-07
2e-07
2e-07
2e-07
2e-07
2e-07
2e-07
2e-07
2e-07
2e-07
2e-07
2e-07
2e-07
2e-07
2e-07
2e-07
2e-07
2e-07
2e-07
2e-07
2e-07
2e-07
2e-07
2e-07
2e-07
2e-07
2e-07
2e-07
2e-07
2e-07
2e-07
2e-07
2e-07
2e-07
2e-07
2e-07
2e-07
2e-07
2e-07
2e-07
2e-07
2e-07
2e-07
2e-07
2e-07
2e-07
2e-07
2e-07
2e-07
2e-07
2e-07
2e-07
2e-07
2e-07
2e-07
2e-07
2e-07
2e-07
2e-07
2e-07
2e-07
2e-07
2e-07
2e-07
2e-07
2e-07
2e-07
2e-07
2e-07
2e-07
2e-07
2e-07
2e-07
2e-07
2e-07
2e-07
2e-07
2e-07
2e-07
2e-07
2e-07
2e-07
2e-07
2e-07
2e-07
2e-07
2e-07
2e-07
2e-07
2e-07
2e-07
2e-07
2e-07
2e-07
2e-07
2e-07
2e-07
2e-07
2e-07
2e-07
2e-07
2e-07
2e-07
2e-07
2e-07
2e-07
2e-07
2e-07
2e-07
2e-07
2e-07
2e-07
2e-07
2e-07
2e-07
2e-07
2e-07
2e-07
2e-07
2e-07
2e-07
2e-07
2e-07
2e-07
2e-07
2e-07
2e-07
2e-07
2e-07
2e-07
2e-07
2e-07
2e-07
2e-07
2e-07
2e-07
2e-07
2e-07
2e-07
2e-07
2e-07
2e-07
2e-07
2e-07
2e-07
2e-07
2e-07
2e-07
2e-07
2e-07
2e-07
2e-07
2e-07
2e-07
2e-07
2e-07
2e-07
2e-07
2e-07
2e-07
2e-07
2e-07
2e-07
8.92157e-07
5.60722e-07
1.43666e-06
1.62687e-06
1.68293e-06
2.15011e-06
9.08166e-07
1.13614e-06
1.30804e-06
3.30453e-07
1.93534e-06
2e-07
1.28199e-06
2e-07
2e-07
2e-07
2e-07
2e-07
2e-07
2e-07
2e-07
2e-07
2e-07
2e-07
2e-07
2e-07
2e-07
2e-07
3.49639e-06
2e-07
2.16619e-06
2e-07
2e-07
2e-07
2e-07
2e-07
2e-07
2e-07
2e-07
2e-07
2e-07
9.52834e-07
2e-07
2e-07
9.83036e-07
2e-07
2e-07
1.42912e-06
2e-07
6.31348e-07
1.0676e-06
2e-07
2e-07
2.13329e-06
2e-07
2e-07
2e-07
6.19644e-07
2e-07
2e-07
2e-07
2e-07
2e-07
2.26345e-06
1.988e-06
2e-07
2e-07
2e-07
2e-07
2e-07
2e-07
2e-07
2e-07
1.2419e-06
2e-07
2e-07
2e-07
2e-07
2e-07
2e-07
2e-07
2e-07
2e-07
2e-07
2e-07
2e-07
2e-07
2e-07
2e-07
2e-07
2e-07
2e-07
1.12881e-06
2e-07
2e-07
6.77153e-07
2e-07
2e-07
2e-07
2e-07
2e-07
2e-07
2e-07
2e-07
2e-07
2e-07
2e-07
1.95774e-06
2e-07
2e-07
2e-07
2e-07
2e-07
2e-07
2e-07
2e-07
1.22152e-06
2e-07
2e-07
2e-07
2e-07
2e-07
2e-07
2e-07
2e-07
2e-07
2e-07
1.07068e-06
2e-07
2e-07
2.19997e-06
2e-07
2e-07
2e-07
1.00533e-06
2e-07
9.47939e-07
2e-07
2e-07
9.27826e-07
2e-07
6.17768e-07
2e-07
2e-07
2e-07
1.06082e-06
2e-07
2e-07
2e-07
9.47786e-07
2e-07
2e-07
2e-07
2e-07
5.45882e-07
2e-07
2e-07
2e-07
8.48017e-07
2e-07
2e-07
2e-07
2e-07
2e-07
2e-07
2e-07
2e-07
2e-07
2e-07
2e-07
9.3847e-07
2e-07
2e-07
2e-07
2e-07
2e-07
2e-07
2e-07
1.05033e-06
2e-07
2e-07
2e-07
2e-07
2e-07
2e-07
2.00375e-06
2e-07
2e-07
2e-07
2e-07
2e-07
2e-07
2e-07
2e-07
2e-07
2e-07
2e-07
2e-07
2e-07
2e-07
2e-07
2e-07
2e-07
2e-07
2e-07
8.47758e-07
2e-07
2e-07
2.01751e-06
2e-07
2e-07
2e-07
2e-07
2e-07
2e-07
2e-07
2e-07
2e-07
2e-07
2e-07
2e-07
2e-07
2e-07
2e-07
2e-07
2e-07
2e-07
2e-07
2e-07
2e-07
2e-07
2e-07
2e-07
2e-07
2e-07
2e-07
2e-07
2e-07
2e-07
2e-07
2e-07
2e-07
2e-07
2e-07
2e-07
2e-07
2e-07
2e-07
2e-07
2e-07
2e-07
2e-07
2e-07
2e-07
2e-07
2e-07
2e-07
2e-07
2e-07
2e-07
2e-07
2e-07
2e-07
2e-07
2e-07
2e-07
2e-07
2e-07
2e-07
5.04309e-07
2e-07
7.66817e-07
1.03726e-06
9.30473e-07
1.85495e-06
7.29148e-07
1.26886e-06
2.0044e-06
2.10187e-06
2.0013e-06
3.32779e-06
2.19464e-06
1.9199e-06
2.38338e-06
1.91122e-06
2.37178e-06
2e-07
9.08724e-07
2.07311e-06
2.07476e-06
1.28704e-06
3.83357e-06
2e-07
3.12779e-06
1.39748e-06
2e-07
2e-07
3.96102e-06
2e-07
2e-07
2e-07
2e-07
1.21562e-06
2e-07
1.54976e-06
2e-07
2e-07
2e-07
1.16815e-06
2e-07
2.17716e-06
2e-07
1.00638e-06
2e-07
2.64112e-06
2e-07
2.05487e-06
2e-07
4.24054e-06
2.31061e-06
1.05384e-06
2e-07
6.14941e-07
1.08629e-06
2.32248e-06
9.03526e-07
2.17642e-06
2.33462e-06
2e-07
2e-07
2.41451e-06
1.52765e-06
2e-07
2.15139e-06
1.6321e-06
2e-07
2e-07
2e-07
8.38426e-07
2e-07
2e-07
2e-07
1.51655e-06
2e-07
2e-07
2.30429e-06
2e-07
2.08382e-06
2e-07
2e-07
3.9555e-06
2e-07
1.27848e-06
2e-07
2e-07
1.73596e-06
2e-07
2.1798e-06
1.65918e-06
6.27737e-07
1.68877e-06
2e-07
1.42322e-06
2e-07
2.82525e-06
2e-07
2e-07
2e-07
1.84267e-06
2e-07
2e-07
2e-07
2e-07
1.73892e-06
2e-07
2e-07
2e-07
2e-07
2e-07
2e-07
2e-07
2.72546e-06
2e-07
2.11059e-06
1.25873e-06
2e-07
1.05066e-06
1.42457e-06
2e-07
2e-07
1.35526e-06
2e-07
2e-07
1.32635e-06
2e-07
2e-07
2e-07
2.16324e-06
1.66404e-06
1.53357e-06
1.11444e-06
2e-07
2e-07
2e-07
2e-07
2e-07
2e-07
2e-07
2e-07
1.17548e-06
2e-07
2e-07
2.53142e-06
2e-07
2e-07
3.8367e-06
2e-07
2e-07
2e-07
2e-07
2e-07
2.73809e-06
5.47921e-07
2e-07
7.78733e-07
2e-07
2e-07
2e-07
2e-07
2e-07
4.9265e-06
3.49181e-06
2e-07
4.12857e-07
2e-07
2e-07
1.2238e-06
2e-07
2e-07
1.88104e-06
1.91488e-06
1.58524e-06
2e-07
2e-07
2e-07
2e-07
2e-07
2e-07
2e-07
2.66315e-06
2e-07
9.30034e-07
2.39418e-06
8.89557e-07
2e-07
2e-07
2e-07
2e-07
2e-07
2e-07
2e-07
2e-07
2e-07
2e-07
2e-07
2e-07
1.98191e-06
2e-07
2.43654e-06
2e-07
1.03901e-06
2e-07
2.31242e-06
2e-07
1.11456e-06
2e-07
7.3184e-07
2e-07
2e-07
2e-07
2e-07
8.83495e-07
2e-07
2e-07
2e-07
2e-07
2e-07
2e-07
2.96043e-06
2e-07
2e-07
2e-07
2e-07
1.16832e-06
2e-07
2e-07
1.60289e-06
2e-07
2e-07
2e-07
2e-07
2e-07
2.01223e-06
2e-07
1.46985e-06
1.89132e-06
3.00093e-06
2e-07
2e-07
2e-07
2e-07
1.77699e-06
2e-07
2e-07
2e-07
2e-07
2e-07
2e-07
2e-07
8.70026e-07
2e-07
2e-07
2e-07
8.9093e-07
1.44141e-06
2e-07
2.17524e-06
2e-07
2e-07
2e-07
2e-07
2.12907e-06
2e-07
3.08452e-06
2e-07
1.21195e-06
2e-07
2e-07
2e-07
2e-07
9.7248e-07
2e-07
1.3773e-06
1.17403e-06
2.3915e-06
2e-07
2e-07
2e-07
2e-07
2e-07
1.76892e-06
2e-07
4.94086e-07
2e-07
2e-07
1.79504e-06
2e-07
2e-07
1.58629e-06
2e-07
2e-07
2e-07
2e-07
2e-07
2e-07
2e-07
2e-07
2e-07
2e-07
2e-07
2e-07
2e-07
2e-07
2e-07
2e-07
2e-07
2.53484e-06
2.43027e-06
3.05853e-06
2.31589e-06
2.55862e-06
1.32663e-06
2.43387e-06
2.4192e-06
3.634e-06
1.96335e-06
2.82659e-06
2.49022e-06
2.65461e-06
2.49511e-06
2.81605e-06
2.48582e-06
2.79153e-06
2.09734e-06
2.50571e-06
2.81019e-06
2.32435e-06
1.0228e-06
2.45957e-06
2.47402e-06
2.69695e-06
2.08432e-06
2.43661e-06
1.75511e-06
2.58749e-06
2.43591e-06
1.92403e-06
2.35933e-06
2.32231e-06
2.39467e-06
2.86248e-06
3.02146e-06
2.36573e-06
3.16611e-06
2.49111e-06
3.67983e-06
3.73834e-06
2.38545e-06
2.23673e-06
2.39228e-06
3.81869e-06
2.93801e-06
2.26684e-06
2.20145e-06
6.87016e-06
2.34832e-06
1.11286e-06
2.34085e-06
2.3139e-06
4.08724e-06
4.04425e-06
2.35508e-06
2.40289e-06
2.3674e-06
2.33152e-06
2.30266e-06
3.40658e-06
2.31172e-06
2.30279e-06
2.29828e-06
5.02051e-06
2.28357e-06
2.28205e-06
2.8948e-06
6.23402e-06
3.02423e-06
2.26901e-06
1.38783e-06
2.32788e-06
3.87771e-06
2.43378e-06
2.52465e-06
2.30891e-06
2.23971e-06
2.15474e-06
2.92149e-06
2.47283e-06
2.22585e-06
2.09268e-06
3.60683e-06
2.19188e-06
2.18967e-06
2.1785e-06
1.89683e-06
2.36245e-06
2.57126e-06
2.16505e-06
2.15161e-06
2.68865e-06
2.43807e-06
2.22285e-06
2.11191e-06
2.13099e-06
2.75759e-06
2.32088e-06
3.97351e-06
4.17613e-06
3.3958e-06
3.54045e-06
2.09799e-06
2.08874e-06
3.19239e-06
2.47946e-06
2.07359e-06
2.12056e-06
2.78342e-06
2.05919e-06
2.16244e-06
2.05056e-06
2.05869e-06
2.22039e-06
2.03613e-06
6.32959e-06
2.17345e-06
2.02244e-06
2.0143e-06
1.99298e-06
2.07972e-06
2.52191e-06
2.17459e-06
2.88365e-06
3.14145e-06
3.75462e-06
2.04787e-06
3.20804e-06
3.99876e-06
2.72818e-06
1.94009e-06
4.3373e-06
2.03163e-06
1.91354e-06
2.44197e-06
2.68059e-06
1.9239e-06
3.44356e-06
2.09307e-06
1.99719e-06
2.57726e-06
1.95039e-06
2.52142e-06
1.95744e-06
2.30712e-06
1.87338e-06
1.96331e-06
1.84718e-06
1.91472e-06
1.96662e-06
1.84323e-06
2.39094e-06
2.06456e-06
2.37891e-06
2.11686e-06
1.82356e-06
2.42572e-06
2.11735e-06
1.78576e-06
1.78076e-06
4.77287e-06
4.12162e-06
4.15475e-06
4.08125e-06
1.71542e-06
2.25987e-06
1.69135e-06
1.67992e-06
2.56964e-06
2.17331e-06
2.2268e-06
3.99833e-06
1.65668e-06
1.64916e-06
3.43339e-06
2.10345e-06
1.78906e-06
2.4744e-06
1.56739e-06
2.17077e-06
1.55033e-06
1.66713e-06
1.52171e-06
3.67176e-06
1.6098e-06
1.50144e-06
1.60931e-06
3.54478e-06
1.47266e-06
2.08227e-06
2.12505e-06
1.44515e-06
2.87809e-06
1.79228e-06
1.44415e-06
1.68903e-06
3.68568e-06
1.62591e-06
1.54102e-06
1.54396e-06
1.37775e-06
1.37363e-06
1.3539e-06
2.12598e-06
2.984e-06
3.04697e-06
2.18884e-06
1.25969e-06
2.22201e-06
1.74471e-06
2.22188e-06
3.05891e-06
2.40224e-06
1.25081e-06
2.02851e-06
1.24353e-06
1.3879e-06
1.20422e-06
2.03269e-06
2.11502e-06
1.35908e-06
1.13392e-06
1.31026e-06
1.47223e-06
4.56325e-06
1.86195e-06
1.08379e-06
1.41632e-06
1.57976e-06
1.037e-06
1.6234e-06
2.8267e-06
1.96907e-06
2.55239e-06
9.93719e-07
2.2294e-06
9.91921e-07
1.1773e-06
9.24918e-07
1.81098e-06
1.738e-06
1.48817e-06
3.28527e-06
2.36952e-06
7.95346e-07
1.04491e-06
3.02077e-06
2.49856e-06
1.76396e-06
7.03717e-07
3.41272e-06
6.87731e-07
6.91413e-07
1.12091e-06
9.22655e-07
2.92546e-06
8.62945e-07
5.02643e-07
4.69543e-07
3.19976e-07
2.45197e-06
1.36201e-06
2.15606e-07
1.49739e-06
2.75277e-06
1.29507e-06
3.34943e-06
9.32757e-07
1.23822e-06
2.88856e-06
2.98455e-06
8.5687e-07
2.41967e-06
2e-07
1.14886e-06
2e-07
2.36707e-06
2e-07
2e-07
2e-07
5.99799e-07
2e-07
2e-07
1.00199e-06
2.21214e-06
2e-07
2e-07
2e-07
2.23255e-06
2.37999e-06
2e-07
2e-07
3.39177e-06
3.04186e-06
2.8889e-07
2e-07
2e-07
8.40911e-07
2.24785e-06
2.15975e-06
2.43256e-06
2e-07
7.25172e-07
1.16537e-06
2.76397e-06
3.81114e-06
2.07937e-06
2e-07
4.4952e-07
1.07535e-06
2e-07
1.45724e-06
2e-07
2e-07
2e-07
2e-07
1.07848e-06
7.2155e-07
1.10013e-06
1.97185e-06
8.92976e-07
4.4507e-07
1.20573e-06
1.34741e-06
8.58201e-07
1.9031e-06
1.42502e-06
1.71574e-06
8.1831e-07
1.09008e-06
1.72238e-06
1.50274e-06
3.65687e-06
2.81409e-06
1.50331e-06
1.58661e-06
1.14449e-06
1.37245e-06
3.20759e-06
1.50325e-06
1.76264e-06
1.16852e-06
7.16253e-07
1.461e-06
1.4408e-06
1.57953e-06
1.30671e-06
1.68159e-06
1.66508e-06
1.20849e-06
3.82604e-06
)


// ************************************************************************* //
