/*--------------------------------*- C++ -*----------------------------------*\
  =========                 |
  \\      /  F ield         | OpenFOAM: The Open Source CFD Toolbox
   \\    /   O peration     | Website:  https://openfoam.org
    \\  /    A nd           | Version:  7
     \\/     M anipulation  |
\*---------------------------------------------------------------------------*/
FoamFile
{
    version     2.0;
    format      ascii;
    class       labelField;
    location    "0.1425/lagrangian/reactingCloud1";
    object      origId;
}
// * * * * * * * * * * * * * * * * * * * * * * * * * * * * * * * * * * * * * //


1207
(
1516
1540
1542
1535
1539
1531
1538
1546
1543
1544
1537
1536
1549
1530
1552
1517
1554
1547
1449
1553
1545
1550
1559
1548
1551
1556
1560
1558
1562
1561
1564
1563
1567
1431
1576
1568
1569
1578
1574
1570
1572
1580
1577
1583
1541
1581
1571
1586
1587
1573
1589
1565
1557
1593
1594
1582
1592
1585
1566
1579
1595
1588
1555
1600
1601
1575
1715
1739
1740
1741
1742
1743
1744
1745
1746
1747
1748
1749
1750
1751
1752
1753
1754
1755
1756
1757
1758
1759
1760
1761
1762
1763
1764
1765
1766
1767
1768
1769
1770
1771
1772
1773
1774
1775
1776
1777
1778
1779
1780
1781
1782
1783
1784
1785
1786
1787
1788
1789
1790
1791
1792
1793
1794
1795
1796
1797
1798
1799
1800
1801
1802
1803
1804
1591
1658
1617
1639
1681
1680
1682
1684
1683
1688
1689
1690
1666
1691
1657
1692
1693
1694
1674
1695
1697
1699
1698
1696
1700
1701
1702
1704
1706
1705
1707
1703
1708
1709
1712
1711
1713
1714
1718
1716
1717
1720
1719
1721
1723
1710
1724
1726
1725
1727
1728
1722
1730
1729
1731
1733
1732
1734
1735
1737
1736
1738
1598
1508
1630
1636
1640
1638
1641
1625
1642
1647
1649
1648
1645
1646
1651
1653
1652
1655
1527
1656
1650
1659
1623
1643
1664
1654
1662
1667
1663
1660
1644
1669
1637
1668
1661
1488
1672
1673
1676
1665
1678
1679
1677
1671
1685
1686
1687
1670
1675
1596
1604
1606
1603
1610
1602
1612
1607
1584
1614
1609
1615
1605
1590
1618
1621
1597
1619
1599
1608
1620
1616
1622
1611
1624
1613
1626
1628
1631
1629
1633
1634
1632
1635
1627
1173
1129
1174
1205
1193
1183
1140
1242
1215
1263
1243
1256
1276
1279
1095
1286
1291
1264
1288
1278
1296
1287
1280
1297
1301
1302
1289
1299
1203
1308
1255
1293
1300
1305
1310
1303
1292
1274
1295
1314
1312
1269
1317
1306
1160
1315
1311
1246
1294
1258
1283
1319
1298
1006
1204
1318
1316
1321
1323
1313
1327
1329
1332
1196
1307
1328
1331
1333
1338
1145
1334
1335
1344
1320
1326
1342
1347
1325
1304
1330
1350
1324
1337
1349
1357
1352
1359
1358
1351
1364
1348
1340
1354
1343
1336
1356
1371
1370
1362
1366
1365
1361
1363
1381
1322
1376
1355
1346
1377
1368
1383
1387
1382
1379
1384
1385
1367
1386
1391
1372
1395
1396
1339
1389
1392
1388
1400
1226
1403
1393
1345
1369
1407
1406
1402
1399
1398
1412
1410
1394
1408
1360
1390
1415
1401
1409
1418
1416
1353
1373
1414
1422
1417
1420
1378
1425
1424
1428
1375
1380
1419
1429
1413
1436
1439
1426
1434
1405
1411
1423
1421
1443
1309
1441
1447
1448
1444
1432
1438
1455
1445
1454
1456
1442
1458
1123
1463
1427
1451
1467
1468
1466
1460
1469
1465
1452
1459
1435
1471
1472
1433
1457
1475
1474
1478
1404
1470
1397
1374
1437
1479
1450
1462
1481
1464
1483
1473
1484
1487
1476
1485
1489
1490
1477
1491
1482
1492
1341
1496
1499
1497
1486
1498
1503
1480
1493
1495
1446
1501
1505
1509
1494
1506
1502
1510
1512
1507
1453
1515
1519
1511
1523
1522
1525
1524
1521
1513
1526
1514
1504
1430
1529
1500
1528
1440
1532
1518
1533
1520
1461
1534
892
960
1105
835
1081
836
860
828
962
783
762
958
979
940
972
880
994
937
975
992
934
1000
917
893
1002
1008
676
976
1003
1007
1012
1010
1015
977
1013
997
1017
1014
1018
902
1016
751
995
933
1019
996
1024
931
928
1027
1028
1023
1025
971
1031
999
1030
1033
1022
942
1026
1041
919
1034
1032
1035
1042
1044
1021
1040
1037
1039
1049
1051
953
1036
630
1043
1055
1011
1038
1052
1059
991
907
1053
900
1029
1045
1064
1065
1046
1069
1004
1056
1068
1061
1050
1085
1062
1067
1071
1073
1091
1080
1066
1084
1097
1087
1090
986
1075
998
1074
1082
1020
905
1099
1100
988
1092
1088
957
1112
1111
1093
1005
970
1047
1001
1078
1072
1114
1115
1116
1122
1126
1121
1106
1108
1133
1009
1131
1135
1096
1127
1103
1137
1136
1130
1057
1143
1146
1149
1119
1138
1118
1154
1142
1113
1070
1152
1117
1150
1156
806
1158
1159
1089
1101
1048
1128
1166
1165
1157
1168
1170
1153
1063
1141
939
1083
1169
1172
1132
1155
1181
1124
947
1167
1076
1178
1175
1192
1187
1120
1184
1139
1164
1190
1201
1102
1163
1060
1202
1179
1189
1077
1208
1185
1054
1194
1209
1212
1176
1213
1223
1107
1225
1200
1217
1220
1098
1228
1207
1171
1230
1216
1197
1229
1238
1058
1232
1186
1161
1147
1198
1206
1222
1188
1110
1235
1237
1199
1231
1233
1219
1247
1094
1211
1218
1249
1134
1191
1251
1177
1210
1250
1144
1252
1180
1236
1079
1109
1224
1240
1227
1221
1241
1125
1254
1104
1214
1162
1259
1268
1262
1248
1265
1195
1253
1086
1275
1148
1182
1267
1270
1151
1244
1245
1260
1273
1277
1285
1257
1239
1261
1272
1281
1284
1234
1282
1271
1266
1290
613
538
609
574
645
497
604
647
605
650
523
672
648
655
483
669
659
670
673
601
680
396
657
671
664
246
682
478
679
539
691
695
572
689
675
662
640
616
668
582
634
701
697
711
562
654
585
704
685
702
507
705
710
646
628
718
643
548
721
692
661
678
713
693
639
694
696
709
581
674
734
580
735
626
739
727
715
731
641
708
720
736
688
666
733
745
752
618
741
742
757
746
726
743
756
547
760
749
747
687
611
714
690
765
724
653
698
759
772
728
764
773
775
780
774
766
719
770
782
788
768
796
754
784
738
755
725
794
665
748
730
804
723
795
786
776
769
802
758
649
787
779
791
761
799
790
805
781
810
642
792
816
797
793
808
811
823
801
818
817
825
712
763
716
729
824
821
840
833
778
837
842
767
848
845
819
847
830
803
809
846
841
800
863
753
681
870
858
785
854
851
839
852
740
862
831
865
703
827
864
882
677
884
838
722
814
869
861
855
856
871
843
859
850
868
853
894
898
874
888
866
897
908
890
891
807
881
911
844
744
879
901
875
883
563
916
732
914
876
889
829
896
906
813
878
903
932
834
826
910
927
822
925
930
912
920
872
929
945
924
941
895
935
923
946
909
812
815
952
915
867
857
936
798
961
951
963
849
984
969
944
955
938
964
948
873
967
965
949
943
926
974
956
877
922
918
980
966
904
959
950
886
978
968
982
913
885
832
990
985
989
981
973
993
983
954
987
447
568
515
534
381
397
454
619
472
586
700
565
588
707
686
777
416
531
789
632
717
706
737
571
592
887
667
750
899
684
699
771
820
921
591
)


// ************************************************************************* //
