/*--------------------------------*- C++ -*----------------------------------*\
  =========                 |
  \\      /  F ield         | OpenFOAM: The Open Source CFD Toolbox
   \\    /   O peration     | Website:  https://openfoam.org
    \\  /    A nd           | Version:  7
     \\/     M anipulation  |
\*---------------------------------------------------------------------------*/
FoamFile
{
    version     2.0;
    format      ascii;
    class       Cloud<passiveParticle>;
    location    "0.1425/lagrangian/reactingCloud1";
    object      positions;
}
// * * * * * * * * * * * * * * * * * * * * * * * * * * * * * * * * * * * * * //

1207
(
(0.401258 0.261903 0.048951 0.287888) 46152 91623 2
(0.268937 0.393501 0.0415416 0.296021) 46103 91613 1
(0.0107871 0.0212549 0.494561 0.473397) 46142 91606 2
(0.325036 0.201729 0.336439 0.136796) 46149 91620 2
(0.700609 0.159061 0.128858 0.0114713) 46149 91617 1
(0.208 0.335183 0.395561 0.0612561) 46196 91714 2
(0.798351 0.079723 0.0209872 0.100938) 46195 91710 2
(0.378677 0.31082 0.238843 0.0716601) 46188 91698 1
(0.351254 0.324908 0.0739489 0.249889) 46237 91796 1
(0.542887 0.0225508 0.205802 0.22876) 46238 91796 2
(0.211536 0.403315 0.184505 0.200644) 46284 91887 1
(0.227008 0.167183 0.219509 0.386299) 46284 91888 2
(0.594207 0.210063 0.0665642 0.129165) 46278 91875 1
(0.176764 0.00060164 0.0191391 0.803495) 46316 192282 2
(0.459204 0.251222 0.0372036 0.25237) 46368 92055 2
(0.0792538 0.46063 0.159981 0.300135) 46417 92156 1
(0.23534 0.161006 0.369472 0.234183) 46367 92141 2
(0.549178 0.207898 0.0175662 0.225358) 46464 92248 2
(0.67325 0.164368 0.073042 0.0893407) 46552 92426 1
(0.191896 0.0140876 0.402996 0.39102) 46412 92231 2
(0.871092 0.0645721 0.0393397 0.0249963) 46459 92240 1
(0.565417 0.217573 0.181068 0.0359423) 46460 92240 1
(0.0138969 0.333006 0.492383 0.160714) 46451 92224 2
(0.247298 0.185266 0.376073 0.191363) 46505 92332 2
(0.783955 0.10787 0.0169425 0.0912325) 46505 92330 1
(0.724312 0.0876255 0.133485 0.0545769) 46503 92413 2
(0.796769 0.0520388 0.101531 0.0496617) 46545 92412 2
(0.2418 0.379306 0.375034 0.00385994) 46548 92416 1
(0.230446 0.391872 0.10916 0.268522) 46590 92499 1
(0.208521 0.388468 0.0271125 0.375898) 46635 92589 2
(0.113282 0.456481 0.19988 0.230358) 46679 92765 1
(0.639364 0.184945 0.0826499 0.093041) 46724 92855 1
(0.339312 0.0523215 0.27809 0.330277) 46769 92858 2
(0.349827 0.0973204 0.227923 0.32493) 46814 92948 2
(0.307552 0.0797777 0.346083 0.266587) 46803 92928 2
(0.282753 0.270193 0.0991526 0.347901) 46857 93033 2
(0.213223 0.230094 0.17671 0.379973) 46854 93027 2
(0.187122 0.463813 0.0207607 0.328304) 46846 93011 2
(0.301013 0.135864 0.213979 0.349144) 46854 93028 2
(0.0045186 0.149924 0.488142 0.357415) 46853 93113 2
(0.599669 0.190355 0.0100604 0.199916) 46900 93120 2
(0.744007 0.100106 0.120725 0.0351624) 46940 93287 2
(0.109158 0.230329 0.227052 0.433461) 46987 93293 2
(0.321093 0.13306 0.221206 0.324641) 46980 93279 2
(0.143237 0.0511428 0.376854 0.428766) 47027 93374 2
(0.542565 0.0284677 0.200341 0.228626) 47030 93380 2
(0.265119 0.126723 0.363372 0.244786) 47035 93477 2
(0.0847108 0.507029 0.398025 0.0102347) 47069 93457 1
(0.0865926 0.456895 0.121518 0.334995) 47070 93460 1
(0.247889 0.384828 0.207322 0.159962) 47165 93649 1
(0.047968 0.187438 0.457374 0.30722) 47113 93633 2
(0.104754 0.448215 0.409032 0.0379987) 47210 93740 1
(0.153475 0.431552 0.319963 0.0950106) 47300 93919 1
(0.0590328 0.47067 0.323798 0.1465) 47292 93906 1
(0.139675 0.00934217 0.430259 0.420724) 47341 94004 2
(0.75045 0.12842 0.0963213 0.0248086) 47342 94003 1
(0.146493 0.431902 0.142669 0.278936) 47430 94179 1
(0.378576 0.313512 0.0772469 0.230665) 47430 94179 1
(0.333475 0.333694 0.280209 0.0526219) 47387 94094 1
(0.805899 0.0971592 0.0789814 0.0179602) 47429 94180 1
(0.788848 0.105657 0.0317924 0.0737028) 47426 94174 1
(0.0535473 0.473345 0.380777 0.092331) 47428 94178 1
(0.091061 0.434304 0.0373179 0.437317) 47473 94265 2
(0.202838 0.417326 0.150667 0.229169) 47465 94249 1
(0.0962078 0.471126 0.404951 0.0277154) 47465 94337 2
(0.467563 0.171293 0.101955 0.259189) 47517 94353 2
(0.253711 0.309553 0.381143 0.0555934) 3200 6255 2
(0.476345 0.257332 0.0899004 0.176422) 3430 6664 1
(0.0277708 0.485125 0.19025 0.296854) 3403 6612 1
(0.248154 0.150554 0.219992 0.3813) 3405 6615 2
(0.014417 0.476092 0.175507 0.333983) 3370 6586 1
(0.589894 0.0388688 0.164241 0.206996) 3369 6545 2
(0.136999 0.431172 0.363883 0.0679465) 3344 6499 1
(0.486798 0.250238 0.0211761 0.241788) 3321 6490 1
(0.0536291 0.299445 0.48388 0.163046) 3325 6498 2
(0.131281 0.416291 0.433645 0.0187833) 3328 6465 1
(0.36005 0.319025 0.207153 0.113772) 3302 6415 1
(0.331311 0.334254 0.020312 0.314123) 3283 6378 1
(0.442757 0.271946 0.125092 0.160204) 3268 6387 1
(0.418925 0.28982 0.118525 0.17273) 3254 6324 1
(0.155211 0.412353 0.211525 0.220911) 3229 6311 1
(0.032172 0.482859 0.263641 0.221328) 3223 6261 1
(0.294483 0.198518 0.359376 0.147623) 3204 6262 2
(0.0452554 0.475862 0.067076 0.411807) 3196 6211 1
(0.0652359 0.466419 0.192564 0.275781) 3174 6168 1
(0.0549024 0.454575 0.431366 0.0591567) 3168 6153 1
(0.980977 0.00691981 0.00970375 0.0023995) 3141 6139 2
(0.487603 0.255449 0.0167373 0.24021) 3123 6068 1
(0.0522602 0.472585 0.0353101 0.439844) 3107 6037 1
(0.321377 0.33906 0.0928492 0.246714) 3081 5984 1
(0.222031 0.388469 0.183031 0.206468) 3072 5969 1
(0.411814 0.0508179 0.29422 0.243148) 3061 5947 2
(0.389043 0.174956 0.125055 0.310946) 3043 5909 2
(0.660827 0.166911 0.0588565 0.113405) 3029 5882 1
(0.266059 0.366391 0.318153 0.0493967) 3002 5830 1
(0.369755 0.314736 0.0715536 0.243956) 2987 5803 1
(0.438378 0.138929 0.28467 0.138023) 2961 5788 2
(0.865179 0.0387299 0.0674555 0.0286356) 2920 5672 2
(0.0539909 0.258943 0.483794 0.203272) 2927 5722 2
(0.618286 0.0937754 0.193391 0.0945476) 2840 5553 2
(0.557893 0.162116 0.221146 0.0588438) 2904 5641 2
(0.669909 0.146744 0.165091 0.0182567) 2892 5618 2
(0.59909 0.043669 0.202135 0.155106) 2866 5603 2
(0.0941672 0.104878 0.466026 0.334928) 2855 5582 2
(0.238236 0.360768 0.38088 0.0201157) 2820 5477 2
(0.492799 0.113395 0.133906 0.2599) 2830 5494 2
(0.711375 0.0607382 0.0835744 0.144313) 2802 5440 2
(0.339426 0.330287 0.053962 0.276325) 2781 5401 1
(0.443331 0.108157 0.285094 0.163418) 2771 5418 2
(0.100513 0.449743 0.192638 0.257105) 2741 5321 1
(0.103136 0.103555 0.344877 0.448432) 2747 5333 2
(0.411507 0.0604616 0.294247 0.233785) 2721 5284 2
(0.598964 0.196082 0.0275105 0.177444) 2640 5163 1
(0.168148 0.413636 0.363272 0.0549435) 2688 5256 1
(0.0693903 0.462408 0.369724 0.0984777) 2663 5207 1
(0.0328824 0.269119 0.214439 0.483559) 2671 5185 2
(0.38065 0.309675 0.168243 0.141432) 2650 5144 1
(0.388352 0.28582 0.0457672 0.280061) 2633 5149 1
(0.0651086 0.453696 0.329986 0.151209) 2628 5100 1
(0.240662 0.3782 0.0470053 0.334133) 2604 5053 1
(0.530926 0.162649 0.234537 0.0718882) 2582 5013 2
(0.496801 0.196214 0.2625 0.0444842) 2570 5026 2
(0.205755 0.384215 0.0486101 0.36142) 2546 4979 1
(0.118897 0.154906 0.440552 0.285646) 2545 4941 2
(0.296163 0.351918 0.0389107 0.313008) 2525 4902 1
(0.029605 0.485198 0.178988 0.30621) 2506 4865 1
(0.0344609 0.48277 0.0048445 0.477925) 2491 4834 1
(0.144505 0.322687 0.427748 0.105061) 2490 4834 2
(0.255842 0.372079 0.131661 0.240418) 2466 4787 1
(0.201736 0.399132 0.0889032 0.310229) 2446 4746 1
(0.329921 0.327105 0.28565 0.0573246) 2442 4737 1
(0.78201 0.108995 0.0808686 0.0281264) 2426 4707 1
(0.239473 0.380263 0.139818 0.240446) 2406 4681 1
(0.728363 0.135904 0.022215 0.113517) 3800 96634 2
(5.26763e-06 0.142949 0.356719 0.500327) 3820 96633 1
(0.228238 0.314334 0.394353 0.0630744) 3780 7386 2
(0.108841 0.15275 0.449601 0.288808) 3860 7542 2
(0.627406 0.186542 0.0888075 0.0972447) 4103 7979 1
(0.0653322 0.457623 0.322886 0.154159) 4083 7937 1
(0.195962 0.0197229 0.38168 0.402636) 4103 7976 2
(0.0376275 0.482305 0.453798 0.0262689) 4043 7860 1
(0.0122971 0.0147707 0.478694 0.494238) 3840 7464 2
(0.473829 0.160895 0.102588 0.262688) 4065 7903 2
(0.567455 0.203953 0.00684406 0.221748) 4111 8031 1
(0.196306 0.390132 0.21087 0.202692) 4111 7992 1
(0.0979072 0.451128 0.234886 0.216079) 3967 7712 1
(0.551473 0.219678 0.109628 0.119221) 4047 7906 1
(8.95059e-06 0.0861466 0.413859 0.499986) 3680 96640 1
(0.375844 0.272104 0.311423 0.0406293) 3983 7745 2
(0.838577 0.0807545 0.0631439 0.0175247) 4027 7831 1
(0.915072 0.0280761 0.0135037 0.0433482) 3902 7584 2
(0.740243 0.116829 0.129845 0.0130824) 3720 7232 2
(0.224104 0.388132 0.0770149 0.310749) 3944 7667 1
(0.614916 0.19269 0.0616672 0.130726) 3967 7712 1
(0.0297732 0.253254 0.484503 0.232469) 3993 7765 2
(0.557068 0.21902 0.0782798 0.145633) 3924 7627 1
(0.408612 0.0137307 0.295681 0.281976) 3740 7271 2
(0.359229 0.320709 0.138116 0.181946) 3863 7509 1
(0.57603 0.105529 0.215503 0.102939) 3884 7588 2
(0.886021 0.0558042 0.022611 0.0355641) 3885 7590 1
(0.633113 0.178868 0.123958 0.0640617) 3913 7645 1
(0.473065 0.254975 0.102116 0.169843) 3870 7561 1
(0.0063305 0.00669572 0.497074 0.4899) 3845 7512 2
(0.0549321 0.451096 0.322466 0.171507) 3876 7573 1
(0.0764995 0.459408 0.099834 0.364258) 3781 7348 1
(0.580077 0.205963 0.0879792 0.125982) 3849 7481 1
(0.298216 0.0787971 0.353518 0.269468) 3784 7393 2
(0.553152 0.282393 0.0822274 0.0822274) 3819 7462 1
(0.217394 0.276507 0.402824 0.103275) 3787 7399 2
(0.553466 0.216266 0.0622435 0.168024) 3768 7362 1
(0.233815 0.171727 0.388817 0.205641) 3724 7276 2
(0.814921 0.0737163 0.0188708 0.0924924) 3738 7266 2
(0.691564 0.142292 0.00801014 0.158134) 3661 7114 2
(0.216869 0.380811 0.0156544 0.386666) 3642 7116 1
(0.541825 0.224611 0.152984 0.0805795) 3691 7212 1
(0.373867 0.302851 0.0576786 0.265603) 3687 7204 1
(0.286633 0.0998992 0.256732 0.356736) 3666 7125 2
(0.110151 0.039985 0.451589 0.398275) 3656 7144 2
(0.433961 0.0859639 0.194778 0.285296) 3580 6957 2
(0.301766 0.3377 0.109366 0.251168) 3629 7091 1
(0.395702 0.3017 0.0359723 0.266626) 3608 7014 1
(0.515519 0.240264 0.0632634 0.180954) 3604 7003 1
(0.729774 0.13443 0.116673 0.0191225) 3586 7007 1
(0.0647693 0.0186233 0.468332 0.448276) 3566 6968 2
(0.744282 0.0592084 0.129488 0.067022) 3541 6919 2
(0.36484 0.313033 0.222098 0.100028) 3549 6935 1
(0.157429 0.349079 0.422153 0.0713382) 3567 6934 2
(0.024465 0.487169 0.309092 0.179274) 3524 6850 1
(0.414351 0.292323 0.133566 0.15976) 3508 6817 1
(0.230604 0.300933 0.0827533 0.38571) 3527 6854 2
(0.0419367 0.083414 0.483666 0.390984) 3490 6820 2
(0.323813 0.073421 0.338403 0.264363) 3492 6788 2
(0.562456 0.0112755 0.219399 0.20687) 3450 6742 2
(0.707919 0.0692751 0.146363 0.0764427) 3463 6731 2
(0.1044 0.439888 0.0791148 0.376597) 3455 6713 1
(0.0185873 0.343955 0.144723 0.492735) 4620 96593 1
(4.78398e-05 0.393116 0.105036 0.5018) 4320 96608 1
(0.391664 0.303771 0.0115988 0.292966) 5085 9902 1
(0.670192 0.164688 0.00991972 0.1552) 5026 9787 1
(0.0339998 0.046217 0.433575 0.486208) 5071 9874 2
(0.712294 0.143692 0.0680079 0.0760057) 4966 9665 1
(0.367831 0.31235 0.070102 0.249718) 5010 9752 1
(0.499695 0.250587 0.134007 0.115711) 4680 9104 1
(0.258405 0.367152 0.109365 0.265078) 4865 9462 1
(0.557574 0.184215 0.0286252 0.229587) 4828 9390 2
(0.101337 0.363744 0.0880973 0.446822) 4831 9397 2
(0.0207531 0.409818 0.486907 0.0825215) 4787 9313 2
(0.638601 0.0925913 0.183786 0.0850216) 4744 9265 2
(0.236318 0.334244 0.0356602 0.393779) 4765 9267 2
(0.0492442 0.474744 0.00378068 0.472231) 4792 9321 2
(0.117343 0.443707 0.0566147 0.382335) 4709 9161 1
(0.0495918 0.463523 0.280352 0.206534) 4708 9156 1
(0.311494 0.25771 0.0736571 0.357139) 4669 9080 2
(0.000210287 0.499413 0.13746 0.362917) 4380 96605 2
(0.072809 0.377348 0.0883397 0.461503) 4587 8921 2
(0.00881827 0.491324 0.346403 0.153454) 4522 8832 1
(0.257401 0.332518 0.0405141 0.369567) 4506 8763 2
(0.595138 0.197407 0.138479 0.068976) 4466 8684 1
(0.948673 0.0256478 5.23651e-05 0.0256263) 4423 8600 1
(0.258009 0.059387 0.311909 0.370695) 4468 8689 2
(0.100092 0.450244 0.060397 0.389267) 4402 8560 1
(0.223162 0.390007 0.319579 0.0672517) 4425 8605 1
(0.220312 0.390429 0.271493 0.117766) 4429 8615 1
(0.0923104 0.455903 0.0318605 0.419926) 4404 8566 1
(0.282675 0.355207 0.24464 0.117477) 4383 8561 1
(0.615791 0.193058 0.000106435 0.191045) 4361 8482 1
(0.752829 0.0232021 0.0987263 0.125243) 4432 8618 2
(0.189111 0.0681985 0.406869 0.335821) 4342 8481 2
(0.363001 0.318713 0.274675 0.0436113) 4409 8576 1
(0.316417 0.0400975 0.341636 0.30185) 4362 8484 2
(0.482704 0.257826 0.159132 0.100339) 4220 96613 2
(0.406327 0.288796 0.17689 0.127987) 4349 8456 1
(0.719919 0.0796979 0.0563575 0.144025) 4329 8417 2
(0.354152 0.323694 0.167756 0.154398) 4313 8387 1
(0.286756 0.354652 0.288354 0.0702379) 4263 8327 1
(0.457552 0.271785 0.123693 0.14697) 4296 8354 1
(0.445683 0.206793 0.0609661 0.286558) 4228 8220 2
(0.134213 0.431876 0.403387 0.0305234) 4185 8175 1
(0.177736 0.411609 0.256781 0.153874) 4161 8092 1
(0.247102 0.210098 0.151343 0.391456) 4192 8150 2
(0.224276 0.360353 0.275093 0.140278) 4195 8156 1
(0.330433 0.318419 0.19638 0.154769) 4174 8115 1
(0.413524 0.293729 0.073704 0.219043) 4141 8053 1
(0.185673 0.402885 0.159048 0.252394) 4122 8013 1
(0.582742 0.0965809 0.204327 0.11635) 47605 94617 2
(0.153062 0.127535 0.29608 0.423324) 47644 94608 2
(0.447326 0.276498 0.148377 0.127799) 47640 94602 1
(0.457357 0.271479 0.248488 0.0226758) 47780 94880 1
(0.310133 0.345069 0.122389 0.222409) 47819 94958 1
(0.0263471 0.486595 0.469818 0.01724) 47825 94972 1
(0.853934 0.00357868 0.0726349 0.0698522) 47860 95127 2
(0.146494 0.427077 0.372112 0.0543173) 47912 95144 1
(0.246495 0.253741 0.130426 0.369338) 48047 95413 2
(0.0771015 0.058708 0.456151 0.408039) 47950 95307 2
(0.851682 0.0487585 0.0275036 0.0720559) 47999 95317 2
(0.0982579 0.256168 0.427745 0.217829) 47994 95395 2
(0.154581 0.3446 0.422332 0.0784875) 48089 95500 2
(0.289325 0.355473 0.115884 0.239318) 48135 95590 1
(0.186846 0.0201631 0.406561 0.38643) 48261 95844 2
(0.227381 0.386603 0.339535 0.0464807) 48210 95740 1
(0.472869 0.26412 0.162979 0.100032) 48311 95944 1
(0.0330757 0.0678718 0.478948 0.420104) 48261 95929 2
(0.504467 0.252562 0.107631 0.13534) 48309 95937 1
(0.0519082 0.345134 0.462158 0.140799) 48310 96027 2
(0.126348 0.436924 0.171306 0.265422) 48395 96110 1
(0.413808 0.104294 0.288934 0.192965) 48397 96201 2
(0.457206 0.0480193 0.271365 0.22341) 48482 96286 2
(0.835066 0.080907 0.0633513 0.0206754) 48532 96400 1
(0.352617 0.305039 0.0290468 0.313297) 5409 96382 1
(0.00264242 0.497947 0.460025 0.0393863) 5385 10503 1
(0.619834 0.187671 0.0418236 0.150672) 5369 10470 1
(0.470932 0.220777 0.0296932 0.278598) 5329 10390 2
(0.50907 0.170312 0.261088 0.0595296) 5312 10396 2
(0.0472121 0.317473 0.158686 0.476629) 5289 10311 2
(0.552002 0.22201 0.218034 0.00795392) 5298 10368 1
(0.485535 0.243855 0.161637 0.108974) 5253 10238 1
(0.568408 0.215776 0.023853 0.191962) 5229 10193 1
(0.296488 0.305087 0.279987 0.118438) 5257 10246 1
(0.205548 0.396997 0.173426 0.224029) 5164 10063 1
(0.53889 0.230773 0.213402 0.0169348) 43392 86191 1
(0.526993 0.239742 0.0299225 0.203342) 43432 86271 1
(0.0655251 0.468251 0.0629913 0.403232) 43388 86095 1
(0.325804 0.0691989 0.268176 0.336821) 43429 86178 2
(0.568594 0.112952 0.209629 0.108825) 43466 86339 2
(0.0555378 0.1371 0.335457 0.471906) 43425 86170 2
(0.190766 0.413768 0.38205 0.013416) 43661 86641 1
(0.178982 0.424794 0.119217 0.277006) 43423 86253 1
(0.234663 0.391168 0.354245 0.0199237) 43604 86527 1
(0.273894 0.363559 0.179785 0.182762) 43510 86340 1
(0.0333585 0.292097 0.4822 0.192344) 43646 86614 2
(0.144064 0.0567449 0.374847 0.424344) 43597 86513 2
(0.417759 0.153434 0.290473 0.138334) 43599 86520 2
(0.502366 0.27148 0.222805 0.0033485) 43594 86507 1
(0.214322 0.188945 0.378897 0.217836) 43595 86597 2
(0.192796 0.430644 0.0669477 0.309612) 43595 86597 1
(0.479309 0.268127 0.0144445 0.238119) 43594 86507 2
(0.246626 0.377343 0.195914 0.180118) 43642 86606 1
(0.101675 0.456447 0.0956388 0.346238) 43684 86687 1
(0.866329 0.0682855 0.0169475 0.048438) 43684 86687 1
(0.0615837 0.246217 0.285282 0.406917) 43633 86585 2
(0.154987 0.0140919 0.422294 0.408628) 43685 86777 2
(0.217754 0.0491543 0.342061 0.39103) 43730 86780 2
(0.631784 0.193253 0.0019061 0.173057) 43685 86689 2
(0.539943 0.0935874 0.144306 0.222163) 43682 86683 2
(0.26925 0.00352348 0.361439 0.365788) 43678 86675 2
(0.396399 0.302241 0.0892077 0.212153) 43683 86686 1
(0.397746 0.058468 0.29764 0.246146) 43683 86773 2
(0.608993 0.197509 0.154702 0.0387954) 43775 86957 1
(0.558949 0.220253 0.177916 0.0428828) 43680 86680 1
(0.364333 0.122947 0.313056 0.199664) 43776 86959 2
(0.327307 0.336388 0.0166964 0.319608) 43728 86776 1
(0.644635 0.168067 0.177065 0.0102329) 43727 86776 2
(0.0534954 0.372549 0.4719 0.102055) 43726 86774 2
(0.515644 0.25217 0.100262 0.131924) 43726 86771 1
(0.366134 0.332481 0.201183 0.100202) 43772 86863 1
(0.119507 0.441453 0.242845 0.196194) 43727 86774 1
(0.4742 0.286445 0.0142709 0.225085) 43723 86765 2
(0.848691 0.0723716 0.00798093 0.0709566) 43772 86863 2
(0.190242 0.127635 0.27841 0.403713) 43721 86762 2
(0.404814 0.16833 0.296953 0.129903) 43770 86862 2
(0.445481 0.28199 0.239762 0.0327672) 44051 87421 1
(0.296579 0.414226 0.0553408 0.233854) 43722 86851 1
(0.290395 0.375196 0.301913 0.0324954) 43817 86953 1
(0.475172 0.263159 0.256448 0.0052219) 44000 87407 2
(0.0767563 0.463067 0.062962 0.397215) 43771 86864 1
(0.289339 0.378755 0.0682837 0.263623) 43771 86949 1
(0.218094 0.0406774 0.350608 0.390621) 44049 87418 2
(0.644039 0.187694 0.0400104 0.128256) 43817 87041 1
(0.728861 0.10363 0.133286 0.0342228) 44052 87511 2
(0.0385138 0.238048 0.246637 0.476801) 44093 87505 2
(0.341595 0.314957 0.298759 0.0446892) 43769 86945 2
(0.33248 0.145388 0.189161 0.332971) 43814 86948 2
(0.213389 0.246491 0.381835 0.158285) 43863 87133 2
(0.523476 0.249639 0.0789373 0.147948) 43860 87127 1
(0.034505 0.483982 0.299476 0.182037) 43861 87042 1
(0.554183 0.223294 0.106949 0.115574) 43860 87040 1
(0.17726 0.149245 0.410903 0.262591) 43907 87136 2
(0.115302 0.000411566 0.245249 0.639037) 43852 189818 2
(3.43502e-08 6.13644e-09 0.311347 0.688653) 43896 189862 2
(0.387251 0.267545 0.0650249 0.280178) 43901 87121 2
(0.0305618 0.463314 0.0608913 0.445233) 43902 87123 2
(0.077098 0.296352 0.432783 0.193767) 43857 87121 2
(0.422769 0.290801 0.062092 0.224337) 44042 87403 1
(0.337247 0.0179675 0.330461 0.314325) 43952 87311 2
(0.404321 0.187614 0.125771 0.282293) 43902 87123 2
(0.467987 0.162317 0.265012 0.104684) 43950 87222 2
(0.106163 0.451586 0.391144 0.0511064) 43903 87213 1
(0.649801 0.191547 0.126245 0.0324074) 43897 87201 2
(0.65855 0.171293 0.0475179 0.122639) 43948 87218 1
(0.00281424 0.265055 0.234595 0.497535) 43992 87304 2
(0.720312 0.119486 0.133418 0.0267839) 43994 87395 2
(0.0592657 0.470897 0.135575 0.334263) 43942 87204 1
(0.659255 0.157844 0.0189785 0.163923) 44040 87399 2
(0.448452 0.0355013 0.274183 0.241864) 43994 87395 2
(0.162933 0.419734 0.327081 0.090252) 43992 87304 1
(0.20579 0.324641 0.396258 0.0733114) 43988 87298 2
(0.352928 0.337505 0.0464246 0.263142) 44039 87485 1
(4.54246e-09 1.47401e-09 0.000134991 0.999865) 44028 189994 2
(0.0237673 0.502103 0.294752 0.179378) 43992 87391 1
(0.549778 0.237788 0.124839 0.0875959) 44034 87387 1
(0.220633 0.390298 0.185622 0.203447) 44083 87486 1
(0.630158 0.00606016 0.185184 0.178598) 44080 87482 2
(0.235081 0.647691 0.0555849 0.061643) 44028 87464 1
(0.100435 0.511097 0.026784 0.361684) 44074 87467 2
(0.508565 0.245984 0.242111 0.00334042) 44080 87567 1
(0.149999 0.425393 0.339521 0.0850874) 44078 87478 1
(0.00666226 0.496463 0.477493 0.019381) 44077 87476 1
(0.00267847 0.338254 0.16129 0.497778) 44124 87568 2
(0.251374 0.374766 0.207165 0.166696) 44122 87564 1
(0.68716 0.148077 0.00879697 0.155966) 44170 87660 2
(0.316493 0.337431 0.339704 0.00637134) 44167 87656 2
(0.171657 0.345178 0.0812776 0.401887) 44261 87841 2
(0.669552 0.0624421 0.102874 0.165132) 44166 87652 2
(0.341938 0.217191 0.121967 0.318905) 44215 87749 2
(0.781044 0.112287 0.0511282 0.0555408) 44216 87751 1
(0.373631 0.264777 0.287574 0.0740175) 44165 87737 2
(0.174647 0.445976 0.104677 0.274699) 44165 87737 1
(0.144867 0.0477743 0.427615 0.379744) 44257 87836 2
(0.231938 0.00649821 0.383306 0.378258) 44212 87831 2
(0.543731 0.137325 0.0991158 0.219828) 44257 87833 2
(0.73822 0.128128 0.123069 0.0105825) 44257 87921 2
(0.168481 0.147525 0.276099 0.407895) 44302 87923 2
(0.131453 0.488538 0.00421058 0.375798) 44252 87911 1
(0.301395 0.538203 0.0793945 0.0810075) 44248 87904 1
(0.552849 0.0610369 0.162421 0.223693) 44301 87922 2
(0.624731 0.187812 0.057109 0.130348) 44302 87924 1
(0.324214 0.342149 0.11007 0.223567) 44393 88105 1
(0.0426483 0.153358 0.47838 0.325614) 44345 88012 2
(1.60381e-09 1.73905e-09 0.978303 0.0216972) 44292 190258 2
(0.479772 0.273488 0.169048 0.0776922) 44344 88007 1
(0.100081 0.450924 0.382727 0.0662677) 44346 88012 1
(0.0308406 0.48517 0.120877 0.363112) 44345 88010 1
(0.351026 0.334752 0.184513 0.129708) 44344 88095 1
(0.222656 0.407096 0.165583 0.204665) 44343 88093 1
(0.053892 0.482982 0.0869828 0.376143) 44385 88089 1
(0.952834 0.0236769 0.0159696 0.00751926) 44532 88471 1
(0.47041 0.285914 0.235984 0.00769154) 44387 88093 1
(0.638108 0.108895 0.168692 0.0843048) 44384 88175 2
(0.171555 0.12957 0.285007 0.413868) 44435 88190 2
(0.312146 0.219601 0.125116 0.343138) 44430 88180 2
(0.919457 0.0401146 0.0173666 0.0230618) 44432 88184 1
(0.329346 0.0840986 0.330276 0.25628) 44434 88275 2
(0.450611 0.289883 0.0398219 0.219684) 44433 88273 1
(0.10271 0.45314 0.359418 0.0847321) 44435 88277 1
(0.00850391 0.504983 0.301732 0.184782) 44435 88277 1
(0.0809133 0.415368 0.412974 0.0907448) 44428 88263 2
(0.526994 0.236762 0.0147859 0.221459) 44620 88559 1
(0.162724 0.118928 0.418254 0.300094) 44470 88262 2
(0.221561 0.117734 0.384615 0.27609) 44480 88367 2
(0.143904 0.200954 0.227605 0.427537) 44571 88462 2
(0.513311 0.0453665 0.199786 0.241536) 44568 88455 2
(0.482178 0.0922631 0.258624 0.166935) 44517 88356 2
(0.700749 0.122927 0.149583 0.0267406) 44517 88356 2
(0.0382829 0.481016 0.310291 0.17041) 44705 88732 1
(0.340111 0.330825 0.279832 0.0492316) 44565 88450 1
(0.37096 0.187032 0.130591 0.311416) 44752 88823 2
(0.0820904 0.00511598 0.454855 0.457938) 44560 88439 2
(0.496001 0.27105 0.0263297 0.206619) 44563 88533 1
(0.204604 0.409188 0.29444 0.0917678) 44701 88721 1
(0.125245 0.0871875 0.350287 0.437281) 44608 88536 2
(0.138004 0.437922 0.0306736 0.3934) 44753 88913 1
(0.310957 0.345016 0.134333 0.209695) 44608 88538 1
(0.0383416 0.185303 0.480417 0.295939) 44607 88536 2
(0.303602 0.303578 0.0613905 0.33143) 44698 88715 2
(0.359151 0.324032 0.163288 0.153529) 44793 88905 1
(0.00756385 0.468722 0.0290326 0.494682) 44605 88530 2
(0.732346 0.133866 0.132232 0.00155555) 44607 88536 1
(0.500863 0.17355 0.250932 0.0746551) 44646 88614 2
(0.207324 0.152337 0.396168 0.244171) 44884 89090 2
(3.82884e-06 0.890758 0.109238 1.0877e-07) 44688 142094 1
(0.781241 0.110221 0.100832 0.00770663) 44695 88797 2
(0.159324 0.421235 0.3245 0.0949405) 44695 88710 1
(0.814658 0.0522928 0.0404862 0.0925634) 44739 88798 2
(0.71876 0.142159 0.0716428 0.0674382) 44934 89275 1
(0.256583 0.266805 0.105849 0.370764) 44786 88892 2
(0.41455 0.293861 0.288278 0.00331121) 44738 88796 1
(0.35722 0.326882 0.0726164 0.243281) 44784 88887 1
(0.272164 0.364107 0.342743 0.0209853) 44975 89272 1
(5.32634e-09 0.714203 0.285797 5.17173e-09) 44776 142182 1
(0.904515 0.0447557 0.0436487 0.00708056) 44782 88971 2
(0.0130755 0.507933 0.297361 0.18163) 44784 88975 1
(0.196954 0.101979 0.396068 0.305) 44830 89067 2
(0.27642 0.375697 0.215223 0.13266) 44782 88971 1
(0.539829 0.23057 0.18713 0.0424714) 44827 88974 1
(0.329864 0.102905 0.328534 0.238697) 44873 89153 2
(0.174637 0.0919932 0.320867 0.412503) 44919 89158 2
(0.205294 0.39768 0.167936 0.22909) 44872 89064 1
(0.318123 0.0079194 0.333162 0.340796) 44964 89248 2
(0.167133 0.402893 0.401195 0.0287789) 44965 89337 2
(0.0572756 0.473475 0.374719 0.09453) 45062 89531 1
(0.0342492 0.311495 0.48176 0.172496) 44870 89062 2
(0.533293 0.232522 0.0040815 0.230104) 44912 89143 1
(0.72124 0.054377 0.0850037 0.139379) 44917 89154 2
(0.0296638 0.53639 0.421563 0.0123831) 44913 89145 1
(0.172247 0.366931 0.0948138 0.366008) 44911 89141 2
(0.253165 0.0510043 0.373339 0.322492) 44961 89244 2
(0.0896641 0.473504 0.136646 0.300185) 44962 89331 1
(0.000474353 0.0105352 0.48852 0.50047) 45144 89608 2
(0.631548 0.194284 0.0876368 0.0865312) 45002 89323 1
(0.298387 0.3507 0.181662 0.169251) 45051 89422 1
(0.542228 0.229156 0.0513679 0.177248) 45005 89330 1
(0.461293 0.269748 0.124725 0.144233) 45003 89326 1
(0.0182631 0.08556 0.484912 0.411265) 45004 89415 2
(0.495543 0.26349 0.13753 0.103437) 45048 89415 1
(0.208632 0.403992 0.28271 0.104666) 45231 89781 1
(0.0345834 0.385891 0.439629 0.139897) 45044 89495 2
(0.0264997 0.179666 0.308674 0.48516) 45093 89506 2
(0.042396 0.478827 0.125971 0.352807) 45095 89510 1
(0.541339 0.233041 0.0316745 0.193945) 45134 89587 1
(0.373306 0.141329 0.312927 0.172438) 45132 89586 2
(0.763658 0.127183 0.098742 0.0104171) 45135 89589 1
(0.0530622 0.458049 0.472463 0.0164259) 45182 89686 2
(0.0793582 0.46104 0.227139 0.232463) 45134 89588 1
(0.062025 0.289232 0.197886 0.450858) 45181 89681 2
(0.286546 0.103648 0.351829 0.257978) 45183 89773 2
(0.230711 0.097894 0.332858 0.338537) 45172 89664 1
(0.115617 0.0492872 0.441967 0.39313) 45225 89772 2
(0.429519 0.285946 0.247089 0.0374456) 45179 89678 1
(0.515933 0.0600426 0.23676 0.187264) 45178 89763 2
(0.935765 0.0320401 0.0179895 0.0142055) 45272 89866 1
(0.909517 0.0468334 0.0182392 0.0254108) 45226 89859 1
(0.652596 0.0403903 0.137271 0.169743) 45221 89761 2
(0.524205 0.0728566 0.237753 0.165186) 45223 89768 2
(0.148837 0.226999 0.396135 0.228029) 45219 89845 2
(0.565625 0.217655 0.0689872 0.147733) 45372 90064 1
(0.174674 0.412957 0.124733 0.287636) 45270 89860 1
(0.0549829 0.473256 0.395739 0.0760219) 45315 89950 1
(0.0375694 0.495698 0.103508 0.363224) 45361 90129 1
(0.0798763 0.468202 0.166899 0.285023) 45360 90039 1
(0.829432 0.0848484 0.0833891 0.00233016) 45267 89856 1
(0.111287 0.444772 0.183642 0.260299) 45361 90042 1
(0.22249 0.389035 0.217974 0.170501) 45314 89950 1
(0.154745 0.423425 0.375845 0.0459859) 45312 89944 1
(0.697403 0.0231066 0.149344 0.130146) 45310 90027 2
(0.481743 0.256919 0.236693 0.0246456) 45310 90027 2
(0.175814 0.412531 0.232607 0.179048) 45359 90040 1
(0.391801 0.306766 0.0376481 0.263784) 45355 90029 1
(0.518936 0.0208323 0.238487 0.221745) 45353 90113 2
(0.251208 0.374842 0.221186 0.152764) 45402 90126 1
(0.342177 0.277874 0.328614 0.0513348) 45401 90124 2
(0.945066 0.0287148 0.0117811 0.0144384) 45398 90115 1
(0.275854 0.0214999 0.360193 0.342454) 45398 90203 2
(0.0975293 0.452061 0.402796 0.0476129) 45448 90216 1
(0.0504582 0.49452 0.268701 0.18632) 45398 90203 1
(0.0374565 0.456025 0.480378 0.0261411) 45446 90214 2
(0.035955 0.484804 0.019368 0.459873) 45440 90199 1
(0.103322 0.182776 0.447868 0.266034) 45537 90396 2
(0.181871 0.409677 0.324987 0.0834644) 45490 90300 1
(0.404689 0.0223617 0.294767 0.278183) 45483 90373 2
(0.0184233 0.269087 0.469719 0.242771) 45487 90381 2
(0.434204 0.293529 0.0719072 0.20036) 45535 90477 1
(0.227086 0.38885 0.0402722 0.343792) 45578 90475 1
(0.327717 0.0832671 0.329787 0.259229) 45575 90557 2
(0.09979 0.450512 0.225413 0.224286) 45624 90570 1
(0.715556 0.132595 0.14207 0.00977981) 45624 90570 2
(0.0913915 0.45447 0.0419862 0.412152) 45625 90570 1
(0.214171 0.0178568 0.393117 0.374856) 45667 90656 2
(0.283107 0.058197 0.302947 0.355749) 45667 90653 2
(0.028217 0.274585 0.226645 0.470553) 45666 90651 2
(0.25415 0.384831 0.097182 0.263837) 45661 90641 1
(0.798249 0.0946255 0.00977273 0.0973525) 45713 90745 2
(0.178445 0.410983 0.0821156 0.328457) 45666 90652 1
(0.197837 0.0748279 0.400866 0.326469) 45707 90736 2
(0.229722 0.385747 0.145263 0.239268) 45709 90740 1
(0.472016 0.242471 0.0367902 0.248723) 45753 90825 2
(0.118649 0.441172 0.242385 0.197794) 45755 90832 1
(0.00799526 0.495865 0.0760078 0.420132) 45801 90922 1
(0.200352 0.282247 0.118049 0.399353) 45797 90914 2
(0.130302 0.421749 0.014104 0.433844) 45795 90910 2
(0.179102 0.2862 0.394385 0.140313) 45798 91003 2
(0.0978809 0.213008 0.238551 0.45056) 45835 90990 2
(0.648159 0.153015 0.163826 0.0350006) 45839 91085 2
(0.164962 0.417755 0.322267 0.0950168) 45836 90994 1
(0.102142 0.125278 0.333554 0.439026) 45883 91085 2
(0.00916661 0.127406 0.495222 0.368205) 45885 91092 2
(0.784818 0.0458004 0.105887 0.0634945) 45888 91183 2
(0.0964826 0.452703 0.405351 0.0454629) 45883 91086 1
(0.626555 0.0513014 0.137797 0.184346) 45932 91183 2
(0.709402 0.141981 0.139865 0.00875226) 45933 91273 2
(0.142883 0.429274 0.258115 0.169728) 45934 91188 1
(0.185784 0.407877 0.0718074 0.334532) 45926 91174 1
(0.120537 0.00697521 0.439326 0.433162) 45933 91273 2
(0.0815046 0.43177 0.0549219 0.431803) 45973 91265 2
(0.221213 0.293801 0.0960995 0.388886) 45976 91272 2
(0.934015 0.0165375 0.0180863 0.0313609) 45969 91257 2
(0.511742 0.247475 0.159557 0.0812261) 45977 91361 1
(0.586745 0.0954516 0.195988 0.121816) 45968 91343 2
(0.0280617 0.486044 0.478551 0.00734365) 45975 91272 1
(0.507856 0.250988 0.0995366 0.14162) 46023 91453 1
(0.754294 0.0209382 0.121484 0.103283) 46061 91529 2
(0.389011 0.0936689 0.212581 0.304739) 38331 75980 2
(0.273723 0.215766 0.147985 0.362527) 42477 84274 2
(0.501725 0.25459 0.22709 0.0165951) 42958 85235 1
(0.139504 0.439476 0.0434867 0.377533) 41857 83121 1
(0.0442615 0.425745 0.468336 0.0616577) 43354 86115 2
(0.0503564 0.475069 0.070926 0.403649) 41769 82858 1
(0.290465 0.354877 0.0348905 0.319768) 41896 83112 1
(0.128512 0.259767 0.176757 0.434964) 41880 83080 2
(0.954669 0.0155612 0.00638952 0.02338) 41789 82898 2
(0.319956 0.339939 0.303713 0.0363914) 41852 83026 1
(0.0266874 0.50801 0.39379 0.0715118) 41794 82907 1
(0.251571 0.402939 0.0542636 0.291226) 41790 82987 1
(0.5255 0.0218695 0.233629 0.219002) 41876 83159 2