/*--------------------------------*- C++ -*----------------------------------*\
  =========                 |
  \\      /  F ield         | OpenFOAM: The Open Source CFD Toolbox
   \\    /   O peration     | Website:  https://openfoam.org
    \\  /    A nd           | Version:  7
     \\/     M anipulation  |
\*---------------------------------------------------------------------------*/
FoamFile
{
    version     2.0;
    format      ascii;
    class       scalarField;
    location    "0.1425/lagrangian/reactingCloud1";
    object      tTurb;
}
// * * * * * * * * * * * * * * * * * * * * * * * * * * * * * * * * * * * * * //


1207
(
0.001254
0.006285
0.006237
0.0025012
0.00046235
0.000821746
0.00245164
0.006141
0.001093
0.001069
0.00068235
0.00095505
0.006069
0.000536206
0.005997
0.00095105
0.005949
0.0011182
9.605e-05
0.00170755
0.0024265
0.00216105
0.005829
0.00087785
0.0003062
0.00163304
0.005805
0.00193313
0.00066055
0.00183876
0.00182028
0.002255
0.00171469
0.0004067
0.005445
0.00175305
0.00172905
0.005397
0.000373
0.0017105
0.0016665
0.005349
0.00137276
0.005277
0.0048622
0.000205
0.0007232
0.005205
0.005181
0.0014497
0.005133
0.0013185
0.00056205
0.005037
0.00126328
6.0057e-05
0.00110834
0.0014602
0.0001852
0.00119332
0.004989
0.00108021
0.00185902
0.004869
0.004845
0.00110825
0.00054055
0.001557
0.001533
0.001509
0.001485
0.001461
0.001437
0.001413
0.00141263
0.001389
0.001365
0.001341
0.001317
0.001293
0.001269
0.001245
0.001221
0.001197
0.001173
0.001149
0.001125
0.001101
0.001077
0.001053
0.001029
0.001005
0.000981
0.000957
0.000933
0.000909
0.000885
0.00028505
0.000837
0.00022855
0.000789
0.000765
0.000741
0.000717
0.00011705
0.000669
0.000645
0.000621
0.000597
0.000573
0.000549
0.000525
0.000501
0.000477
0.000453
0.000429
0.000405
0.000381
0.000357
0.000333
0.000309
0.000285
0.000261
0.000237
0.000213
0.000189
0.000165
0.000141
0.000117
9.3e-05
6.9e-05
4.5e-05
2.1e-05
0.00031
0.000261848
0.00066035
0.00099855
0.002925
0.00151909
0.002901
0.002853
3.61975e-05
0.002781
0.002757
0.002733
0.00212105
0.002709
0.000516
0.002685
0.002661
0.0006372
0.00057585
0.002613
0.002565
0.002517
0.002541
0.00017885
0.002493
0.002469
0.002445
0.002397
0.002349
0.002373
0.002325
0.0013025
0.002301
0.002277
0.002205
0.002229
0.002181
0.002157
0.002061
0.000677722
0.0006715
0.002013
0.002037
0.001989
0.001941
0.000492
0.001917
0.001869
0.001893
0.001845
0.001821
0.0008447
0.001773
0.001797
0.001749
0.001701
0.001725
0.001677
0.001653
0.001605
0.001629
0.001581
0.00053385
0.000284346
0.000415295
0.000101331
0.003909
5e-05
0.003885
0.0001525
0.003861
0.003741
0.003693
0.003717
0.003789
0.003765
0.003645
0.003597
0.003621
0.003549
4.50394e-05
0.003525
0.0016692
0.003453
0.00283508
0.00326105
0.003333
0.0015732
0.003381
0.003261
0.003357
0.003429
0.00138105
0.003213
0.00284505
0.003237
0.000209589
0.0004215
0.003141
0.003117
0.003045
0.0013092
0.002997
0.002973
0.003021
0.0011652
0.00285263
0.002829
0.002805
0.0011892
0.0010692
0.00108105
0.004773
0.004725
0.000892
0.004629
0.000921122
0.004581
0.000750086
0.0009327
0.004533
0.000699795
0.004509
0.0009902
0.000812549
0.004437
0.004365
0.000777
0.004413
0.00167585
0.000240339
0.00012355
0.0005855
0.004341
0.0006295
0.004293
0.000481776
0.004245
0.004197
0.004125
0.004173
0.004077
0.004053
0.004101
0.004029
0.000418606
0.00325835
0.00203435
0.00087155
0.00161035
0.000388
0.00255755
0.00466385
0.0025482
0.0015855
0.00269485
0.00202235
0.00098235
0.00269355
0.00051985
0.0001727
0.00361105
0.0003652
0.00240885
0.00113235
0.00356155
0.006829
0.0014562
0.0036242
0.00207235
0.0006747
0.0039875
0.00176655
0.00278605
0.003661
0.00263159
0.0019517
0.00297805
0.0040117
0.00268509
0.00318771
0.0003512
0.00261921
0.00538135
0.003246
0.00134605
0.004421
0.00215705
0.00242085
0.00372605
0.003692
0.0008762
0.00359855
0.00022385
5.205e-05
0.00459528
0.00062135
0.004253
0.00357535
0.00377255
0.00331685
0.00297852
0.00241705
0.00028805
0.00041465
2.15181e-05
0.00274235
0.0005187
0.0032925
0.0009012
0.00118305
0.00450135
1.75e-05
0.00097635
0.00029705
0.0020962
0.0023597
0.003042
0.00062605
0.0026202
0.0015047
0.0012902
0.002956
0.0033687
0.0015502
0.00064355
0.003533
0.0029282
8.05e-06
0.00021571
0.00033805
0.00216635
0.00397935
0.00400335
0.00023305
0.003197
0.0018952
0.00377705
0.00319155
0.0043727
0.00311285
0.00144585
0.00177353
0.00240629
0.00105455
0.00288605
0.00028505
0.000464
0.0003897
0.0009275
0.000920704
0.00161435
0.00045905
0.00339455
0.00254255
0.000730703
0.00342735
0.000139187
0.0025505
0.00333235
0.00202605
0.006013
0.00485918
0.00185181
0.005475
0.0024047
0.00379835
0.00311535
0.00082835
0.00311454
0.00231765
2.505e-05
0.001076
0.0011967
0.009453
0.00171005
0.00072985
0.00062185
0.00154731
0.00287535
0.0027945
0.00013185
0.0023262
0.000210275
0.0008347
0.002111
0.00208085
0.0009635
0.00128935
0.002021
0.00167105
0.0033685
0.000668004
0.00331835
0.00222705
0.00474455
0.001138
0.00475555
2.485e-05
0.000549571
0.00185285
0.00171263
0.00523334
0.0003805
0.00462385
0.00049871
0.0044985
0.00159953
0.00179435
0.0015207
0.001445
0.0019737
0.00055735
0.0038632
0.0023847
0.00022955
0.0039767
0.00203535
0.00309955
0.00133235
0.008445
0.008421
0.00121906
0.00079355
0.00168085
0.001085
0.00068205
0.003157
0.001061
0.00052085
0.00167535
0.00108558
0.008061
0.00331305
0.00021305
0.000154039
0.007941
0.00148335
0.00193255
0.000111581
2.55e-06
0.0013972
0.00736517
0.000812214
0.000701
2.705e-05
0.0020575
0.00147118
0.007773
0.00129135
0.007701
0.00415205
0.00061705
0.00032185
0.0021195
0.00206005
0.00341155
0.00186955
0.0016252
0.00178235
0.00370705
0.007581
0.00208035
0.000389
0.007485
0.002084
0.002421
0.007437
0.007413
0.0013887
0.007389
0.0014225
0.007365
0.0007102
0.00144605
0.007221
0.00076335
0.0013455
0.00297955
0.00061935
0.0003385
0.00116678
2.055e-05
0.00141485
0.0009862
0.0031735
0.006981
0.0016255
0.00278304
0.00324303
0.001837
0.0029675
0.00083205
0.0011347
0.001717
0.006765
0.00305863
0.006669
0.006693
0.006645
0.00666863
0.001597
0.0015485
0.006621
0.00112555
0.00156935
0.00061305
0.006549
0.0002277
0.001453
0.00086105
0.006477
0.00112755
0.006453
0.00060378
0.00038655
0.001309
0.0122682
0.0097952
0.0074295
0.0100232
0.0030215
0.00932735
0.00845255
0.00117955
0.00251105
0.00151205
0.006173
0.00023055
0.00349555
0.00388785
0.0035815
0.0039862
0.00136635
0.00414085
0.00493805
0.00612035
0.00186159
0.0060242
0.00287085
0.0063567
0.00664235
0.00186805
0.00412855
0.00393948
0.00207655
0.00595135
0.00111382
0.004941
0.00240505
0.00322035
2.4346e-05
0.00186442
0.00275085
0.000919
0.0002915
0.0049292
0.00288435
0.00584705
0.000658385
0.00529835
0.00022835
0.00306205
0.00513235
0.00105035
0.0037305
0.0034715
0.00197639
0.00515635
0.0055227
0.00666035
0.00589328
0.0019005
0.00352505
0.00116535
0.000378309
0.0009992
0.0054502
0.00295755
0.00459405
0.00021355
0.0034972
0.00148417
0.0038075
0.00410285
0.00205335
0.00472455
0.0026207
0.00273135
0.0034192
0.0036577
0.00452935
0.0046415
0.0043447
0.0033532
0.00155605
0.00579085
0.00265135
0.00426105
0.00257355
0.00118002
0.00196035
0.00476672
0.00262205
0.00444905
0.00183855
0.0044157
0.005082
0.0029347
0.003523
0.00100635
0.00291755
0.004871
0.005637
0.00573585
0.00319905
0.00394764
0.0051917
0.0043952
0.0007232
0.00288658
0.00523005
0.003293
0.0023212
0.000655369
0.0024447
0.00154785
1.855e-05
0.0012382
0.00176635
0.00417085
0.000279788
0.0044492
0.00173685
0.000209
0.00493901
0.00191935
0.00210935
0.00329299
0.00200555
0.00137699
0.00222335
0.00274255
0.00014855
0.00284305
0.0016237
0.00275485
0.00342635
0.00082305
0.0041989
0.0050427
0.00490536
0.0045245
0.00526509
0.00434005
0.0042002
0.0014727
0.00297305
0.00161055
0.0051962
0.0040557
0.00495805
0.00591003
0.00374535
0.00284209
0.0014402
0.0012885
0.0010382
0.0028312
0.000423203
0.00270955
0.00121564
0.00547864
0.00097005
0.00204071
0.00040055
0.004772
0.00186885
0.00214585
0.00127685
0.00347535
0.003918
0.00334805
0.005674
0.0031237
0.00353085
0.00113905
0.00428635
0.0038857
0.0007497
0.0009982
0.00242606
0.0029205
0.00475405
4.705e-05
0.0023195
0.00121385
0.006509
0.00453435
0.00035705
0.0037467
0.0026995
0.0012962
0.00563318
0.0060227
0.00059935
0.00098035
0.00394366
0.00103035
0.00192585
0.00536501
0.004082
0.00291605
8.62598e-05
0.00347855
0.001877
0.00275335
0.0011617
0.0018962
0.0040012
0.0052942
0.00351916
0.0007645
0.00028785
0.00332818
0.0043887
0.0045515
0.00586685
0.00351505
0.001636
0.00125284
0.00561907
0.00366021
0.00137961
0.003641
0.00343405
0.00127985
0.0010037
0.0046853
0.00592405
0.00040755
0.0040285
0.0041677
0.0012975
0.00359155
0.00200835
0.0038797
0.00314605
0.00207005
0.00192555
0.00445635
0.00465018
0.00329435
0.000822718
0.00287835
0.00469755
0.00612805
0.0058057
0.0032182
0.0027027
0.00271855
0.00424672
0.0023472
0.0003912
0.00531229
8.485e-05
0.000885081
9.05e-06
0.0034287
0.00471919
5.32e-05
0.0033807
0.0039292
0.00271705
0.003808
0.00010235
0.0012982
0.0009372
0.00300135
0.00412635
0.0046875
0.00262735
0.0019002
0.00282055
0.00333105
3.67e-05
0.0047805
0.00626111
0.00105121
0.00383804
0.0019382
0.00151468
0.0029727
0.00168334
0.0027132
0.0009852
0.0015842
0.0056387
0.004805
0.0028047
0.000320193
0.00504135
0.00037355
0.00227128
0.00320885
0.00354555
0.00149655
0.00376535
0.00401435
0.0044013
0.0031605
0.00346905
0.0027477
0.00274564
0.00049285
0.00176535
0.00327105
0.00334455
0.0011307
0.00358935
0.00289155
0.00782755
0.00085755
0.0128811
0.00987485
0.0028732
0.0100896
0.00416985
0.00297185
0.0091015
0.00274035
0.0006817
0.00958635
0.0096547
0.0119541
0.00780291
0.0069267
0.004985
0.00480505
0.006073
0.00410935
0.0056092
0.00802607
0.0058743
0.00124667
0.00773785
0.0042937
0.00355205
0.0022845
0.0063678
0.00920235
0.0074155
0.0094062
0.00858055
0.0106825
0.00450135
0.00419535
0.000557529
0.00312965
0.00299135
0.000320985
0.0034742
0.00277541
0.00459171
0.00548959
0.00444902
0.00296035
0.00939805
0.00504005
0.00680871
0.0043385
0.00473993
0.00451255
0.0057755
0.006371
0.0100727
0.00697735
0.0097392
0.0109901
0.0049187
0.00154873
0.0104301
0.00880835
0.00455055
0.000813492
0.00849712
0.000607589
0.00483059
0.00157972
0.00579335
0.00035985
0.00677335
0.0082762
0.006421
0.00062755
0.00323955
0.00875505
0.0044707
0.00966055
0.00194576
0.00570505
0.0041205
0.0012182
0.000910085
0.00558402
0.00510955
0.0078625
0.000771226
0.00939835
0.0040382
0.00019855
0.00976455
0.0057712
0.00766785
0.0070295
0.0079007
0.00378305
0.00537355
0.00280705
0.0071075
0.0081252
0.0038805
0.00556858
0.000590115
0.00127
0.00237949
0.0092757
0.00907455
0.0002362
0.0016765
0.00811721
0.00233235
0.00237901
0.0027757
0.0100269
0.00187305
0.00294935
0.00309581
0.00297235
0.00327555
0.0019227
0.00244036
0.00388235
0.00840879
0.0035242
0.00616505
0.00559135
0.000503709
0.00074335
0.0096037
0.00781805
0.00102071
0.00278455
0.00754705
0.00508605
0.0095697
0.0067777
0.00288055
0.0038082
0.0004137
0.000825009
0.00740755
0.00829631
0.00399755
0.00524616
0.002501
0.0021982
0.00777085
0.000802997
0.0070812
0.0058997
0.00829785
0.0089862
0.0012617
0.00701005
0.0057162
0.00249705
0.0091877
0.00190414
0.00851505
0.00090685
0.00882355
0.00844555
0.0036837
0.00348735
0.00597135
0.00192305
0.0039037
0.00659235
0.0089897
0.00866921
0.0029282
0.00092555
0.00370485
0.0053957
0.000555989
0.0021472
0.00818535
0.00835035
0.00680073
0.00386305
0.00133384
0.00386785
0.00329799
0.008276
0.0001047
0.00843105
0.00807285
0.0049987
0.00682285
0.00017635
0.00657849
0.0055695
0.0029242
0.00578649
0.00157405
0.0051257
0.000580101
0.00379055
0.00256305
0.0045095
0.00199205
0.0047107
0.00391406
4.83255e-05
0.00773524
0.007726
0.00712005
0.00630285
0.00022835
0.00220105
0.00124885
0.00012155
0.0007957
0.0076702
0.00306655
0.00248481
7.52e-05
0.00589825
0.00638768
0.0047731
0.00606405
0.0055637
0.00581955
0.00287447
0.00283235
0.0046335
0.00342255
0.00554085
0.00154247
0.00607485
0.00754485
0.00544985
0.00137255
0.00741255
0.00503755
0.0062397
0.00580857
0.00614567
0.00191236
0.00639105
0.00381116
0.0005505
0.00647405
0.0058125
0.0027705
0.0073172
0.00392521
0.0070027
0.00248905
0.00753955
0.0021367
0.0046582
0.0031982
0.00572636
0.00773434
0.0039985
0.00417485
0.00462035
0.0074317
0.0033562
0.00729003
0.0054452
0.0019835
0.0040972
0.00303033
0.00412405
0.00284555
0.00623535
0.00301785
0.00684905
0.0070297
0.0044657
0.00649505
0.00724721
0.00680305
0.00389905
0.00682905
0.000812972
0.0074362
0.0069775
0.00602221
0.00583635
0.00080385
0.000687131
0.00656
0.00510235
0.00500485
0.00469805
0.00561016
0.000713466
0.00380605
0.00251
0.00681701
0.0060992
0.0019762
0.00113485
6.035e-05
0.00385271
0.00150659
0.00545905
0.0034412
0.00714955
0.0015145
0.00112249
0.0038702
0.00412935
0.00704055
0.0015775
0.0070257
3e-05
0.005978
0.00291405
0.0010562
0.00191705
0.0019375
0.0026292
0.0041497
0.00676235
0.0192327
0.0211284
0.0181612
0.0117292
0.0069435
0.0108682
0.0148605
0.0126816
0.0130295
0.00997655
0.0131426
0.0120929
0.0115131
0.0138471
0.0015965
0.00919305
0.0099675
0.0123747
0.0102079
0.0101892
0.0121609
0.00981785
0.0116751
0.0119009
0.0099312
0.00858155
0.00847155
0.00764485
0.0064897
0.00720299
0.0050017
0.0101547
0.00327605
0.0048737
0.00239685
)


// ************************************************************************* //
