/*--------------------------------*- C++ -*----------------------------------*\
  =========                 |
  \\      /  F ield         | OpenFOAM: The Open Source CFD Toolbox
   \\    /   O peration     | Website:  https://openfoam.org
    \\  /    A nd           | Version:  7
     \\/     M anipulation  |
\*---------------------------------------------------------------------------*/
FoamFile
{
    version     2.0;
    format      ascii;
    class       vectorField;
    location    "0.1425/lagrangian/reactingCloud1";
    object      U;
}
// * * * * * * * * * * * * * * * * * * * * * * * * * * * * * * * * * * * * * //


1207
(
(417.756 -5.54681 2.83739)
(440.811 -0.0363843 -1.78675e-05)
(441.122 -0.01044 2.02017e-07)
(436.548 -4.27313 -13.5141)
(439.247 0.819831 1.49984)
(422.275 -2.12847 3.23001)
(440.978 -1.76537 5.86504)
(440.91 -0.020963 8.45932e-07)
(432.051 -0.972935 -1.55316)
(444.581 4.41302 4.95432)
(435.4 -4.56909 -2.41639)
(431.963 -3.0065 2.04454)
(440.674 -0.0323141 -1.02945e-06)
(441.516 0.745467 0.474797)
(440.153 -0.0571299 -2.63496e-05)
(413.843 0.146518 5.64175)
(440.281 -0.0415648 -4.16917e-06)
(381.717 9.54066 8.02093)
(371.049 -6.43928 -30.7841)
(437.664 -6.50857 -0.743674)
(425.152 -3.88675 -1.9695)
(432.448 -0.324494 0.0202199)
(440.444 -0.0152778 -7.26583e-06)
(423.664 -1.53559 -0.375571)
(419.957 0.667914 4.8446)
(433.976 3.8397 2.56742)
(439.46 -0.0350142 -1.03012e-05)
(445.015 1.0461 8.91668)
(439.485 3.17527 0.257218)
(437.917 0.78505 -0.433125)
(435.331 -1.7594 -0.0173053)
(430.084 -4.10946 -0.871518)
(425.611 6.92072 0.0587658)
(414.479 0.632324 -0.962241)
(439.703 0.0448232 -1.12992e-05)
(423.41 3.66286 -4.27344)
(437.758 -7.318 -1.74805)
(439.644 0.0369702 -3.34043e-06)
(443.123 -2.92423 -2.94958)
(432.091 -10.1125 1.49149)
(435.03 0.180974 -0.00493886)
(438.913 0.282454 -2.74254e-06)
(432.075 3.87829 -2.74282)
(439.194 0.146678 2.34618e-07)
(433.035 -16.1634 5.51265)
(431.669 2.82943 -1.01168)
(390.041 4.59805 -13.0474)
(438.865 0.242728 1.87434e-06)
(438.687 0.311222 -4.71563e-05)
(424.93 -4.08031 2.35075)
(438.476 0.346192 -7.51637e-08)
(426.146 -0.549636 -4.27452)
(376.563 0.261144 -0.218024)
(437.04 0.922736 -0.000109588)
(423.886 3.9082 3.00619)
(409.144 -2.33194 -3.60706)
(422.322 15.5022 1.9679)
(422.231 2.70662 0.70934)
(402.694 5.8291 -4.78519)
(422.309 -2.49458 -2.56363)
(435.408 1.39617 -6.36542e-05)
(431.107 1.01689 -0.648559)
(414.574 -4.91145 1.17464)
(436.043 0.594719 -6.7186e-07)
(435.554 0.654458 -1.26199e-06)
(421.633 10.1796 -6.81672)
(117.901 20.5498 -6.81781)
(129.138 10.606 -0.00023734)
(115.825 24.7892 0.00179469)
(125.55 19.0662 -0.00103071)
(132.756 11.0997 -0.000912315)
(133.52 12.234 -0.000153808)
(129.909 21.5235 0.000245967)
(121.892 31.8011 0.000327145)
(133.041 20.0812 -0.00215953)
(137.015 14.3704 -0.00202641)
(130.401 29.22 0.000546657)
(135.705 26.6509 1.05584e-05)
(141.481 14.3665 -0.00073258)
(143.648 5.36185 -6.08482e-05)
(144.992 12.4372 -0.000697287)
(145.031 25.6536 -0.000955397)
(148.036 20.9258 -0.00244099)
(147.657 2.8474 -0.000222073)
(148.945 4.68786 -0.000310425)
(152.017 12.1858 -0.00162023)
(156.166 28.4764 -1.30778e-05)
(158.522 20.0643 -0.00212728)
(156.104 11.3247 -0.00240044)
(161.957 23.3775 -0.00131088)
(155.391 5.39353 -0.000520882)
(166.394 20.019 -0.000695189)
(165.628 14.2093 -0.000273436)
(159.621 7.16032 -3.36357e-05)
(169.12 13.2781 -0.00480502)
(162.268 7.16424 -0.00138307)
(169.598 11.6914 -1.65933e-05)
(175.833 9.96163 0.539844)
(163.759 5.51737 0.000175529)
(162.461 -0.204857 2.84182)
(166.815 5.3269 -0.00097668)
(162.203 2.70767 -0.000303132)
(165.428 3.97208 4.28488e-05)
(162.11 1.36723 1.22041e-05)
(165.169 1.4551 -0.071305)
(164 2.40522 7.31978e-05)
(167.728 1.73773 -0.000200111)
(167.428 1.17178 -0.000756115)
(164.243 1.69206 5.2262e-05)
(164.96 0.329327 -0.000217671)
(165.649 1.73252 -0.000203032)
(166.635 0.459544 -7.84258e-05)
(141.618 -0.156134 2.48993e-05)
(165.451 1.31206 4.06721e-05)
(166.345 0.567152 0.000228922)
(165.089 1.00142 -0.000237796)
(165.24 0.979689 -0.000141824)
(164.988 0.702872 5.4475e-05)
(165.512 0.863319 0.000219171)
(165.909 0.436011 7.16704e-05)
(165.923 0.149403 -5.60433e-05)
(165.407 0.69708 8.53496e-05)
(165.664 0.578599 0.000368008)
(165.68 0.507558 -5.45632e-05)
(165.669 0.476323 -8.55006e-05)
(165.616 0.541206 -6.4472e-05)
(165.513 0.576129 -7.81777e-07)
(165.527 0.570734 -3.56204e-05)
(165.606 0.496102 -2.50142e-05)
(165.612 0.431011 -5.04248e-06)
(165.623 0.0322818 0.000264897)
(165.6 0.448146 -1.9012e-06)
(165.599 0.425198 -1.14068e-07)
(42.2883 -8.0472 7.61415)
(20.4423 -3.48104 0.046728)
(49.225 -3.42505 10.8584)
(66.6642 -8.80683 0.0919667)
(112.852 -18.0526 0.000869972)
(112.437 -26.5597 9.7172)
(112.851 -17.3998 -0.000145558)
(106.975 -15.4967 0.00334044)
(70.547 -7.62395 -0.0957647)
(114.26 -14.9813 0.00122848)
(126.304 -10.1809 -5.78838e-05)
(125.281 -10.0779 -5.13345e-05)
(98.6236 -33.1282 17.18)
(117.286 -12.5983 -0.000107758)
(16.3621 0.522339 -0.0631889)
(106.758 -13.0077 0.00191183)
(116.337 -11.6151 0.000127015)
(94.5335 -11.2343 2.76381)
(55.4175 0.0631884 2.30135)
(105.973 -11.4586 0.000565669)
(113.101 -9.73773 0.000433279)
(121.676 -4.84244 0.000871907)
(105.2 -10.0319 0.000104962)
(55.4732 -2.85654 0.0851719)
(98.5322 -8.8213 0.00112757)
(104.487 -8.54501 0.000196145)
(106.452 -7.95144 2.68585e-05)
(118.786 -3.78982 6.33812e-06)
(114.52 -4.33323 7.52199e-05)
(106.473 -6.20532 1.0121e-05)
(120.228 -1.70146 4.46606e-06)
(84.4099 -0.452108 -15.4812)
(112.518 -3.77487 6.10889e-05)
(101.726 -3.75254 0.000306231)
(120.984 -0.100705 -7.56863e-08)
(108.897 -2.45766 0.000415606)
(110.578 -1.09325 0.000203175)
(101.131 -0.134712 0.000746926)
(121.393 0.187049 9.3462e-05)
(86.4889 7.82 -1.89365)
(86.0008 4.41488 0.716495)
(116.35 2.0723 5.01654e-06)
(109.25 2.68023 0.000237398)
(106.66 4.69124 0.00109141)
(122.236 1.13228 -2.00472e-06)
(63.7076 15.5129 0.806185)
(114.905 5.00353 -6.26579e-05)
(114.873 6.5201 0.00212872)
(102.448 9.4111 0.000181485)
(110.206 9.12682 2.98424e-06)
(112.414 9.4838 -7.71767e-06)
(87.7374 11.8451 -0.810042)
(118.559 8.42702 -0.000132989)
(115.3 9.18137 0.00304252)
(109.649 14.078 0.00226617)
(119.556 11.2706 0.00102445)
(116.236 11.9877 0.00278585)
(124.338 8.45834 -0.000175607)
(127.072 6.59733 0.000230218)
(127.262 9.61867 -2.36551e-05)
(111.592 20.6745 0.000846991)
(130.987 4.68243 -3.44507e-05)
(69.3547 -19.8447 -1.43903)
(32.034 -9.39021 0.106261)
(337.414 -16.0377 0.145825)
(325.199 -20.1385 0.228784)
(326.191 -8.1813 9.72481e-05)
(298.977 -32.3453 1.51476)
(312.063 -14.6806 0.000166203)
(187.446 -52.4255 10.3339)
(267.708 -40.5427 0.000760352)
(252.205 -30.6496 0.00112328)
(252.764 -22.9739 -0.000854646)
(239.149 -33.5411 0.00065394)
(224.146 -44.7699 0.000983402)
(228.253 -42.4496 0.00138198)
(240.456 -20.9803 2.57219e-05)
(216.551 -27.3525 0.00173712)
(212.212 -32.1862 0.000884241)
(203.548 -27.742 0.000354931)
(46.0523 -12.4051 4.24842)
(182.993 -32.7702 0.00344487)
(165.205 -42.4994 0.155076)
(165.822 -32.141 0.00326715)
(150.936 -46.6492 2.49186)
(138.022 -40.5289 0.550769)
(161.083 -26.0615 0.000462805)
(138.906 -34.7857 0.245849)
(150.896 -31.1479 0.00326312)
(158.842 -21.4575 0.000800967)
(147.443 -30.4757 0.00416342)
(140.949 -33.1291 -0.000656372)
(129.511 -37.9933 -1.78534)
(160.304 -15.5466 -8.61182e-07)
(125.046 -36.5432 -23.6863)
(155.766 -21.0674 0.000302247)
(137.392 -31.2589 1.37795)
(69.2009 -22.4638 -6.73809)
(145.529 -19.8204 -6.58969e-05)
(143.689 -19.0164 -3.4902e-05)
(145.739 -12.2043 0.000761437)
(125.716 -33.5866 -4.06718)
(145.303 -6.57455 0.000319152)
(131.354 -17.3181 -0.000116971)
(122.677 -20.9389 -5.85224e-05)
(109.858 -20.1473 -1.33841)
(132.453 -10.3621 -4.31915e-05)
(134.391 -6.54706 -3.8871e-05)
(132.278 -7.66124 -1.81359e-05)
(99.8711 -14.9697 3.21551)
(104.986 -17.0266 -6.60897)
(423.996 7.24541 -13.0654)
(433.024 1.18679 -1.53525e-05)
(432.848 0.61505 -9.24843e-06)
(429.39 3.57164 1.52905)
(428.217 0.937761 4.43776e-05)
(424.342 7.14082 6.81303)
(427.122 0.511781 -4.69337e-07)
(426.263 3.81461 -0.199147)
(389.434 4.53493 0.886528)
(423.344 0.651002 3.72257e-06)
(423.992 -2.44008 10.3316)
(421.619 0.517131 2.50515e-05)
(414.777 0.0378114 -3.49855)
(396.699 -5.987 -1.62776)
(411.039 -0.103722 4.74462e-05)
(412.283 -0.0447753 0.000106616)
(372.562 4.94281 -15.3089)
(409.011 -0.303746 2.43346e-05)
(408.597 -10.376 -2.75106)
(387.905 0.687737 0.480004)
(401.632 -1.92009 0.473279)
(411.824 0.660191 0.560346)
(398.092 -1.35508 0.000101652)
(352.748 8.462 -0.64635)
(392.989 -1.61805 0.000575419)
(375.318 -6.64651 -7.75492)
(385.918 -2.18759 0.000118401)
(379.706 -2.53517 0.000755436)
(378.172 -1.00093 0.000384268)
(373.722 -3.40482 -0.000822403)
(374.751 -0.0514063 -7.72305e-08)
(366.284 -1.28749 0.000270455)
(364.242 -3.81743 -0.000676368)
(365.619 -0.274531 1.87998e-05)
(348.608 -0.451298 -3.80777)
(326.585 7.06915 8.17942)
(324.969 0.0161736 -1.28341)
(326.564 1.13557 -1.25099)
(337.893 0.956604 -3.95521)
(389.146 -17.2236 -6.40066)
(358.095 -3.16693 3.31345)
(296.795 15.6263 -11.2963)
(374.196 6.48929 -10.5147)
(345.217 -0.28279 -5.45181)
(392.64 5.02576 2.30033)
(356.853 8.90791 -12.2375)
(379.241 6.09782 -7.85954)
(402.489 4.03599 -6.11361)
(424.232 -1.45531 0.405786)
(406.531 -25.7825 4.28471)
(412.688 -0.213049 3.89589)
(443.232 2.12011 8.3033)
(392.275 6.40086 -2.70972)
(413.82 -1.14109 1.1306)
(409.806 -4.33385 -3.13616)
(443.62 -6.29026 3.6289)
(403.677 -4.14904 16.926)
(395.116 -0.306618 1.77569)
(409.204 4.70544 9.97645)
(417.37 6.40041 1.1637)
(436.114 -4.44049 6.99351)
(419.827 -2.18462 -2.19532)
(425.21 -3.29289 18.7528)
(381.295 -0.218653 -0.651018)
(438.352 0.243674 8.51753)
(374.909 6.01274 8.2821)
(412.834 -4.29407 0.327821)
(419.581 0.0337715 -0.913792)
(424.033 -0.699765 -0.772231)
(426.104 3.70746 3.64233)
(414.17 -2.21707 -1.27246)
(425.484 2.09314 -6.12049)
(448.389 -11.4612 2.51279)
(405.647 3.52821 3.09733)
(450.904 -7.36675 -1.6203)
(419.882 1.09301 -0.887035)
(329.636 6.3706 1.58047)
(445.495 -3.22018 0.196228)
(405.47 -0.0595583 -1.55265)
(355.679 -5.34066 2.43894)
(424.768 11.06 -1.70187)
(420.66 -1.28071 -1.62316)
(330.124 17.3658 -11.5914)
(389.573 13.8477 -25.0439)
(336.68 1.67549 -11.9282)
(323.851 -9.16014 3.3384)
(434.497 -0.702184 0.401091)
(428.46 -8.50821 -3.90814)
(384.783 0.102245 0.253388)
(414.857 -6.46859 1.32129)
(410.881 5.0061 -5.76357)
(425.935 -3.47039 -0.436808)
(398.29 31.6966 -0.771972)
(441.102 0.730783 0.433349)
(444.584 0.00371292 0.123992)
(429.779 -8.28929 -4.15019)
(430.292 3.04331 -1.20013)
(437.101 0.437348 0.380982)
(369.124 -5.48651 -4.92856)
(383.121 6.6983 -6.3065)
(446.619 -5.1204 7.14736)
(384.179 2.49593 -14.7797)
(428.271 -1.04283 -2.17019)
(444.403 1.72463 0.594171)
(414.21 -5.53361 -3.85854)
(414.064 -5.90111 -3.43652)
(396.093 6.82491 -2.60442)
(440.126 -0.572688 -0.328448)
(381.014 5.45326 1.25442)
(403.006 3.11873 8.4982)
(426.371 3.43741 -1.99172)
(442.564 -1.77115 3.55238)
(397.397 3.87715 -10.2193)
(438.919 0.00080285 0.0276993)
(424.586 3.94988 -0.950976)
(436.088 0.0761369 2.22225)
(394.376 1.67947 -1.56864)
(418.35 -20.6316 6.44284)
(446.706 7.0076 -6.17972)
(445.443 0.339141 4.15444)
(422.243 -1.35789 -0.123696)
(439.272 -0.316687 -1.66725)
(437.555 -1.95693 3.7766)
(423.673 -6.29365 4.53336)
(443.76 -1.18461 3.7327)
(402.843 -2.00789 -0.0106491)
(419.781 -6.44451 -18.3759)
(380.068 7.72433 7.00023)
(437.742 -6.94127 1.69649)
(395.045 1.61227 3.50264)
(387.382 14.7748 -15.8089)
(440.56 4.08411 1.3769)
(441.429 -1.15014 -2.14806)
(403.821 -0.989954 4.88607)
(422.479 -1.64449 -6.34059)
(412.824 1.04287 -0.755036)
(415.301 1.94167 -2.17236)
(389.098 -6.93673 1.0565)
(432.428 -1.07082 -1.30347)
(443.744 1.99999 -1.59528)
(413.861 4.03634 6.80118)
(406.327 0.638364 -0.120642)
(380.111 1.92349 1.85527)
(410.596 -0.345254 4.04886)
(442.785 3.21703e-05 0.0207269)
(421.925 3.09726 -1.72734)
(412.878 6.68611 4.629)
(416.379 -0.438983 -4.66172)
(431.526 -4.22062 -1.0891)
(434.343 -6.40266 0.0421987)
(442.815 -6.53894 6.13612)
(354.058 11.4332 1.52078)
(432.001 -5.86761 2.03508)
(443.637 -6.17071 -0.878002)
(402.004 0.510644 0.410585)
(439.26 -3.3046 -0.725742)
(428.627 3.62427 3.94907)
(391.934 -6.4632 -14.2092)
(419.601 -0.484803 -0.0168961)
(402.673 7.45837 -0.952313)
(409.894 19.8039 13.5494)
(433.273 -2.73922 -1.56259)
(352.311 -0.569721 -0.395019)
(442.863 0.0253642 6.55733e-06)
(390.354 12.6585 10.7565)
(368.156 -1.09564 -0.311683)
(385.309 8.788 3.11677)
(442.046 0.452231 0.220261)
(442.564 -5.08366 4.71175)
(345.129 18.9314 10.4177)
(409.874 -9.84288 -0.850239)
(346.78 22.9213 -1.18279)
(444.371 9.10238 -4.6137)
(418.978 -3.44735 -5.0247)
(380.362 8.53777 6.04177)
(434.294 -4.98165 3.12367)
(351.928 -3.29379 5.89346)
(427.387 -5.08086 2.74744)
(433.744 4.9547 2.8524)
(415.717 -3.57759 -7.11067)
(364.071 12.3113 -9.67879)
(442.417 -0.177395 0.107581)
(437.622 -0.350775 -0.623391)
(444.654 -31.1978 11.1973)
(359.174 9.2499 7.63246)
(442.4 0.0100521 -0.38039)
(437.724 -2.88907 -1.14107)
(449.903 -0.466573 1.84105)
(440.424 -7.26173 0.819133)
(338.285 5.67554 -1.71606)
(414.06 3.32117 -4.916)
(448.42 -7.85314 -2.67431)
(438.923 -2.74014 5.41145)
(348.169 12.0643 -7.46916)
(449.42 0.00104 -0.0438561)
(438.313 -7.42583 -3.31899)
(435.675 -6.39221 0.829722)
(425.793 -5.61675 3.24811)
(440.017 -1.08577 -0.338143)
(442.975 1.84558 1.31429)
(438.548 -13.2135 -4.38955)
(404.885 4.57536 1.54483)
(430.32 -9.19787 2.89382)
(397.906 -0.38772 -3.53639)
(386.821 6.98279 -9.11718)
(353.364 12.0892 -13.8232)
(445.962 -2.21294 -2.6348)
(431.282 -21.4289 10.8516)
(430.086 -2.15754 3.06593)
(442.356 -0.00825008 8.58931e-08)
(442.732 -0.0216978 3.97816e-05)
(428.125 -1.23335 1.30996)
(423.16 -5.70008 4.63333)
(362.886 9.30176 13.4081)
(442.41 -3.1081 -10.3281)
(425.186 -9.63416 14.3971)
(435.177 1.36551 -2.58742)
(440.334 0.0134676 -0.39522)
(435.034 -1.83925 -0.440256)
(441.439 3.02968 -3.19262)
(367.151 0.976705 0.0225896)
(442.529 0.0358727 -3.07947e-05)
(441.823 -9.35149 -22.0569)
(433.032 2.18343 7.34632)
(440.083 4.61055 -4.45293)
(442.476 0.0399309 8.98073e-07)
(442.279 -1.47403 1.08896)
(417.901 -2.04563 2.67453)
(443.281 3.07335 -0.598107)
(426.398 2.34822 -3.21865)
(418.602 6.13041 4.926)
(451.403 -14.6978 5.01913)
(430.263 2.58018 -2.2878)
(441.872 -0.340815 -0.0866529)
(441.376 0.514345 -0.597819)
(402.34 -2.99506 3.29743)
(427.235 -0.498721 -0.140603)
(442.295 0.0192797 -1.08557e-05)
(446.385 0.993061 0.865813)
(442.483 0.0569524 -3.58638e-05)
(334.124 12.8526 -16.7945)
(432.586 0.612702 0.337198)
(423.294 -0.982941 4.58031)
(384.127 -3.38993 9.18863)
(415.058 -6.493 -6.99371)
(453.825 -4.70055 7.35994)
(397.962 -2.60619 -0.483029)
(425.815 -1.41917 3.01706)
(443.757 -0.853784 3.26876)
(442.752 -7.7612 0.889999)
(442.016 -0.0206762 -6.79779e-05)
(413.601 -0.721029 -0.982265)
(441.116 -0.86749 11.4555)
(442.172 -0.00285917 -6.05057e-06)
(427.319 -4.09595 -2.33006)
(435.246 1.32121 7.96101)
(442.003 -0.0351735 -2.77636e-06)
(441.859 -0.0355918 -3.19103e-06)
(411.996 3.42793 1.52035)
(442.016 -0.0192633 -3.12123e-05)
(425.055 -3.55792 3.35)
(442.274 0.0346095 -4.9325e-06)
(389.735 2.56414 -3.35833)
(444.269 8.32109 3.12848)
(442.19 0.0278693 -2.85614e-06)
(443.148 -4.54747 0.624975)
(421.723 0.433963 9.37231)
(436.635 0.864403 3.19329)
(437.835 -1.96631 3.05975)
(405.455 0.410885 1.30497)
(412.734 5.11908 3.31921)
(405.408 -0.60609 -2.37366)
(422.346 -8.42791 6.35777)
(420.446 -1.12759 5.16914)
(444.347 -0.655771 2.11018)
(441.891 0.00584844 -8.31589e-06)
(398.072 3.57197 2.34333)
(437.986 -0.200328 -0.498523)
(429.863 -6.93507 -0.621616)
(439.877 1.43551 -1.81862)
(447.915 -2.98731 1.54558)
(430.973 -0.131244 -2.69081)
(395.931 -3.69937 8.11266)
(440.046 -1.73755 2.7753)
(441.422 0.00509933 1.69428e-05)
(432.233 -2.17537 2.37862)
(441.695 -1.00329e-05 6.37357e-06)
(441.242 -0.00425345 -3.82999e-06)
(441.575 -0.00482095 4.49187e-06)
(441.11 -0.0120623 -2.92746e-06)
(439.684 1.88413 1.41623)
(416.474 -3.20469 8.82651)
(441.287 -0.0142904 4.15559e-05)
(408.279 -1.06959 -3.45552)
(404.903 -0.530384 0.152837)
(407.615 -3.4437 -7.95663)
(441.236 -0.0228234 2.25904e-05)
(396.855 -0.668054 -4.27245)
(445.898 -0.441528 0.881117)
(443.885 -16.3808 0.922514)
(441.324 -0.0149636 -5.49702e-07)
(409.325 3.59514 0.800928)
(441.355 -0.0122003 -5.22057e-07)
(424.768 -0.305098 -1.58409)
(381.606 8.57218 -21.4958)
(439.721 -1.13589 -0.630407)
(247.282 27.8187 1.89895)
(248.776 21.7798 -1.02056)
(287.238 24.1568 -3.38306)
(262.273 16.2046 6.31754)
(267.706 5.04427 2.38254)
(264.815 11.5932 -6.66373)
(282.238 10.2446 -1.59788)
(360.936 -6.98713 0.529029)
(385.665 -3.56009 12.3857)
(300.312 10.0455 13.2591)
(349.596 -4.27919 2.36473)
(369.597 -0.766208 -0.0535748)
(364.412 -8.21581 -18.5664)
(317.56 21.2393 -21.6587)
(380.364 -6.90631 10.8153)
(388.023 -11.9828 1.5803)
(358.362 23.905 -1.43069)
(356.038 -6.86487 4.19932)
(361.986 2.26249 -1.91913)
(372.995 0.282827 -1.52352)
(387.512 4.69796 -7.1513)
(384.657 -5.59359 -0.103564)
(332.895 5.42836 -6.98561)
(283.857 4.28857 -2.26218)
(396.098 -2.95448 -2.58987)
(396.731 -2.58344 -7.29088)
(321.736 7.68168 -10.0904)
(391.474 0.795376 0.338758)
(391.964 1.31328 -0.735701)
(381.704 0.130209 0.217416)
(392.937 1.18227 1.91774)
(385.977 -4.17256 8.82816)
(383.357 -9.07321 -1.89473)
(349.317 6.20591 2.03388)
(370.96 6.32146 -2.12273)
(393.055 0.00365928 -0.978016)
(393.873 3.51747 3.81053)
(373.599 -4.94648 -10.1942)
(390.554 -10.735 9.67516)
(336.797 -1.99521 -11.5871)
(408.229 -0.638791 2.99177)
(309.013 1.0871 -2.33044)
(401.372 -0.367548 0.151786)
(311.39 7.8861 6.22233)
(394.078 -0.413918 0.439239)
(384.822 -5.81053 11.3785)
(391.82 0.600514 -4.81571)
(354.891 -12.9735 11.383)
(327.797 -8.42017 -4.6086)
(371.58 4.52327 -4.0287)
(388.781 10.6384 0.0916918)
(372.536 6.08017 5.62515)
(382.425 3.63596 -9.59523)
(331.557 5.85483 2.32507)
(389.847 4.57783 4.91778)
(362.236 2.02849 1.59545)
(346.512 -3.53962 -3.74264)
(381.867 -14.5271 2.87099)
(397.478 0.0024045 -0.0902705)
(286.904 13.7739 -8.1659)
(328.966 18.5938 -6.43121)
(403.486 2.39152 8.20661)
(337.71 1.19684 0.508173)
(362.041 -0.799431 2.47015)
(369.666 -5.82532 -8.72717)
(399.4 0.0410853 -0.0630431)
(400.258 0.000565486 0.0224915)
(372.458 8.09306 11.9409)
(401.62 -8.27875 1.01762)
(389.955 3.68201 0.866856)
(375.907 0.72417 -4.64206)
(339.116 17.9863 -1.92725)
(391.145 2.46527 -3.22518)
(395.141 -0.631911 3.63023)
(278.918 29.7147 -1.52263)
(405.146 0.221396 0.0420508)
(359.079 -5.6949 -6.63065)
(412.444 -10.5769 16.1725)
(406.059 -2.19126 -6.16565)
(397.681 -6.92068 -3.67834)
(396.835 0.441816 -1.62082)
(363.039 9.79696 5.58862)
(400.226 -5.81917 -18.8854)
(408.36 0.0244503 -1.10104)
(365.511 -22.8392 -6.14818)
(403.971 0.359104 8.70414)
(348.012 2.8851 28.9365)
(362.017 7.09684 2.03231)
(376.871 4.54671 5.93756)
(350.608 9.45403 6.51651)
(406.438 2.30732 0.233361)
(348.03 23.5343 -11.9738)
(394.34 3.53012 -3.25734)
(354.814 -0.726478 -0.533155)
(391.69 -12.1528 -1.05231)
(413.945 -1.66932 10.307)
(410.853 0.504976 0.367777)
(357.457 5.64009 0.481202)
(404.295 -2.68877 -0.63774)
(407.805 0.000775884 -0.0304563)
(395.616 -5.36768 -4.74044)
(411.213 -3.17341 -2.33382)
(346.3 -0.617727 0.0738606)
(412.588 0.623581 -0.740463)
(408.696 1.51226 -0.746168)
(410.594 4.37301 1.58455)
(397.17 -0.665129 0.0333756)
(414.389 0.000474677 -0.0166864)
(408.889 -5.95532 -11.9219)
(393.845 -1.42449 -1.25197)
(348.966 6.70606 -6.58395)
(378.24 22.5038 12.8213)
(325.312 0.340625 7.61092)
(372.954 5.98245 -2.22222)
(408.169 13.26 4.63638)
(301.867 -7.0481 -22.1282)
(339.749 -8.84885 -5.22019)
(396.719 3.10514 -8.14366)
(416.466 1.98618 0.020609)
(330.119 -0.392732 -1.5219)
(380.97 -14.0104 2.36814)
(415.642 0.00185977 0.0549384)
(326.589 16.32 1.06268)
(421.212 0.00650766 -0.31611)
(394.173 6.20218 9.81516)
(422.852 -4.82934 2.27856)
(341.368 4.5178 11.8211)
(329.693 -3.80513 4.60361)
(299.206 28.1456 3.9277)
(311.342 -3.11638 4.04684)
(406.304 -5.89086 1.64914)
(412.408 -1.40884 6.88809)
(420.926 0.247015 -1.02933)
(402.663 -2.39565 -2.82737)
(418.938 1.75831 1.68148)
(425.068 2.02606 -0.269846)
(420.93 -0.325011 -1.71736)
(400.054 0.0342525 -0.424399)
(368.296 7.4801 -1.996)
(370.623 9.08331 -28.0001)
(410.517 4.24045 -5.82158)
(333.502 10.2524 -26.4568)
(425.416 -5.97682 -28.9854)
(419.701 -3.88251 -1.80819)
(381.315 1.39456 -5.50904)
(431.637 0.000134591 -0.00603052)
(387.857 -1.56972 -3.33034)
(429.114 0.218313 -1.85722)
(405.287 -3.67886 -7.67525)
(407.661 -4.13779 -11.0418)
(361.159 -16.1507 -15.8773)
(378.63 12.4163 7.16606)
(425.719 0.00156217 -0.0673205)
(387.582 13.1993 6.45378)
(414.409 3.65728 0.132218)
(427.236 0.633181 1.19715)
(391.756 1.26453 26.8941)
(427.253 0.0888095 -0.00724842)
(423.867 -7.20332 7.4015)
(407.294 -1.24441 -6.20505)
(364.793 3.13327 5.01906)
(417.871 1.21724 13.6452)
(378.782 15.5004 -6.63007)
(405.658 1.52438 0.261054)
(430.857 0.0591145 -0.637187)
(258.647 23.247 1.91587)
(428.595 0.0329006 -0.982382)
(402.649 -0.791706 -1.2108)
(345.096 0.589082 -3.5554)
(345.303 9.78096 17.8972)
(297.08 10.1199 2.4072)
(388.214 1.97238 3.20619)
(407.173 -3.94756 2.61062)
(424.541 -0.706298 -0.987186)
(431.001 3.52108 -2.43181)
(412.463 4.95245 -5.32537)
(410.038 3.86088 3.6396)
(414.668 -4.38928 -4.56161)
(360.828 0.000462887 -0.875983)
(398.162 0.0211846 2.64068)
(294.877 9.04276 5.07948)
(362.753 -1.04233 -0.77784)
(381.31 6.99134 -1.06867)
(392.041 4.61264 2.13086)
(435.368 0.000578216 -0.0311526)
(417.479 -1.25214 -2.24302)
(433.364 -2.84978 0.921642)
(419.489 -11.7805 -0.104419)
(395.489 1.54106 -3.15436)
(398.007 -5.24185 -4.01454)
(435.998 0.000894489 0.0261308)
(415.956 -1.88622 15.6888)
(427.904 2.87218 -0.761758)
(435.234 -1.34066 -13.7193)
(415.326 9.13324 -6.94202)
(381.492 -0.278834 9.5419)
(437.199 -0.641686 -0.384759)
(394.943 -7.66513 -10.6077)
(431.014 2.42883 -1.97428)
(357.154 22.7214 1.5789)
(438.744 4.75033 3.66799)
(357.66 -8.41907 3.84419)
(437.564 -14.1794 -20.0924)
(297.564 2.24688 8.06802)
(438.778 0.0442847 1.48542)
(383.546 3.8014 2.15222)
(424.843 -0.888906 0.344903)
(434.379 0.333136 1.59848)
(431.326 -0.946017 -2.20316)
(411.472 -3.95407 -1.89294)
(320.575 0.864725 -4.56228)
(394.998 0.0415715 -0.827348)
(389.265 10.9755 -9.58854)
(427.098 -3.53089 0.176272)
(439.242 0.136985 2.23463)
(433.928 0.000747316 -0.0376226)
(440.286 1.368 -0.132667)
(329.766 11.6716 -4.5043)
(435.799 -2.17221 -2.88906)
(436.073 -15.5526 -14.1965)
(417.367 -38.8692 17.3187)
(420.961 -2.14409 0.10003)
(337.556 0.757863 5.83962)
(411.082 -12.8715 -12.3524)
(412.514 1.2229 -1.65019)
(349.944 6.56831 -4.9295)
(447.154 1.10653 0.416562)
(419.697 -6.29695 6.32077)
(394.924 0.10677 3.45092)
(425.569 -3.64622 -2.03217)
(438.389 -1.54145 1.22192)
(364.323 -3.3735 5.02162)
(429.603 5.18997 0.159225)
(351.411 14.9271 1.17581)
(367.601 7.35269 -4.14801)
(364.687 2.62447 -2.6295)
(457.332 0.0522709 -0.104248)
(406.243 -0.425251 -0.176909)
(424.823 -3.79921 -3.16513)
(408.496 -12.2925 -3.9095)
(329.972 10.2679 16.869)
(411.55 -1.17063 1.87327)
(421.062 -0.405698 -0.288252)
(385.055 5.85184 -9.4943)
(424.837 -5.5652 -6.1062)
(425.208 -3.28042 7.24671)
(402.389 -1.68182 -2.00629)
(436.044 -0.360972 0.373168)
(312.566 19.746 -2.52147)
(441.293 0.587918 -0.371594)
(421.035 -1.77496 3.67601)
(438.232 -0.646053 -0.285483)
(316.406 1.52281 0.131531)
(340.174 0.305759 -0.693882)
(431.724 0.503706 3.25962)
(368.671 -1.88625 16.4545)
(417.9 -4.53105 -3.08992)
(435.931 5.18964 -1.27121)
(406.589 16.9026 16.6674)
(422.861 8.26035 -1.96123)
(381.451 -6.1942 -4.16798)
(395.054 4.61652 3.22447)
(367.566 -2.30057 0.744351)
(444.116 0.294815 1.70616)
(390.153 -0.68248 -0.405589)
(417.055 -3.24149 -1.30556)
(399.131 3.67263 -1.79662)
(428.031 -0.0187132 -0.492954)
(436.209 4.42653 9.52958)
(298.64 6.21045 -9.58876)
(443.087 -7.48283 -1.69278)
(359.046 -2.34884 8.72345)
(371.051 12.0071 8.90762)
(349.894 -2.47462 0.536601)
(439.729 -0.0252888 1.20041)
(433.418 5.32845 10.4009)
(439.234 -2.77841 3.48098)
(403.184 -1.4983 -9.41163)
(416.684 -2.09573 6.72818)
(364.18 2.46431 -27.0316)
(440.206 -9.00012 -1.84981)
(304.895 -2.03086 0.350953)
(439.967 0.715396 -0.278442)
(441.042 0.204688 5.74788)
(334.025 9.88576 7.62039)
(417.905 -0.838281 -0.0248747)
(431.883 -2.34433 -1.80287)
(335.946 2.55468 1.44542)
(391.25 -1.01659 1.64526)
(382.064 -2.82096 7.34506)
(424.932 -9.84612 11.0764)
(417.985 -2.13543 -7.03896)
(433.5 -4.51963 -1.99677)
(437.03 0.611053 -3.03621)
(391.238 3.7261 -1.39089)
(423.279 -12.3868 8.55598)
(442.206 0.00158862 -0.0333798)
(380.548 1.9946 7.81376)
(431.794 1.92982 3.10667)
(416.965 2.32224 -2.22581)
(436.931 -16.0324 8.33347)
(423.018 -7.907 -2.23704)
(428.795 -4.33173 1.85671)
(408.203 -10.1402 -3.77515)
(445.867 -7.18947 1.92289)
(304.695 -30.0949 -14.0223)
(303.97 9.97662 -5.49165)
(300.168 0.470612 22.0107)
(253.175 11.2963 -28.6461)
(321.338 3.50158 -17.3925)
(305.347 1.73629 2.81645)
(309.409 5.63883 -0.218105)
(314.843 11.3218 6.6634)
(338.859 6.89217 14.1202)
(295.422 -5.59482 -22.232)
(326.072 -9.37439 34.8635)
(329.666 6.77374 2.58832)
(336.444 -3.44941 3.56015)
(337.194 0.65847 -8.56691)
(327.936 -4.62744 8.90629)
(336.398 -0.408695 -0.335293)
(335.458 1.73069 -0.24241)
(304.048 25.9159 19.2005)
(336.466 4.68981 -14.6568)
(310.915 -0.718644 21.3672)
(338.191 10.1522 16.3186)
(303.421 1.58312 27.6662)
(333.481 -0.00426028 0.249269)
(326.566 7.25009 23.9917)
(345.628 -1.62768 7.80055)
(295.311 14.0036 -7.32354)
(339.952 -0.00954543 0.210553)
(304.869 2.40487 0.419047)
(338.908 -0.102635 0.021332)
(316.828 -11.3689 -17.3037)
(294.85 20.3368 -3.74851)
(329.608 10.3294 -19.361)
(334.207 -9.11678 -8.71584)
(358.918 -0.00680648 0.151453)
(335.027 -0.436514 5.18782)
(329.83 23.3763 9.31044)
(343.464 22.253 5.22731)
(369.134 -33.9539 10.6262)
(340.531 0.0125896 -1.01559)
(306.866 0.91667 3.30484)
(318.87 4.42524 -20.2517)
(331.372 1.93143 -7.21365)
(323.717 18.0209 -37.7963)
(334.695 0.748624 2.87548)
(335.326 29.3343 -7.18698)
(330.06 -0.0359298 -21.276)
(323.077 -3.42267 17.0899)
(319.807 12.7481 9.90315)
(340.3 12.1346 -30.3214)
(343.108 0.000224879 -0.0427999)
(279.564 1.68184 0.61746)
(335.989 -0.0286837 0.0201296)
(340.967 4.02579 -2.72253)
(334.456 -0.264553 -0.208011)
(314.43 6.31675 -0.245303)
(337.502 6.30554 1.72711)
(304.741 5.57016 7.76034)
(340.652 -11.554 18.7528)
(344.78 0.000269679 0.0187018)
(342.709 1.97164 -1.79558)
(333.322 -0.17424 -0.0151383)
(338.718 -0.00029788 0.0440979)
(343.468 8.70856e-06 -0.00107672)
(350.008 0.996697 -2.23758)
(347.029 -0.00405446 -0.357809)
(342.101 3.49723 -1.80682)
(346.281 0.000391313 0.0431043)
(339.953 -3.35674 0.140952)
(345.713 -16.0116 8.80547)
(325.975 -0.851352 -0.526062)
(343.729 -0.0416959 -0.262864)
(293.654 4.48125 -0.798655)
(326.638 1.09336 -0.252713)
(331.941 -7.88092 0.572011)
(361.54 -3.83897 21.1397)
(357.408 -3.69736 -3.19826)
(329.07 3.67826 -1.70279)
(345.277 0.15537 0.0860968)
(310.064 15.2529 -5.12077)
(326.116 0.242218 14.768)
(345.904 1.59912 -5.86052)
(339.46 22.4513 -8.18016)
(343.458 14.0493 4.65572)
(322.872 -2.14774 -9.42187)
(351.186 0.0143136 -0.0307577)
(347.581 0.00133574 -0.0474036)
(351.653 0.0625417 5.71874)
(300.113 -0.756926 -1.1528)
(361.195 20.1955 8.33117)
(364.634 -0.598498 12.3506)
(344.399 0.000442826 0.0636009)
(348.534 -1.00737 0.544604)
(347.36 -6.18112 -1.16569)
(329.569 6.40072 -3.38898)
(346.278 1.6612 11.3751)
(296.091 -0.0933694 5.65192)
(350.542 -1.47622 7.62392)
(335.858 1.85901 -7.9588)
(352.007 -4.45541 -6.59799)
(314.616 8.61389 -5.83432)
(338.657 6.4287 -2.1199)
(355.457 5.0444 3.96604)
(331.787 -5.64531 4.61367)
(356.967 0.00063191 -0.192693)
(353.616 1.20727 -9.62835)
(313.969 3.966 11.9273)
(338.815 -6.70285 -4.88063)
(361.301 -0.000955281 -0.124811)
(338.52 9.85984 -5.74416)
(345.926 18.0895 -1.05361)
(353.285 -0.00452095 -0.117529)
(342.325 -2.84593 -9.32995)
(350.732 -1.63874 1.08093)
(353.047 -0.00011564 0.0150194)
(342.302 1.77587 2.5919)
(335.962 14.3256 -2.54993)
(311.811 5.14734 -24.8456)
(342.215 6.75019 0.779297)
(356.02 0.00320241 -0.0697792)
(351.548 -0.00193745 -0.0826986)
(377.444 1.20332 -21.2106)
(349.085 1.98081 1.09554)
(347.815 -1.65589 -4.19942)
(355.167 -3.1436 1.85504)
(342.932 0.567087 6.98006)
(354.758 0.089273 0.103221)
(349.29 -5.12834 4.3179)
(346.563 0.0375164 -2.05136)
(341.083 -7.46486 1.7331)
(372.689 3.9456 -15.0264)
(332.013 13.9688 31.8478)
(351.066 0.0221901 -0.0511249)
(338.852 3.09283 5.26424)
(344.106 0.377857 5.84939)
(350.853 4.0883 2.01321)
(319.054 13.8498 -20.0282)
(334.497 1.56031 0.498509)
(368.521 -0.00017986 0.197922)
(347.274 -0.00545832 0.176846)
(341.376 -3.96409 -29.5158)
(361.65 4.4097 2.90952)
(337.831 -4.98135 7.10861)
(353.094 10.3406 8.95642)
(319.824 2.59925 0.330021)
(343.635 35.687 29.6875)
(328.756 8.69442 1.6386)
(349.816 0.00216401 -0.0469393)
(355.056 0.273155 5.4122)
(355.657 -0.101822 0.00398255)
(290.865 9.44406 -3.74293)
(354.254 -4.61164 -1.50529)
(355.421 6.41519e-06 -0.00780962)
(371.515 -3.57249 -42.2037)
(355.406 -4.35692 1.25968)
(338.784 14.3956 -5.63569)
(327.822 12.7162 8.72874)
(355.107 -0.0007486 -0.100666)
(364.208 2.38598 16.0864)
(330.119 10.4875 -3.76267)
(349.063 -3.26074 0.980402)
(354.857 1.00815 -1.32742)
(338.829 1.62504 -0.719325)
(349.584 1.01255 -4.36766)
(342.233 -9.96925 -29.9226)
(348.648 -28.9134 -2.51583)
(360.686 -0.0005778 0.0512611)
(359.518 0.747288 4.95348)
(361.653 -0.943398 -1.38611)
(360.426 0.50008 -4.16197)
(339.794 7.39824 9.99913)
(336.336 -13.3224 -7.49808)
(350.009 0.0417705 -1.2152)
(338.123 7.26298 -5.49235)
(363.645 6.16803 10.5437)
(360.212 -0.000482264 -0.0645884)
(371.233 -7.27748 -11.7474)
(351.372 7.71204 1.09158)
(346.905 8.13077 5.66614)
(353.079 -4.08347 6.82818)
(362.522 0.684009 2.66213)
(347.085 14.4655 10.9001)
(361.857 8.29958e-05 0.005507)
(361.654 3.85759 1.42845)
(367.553 6.5286 -12.8352)
(313.81 8.17083 -1.4222)
(352.936 -5.63573 7.78179)
(360.662 0.0836952 0.111143)
(354.576 -0.344823 -1.58036)
(350.207 -1.63295 -3.3866)