/*--------------------------------*- C++ -*----------------------------------*\
  =========                 |
  \\      /  F ield         | OpenFOAM: The Open Source CFD Toolbox
   \\    /   O peration     | Website:  https://openfoam.org
    \\  /    A nd           | Version:  7
     \\/     M anipulation  |
\*---------------------------------------------------------------------------*/
FoamFile
{
    version     2.0;
    format      ascii;
    class       vectorField;
    location    "0.1425/lagrangian/reactingCloud1";
    object      UTurb;
}
// * * * * * * * * * * * * * * * * * * * * * * * * * * * * * * * * * * * * * //


1207
(
(-6.47029 -5.13436 2.83754)
(0 0 0)
(0 0 0)
(-2.99175 -4.15801 -13.5141)
(-0.707316 0.909637 1.49989)
(1.55778 -1.68288 3.23002)
(5.26563 -1.47703 5.86505)
(0 0 0)
(-7.50531 -0.862446 -1.55316)
(5.52709 4.55581 4.95432)
(6.21238 -4.20151 -2.41627)
(0.667859 -2.66004 2.04455)
(0 0 0)
(0.724562 0.745886 0.474797)
(0 0 0)
(4.81788 0.650024 5.6418)
(0 0 0)
(11.6818 10.1447 8.02095)
(5.25154 -5.88354 -30.7841)
(-2.25083 -6.45513 -0.743672)
(-11.3329 -3.6639 -1.96949)
(0.00436727 -0.0289381 0.020254)
(0 0 0)
(11.2436 -1.08041 -0.375528)
(-1.05765 1.05878 4.84461)
(-2.61275 4.03477 2.56748)
(0 0 0)
(10.9522 1.27144 8.91678)
(0.539403 3.22326 0.257275)
(1.2747 0.898023 -0.432882)
(-1.98687 -1.74374 -0.0171458)
(-3.68551 -4.04098 -0.871443)
(-2.22769 7.02702 0.0587974)
(0.232152 0.780283 -0.962175)
(0 0 0)
(-0.163962 3.67554 -4.2732)
(-0.444857 -7.50136 -1.74799)
(0 0 0)
(4.49676 -3.12233 -2.94951)
(-6.59648 -10.3444 1.4915)
(-0.00460313 -0.0410283 -0.00479811)
(0 0 0)
(-4.36662 3.49571 -2.74271)
(0 0 0)
(-5.85918 -16.4547 5.51267)
(-6.43303 2.3583 -1.01165)
(2.31221 4.38248 -13.0472)
(0 0 0)
(0 0 0)
(-4.30328 -4.85724 2.35099)
(0 0 0)
(3.79333 -1.47719 -4.27398)
(-0.39551 -0.602025 -0.217614)
(0 0 0)
(-0.555057 2.58902 3.0062)
(-8.78874 -3.66348 -3.6069)
(1.48688 13.9012 1.96814)
(1.60236 1.0862 0.709468)
(-2.09619 4.39945 -4.78479)
(-5.75803 -4.19053 -2.5636)
(0 0 0)
(-0.031549 -0.686409 -0.648455)
(-12.795 -6.65217 1.17506)
(0 0 0)
(0 0 0)
(-5.48394 8.28296 -6.81654)
(5.30999 -3.43313 -6.87342)
(0 0 0)
(0 0 0)
(0 0 0)
(0 0 0)
(0 0 0)
(0 0 0)
(0 0 0)
(0 0 0)
(0 0 0)
(0 0 0)
(0 0 0)
(0 0 0)
(0 0 0)
(0 0 0)
(0 0 0)
(0 0 0)
(0 0 0)
(0 0 0)
(0 0 0)
(0 0 0)
(0 0 0)
(0 0 0)
(0 0 0)
(0 0 0)
(0 0 0)
(0 0 0)
(0 0 0)
(0 0 0)
(0 0 0)
(0 0 0)
(7.37094 3.99575 0.540426)
(0 0 0)
(6.35102 -1.55434 2.8405)
(0 0 0)
(0 0 0)
(0 0 0)
(0 0 0)
(-0.151425 0.364884 -0.0699563)
(0 0 0)
(0 0 0)
(0 0 0)
(0 0 0)
(0 0 0)
(0 0 0)
(0 0 0)
(0 0 0)
(0 0 0)
(0 0 0)
(0 0 0)
(0 0 0)
(0 0 0)
(0 0 0)
(0 0 0)
(0 0 0)
(0 0 0)
(0 0 0)
(0 0 0)
(0 0 0)
(0 0 0)
(0 0 0)
(0 0 0)
(0 0 0)
(0 0 0)
(0 0 0)
(0 0 0)
(0 0 0)
(-3.43903 -3.72527 7.61409)
(-0.793544 -1.06662 0.046287)
(0.0761343 0.670862 10.8701)
(0.159943 -0.531696 0.101147)
(0 0 0)
(2.6972 -9.96613 9.71925)
(0 0 0)
(0 0 0)
(-0.371467 0.0588361 -0.0949693)
(0 0 0)
(0 0 0)
(0 0 0)
(-14.1329 -23.155 17.1786)
(0 0 0)
(-0.83201 0.245734 -0.0635124)
(0 0 0)
(0 0 0)
(-2.56672 -0.821172 2.7638)
(2.53746 1.00017 2.30001)
(0 0 0)
(0 0 0)
(0 0 0)
(0 0 0)
(-2.69479 -0.847321 0.0850282)
(0 0 0)
(0 0 0)
(0 0 0)
(0 0 0)
(0 0 0)
(0 0 0)
(0 0 0)
(15.4731 4.16901 -15.4809)
(0 0 0)
(0 0 0)
(0 0 0)
(0 0 0)
(0 0 0)
(0 0 0)
(0 0 0)
(9.25508 4.70039 -1.89501)
(-2.82596 -0.504257 0.713617)
(0 0 0)
(0 0 0)
(0 0 0)
(0 0 0)
(8.0373 6.85025 0.800796)
(0 0 0)
(0 0 0)
(0 0 0)
(0 0 0)
(0 0 0)
(3.17089 -1.53116 -0.811189)
(0 0 0)
(0 0 0)
(0 0 0)
(0 0 0)
(0 0 0)
(0 0 0)
(0 0 0)
(0 0 0)
(0 0 0)
(0 0 0)
(-0.38442 -0.422963 -1.44178)
(-9.04863 3.0873 0.104347)
(-0.933812 -2.42856 0.145872)
(0.124466 -2.87935 0.231686)
(0 0 0)
(-9.54504 -7.55699 1.51665)
(0 0 0)
(2.78965 -1.30318 10.3321)
(0 0 0)
(0 0 0)
(0 0 0)
(0 0 0)
(0 0 0)
(0 0 0)
(0 0 0)
(0 0 0)
(0 0 0)
(0 0 0)
(2.63063 5.54119 4.24776)
(0 0 0)
(4.68174 -0.675794 0.155471)
(0 0 0)
(-7.91239 -16.9648 2.49186)
(-8.62771 -5.66951 0.5508)
(0 0 0)
(0.160409 0.907386 0.24514)
(0 0 0)
(0 0 0)
(0 0 0)
(0 0 0)
(0.282744 -3.29934 -1.78751)
(0 0 0)
(-8.72864 -5.0702 -23.6869)
(0 0 0)
(2.70572 0.3577 1.37758)
(7.84885 -7.14379 -6.73908)
(0 0 0)
(0 0 0)
(0 0 0)
(0.848708 -6.24006 -4.06692)
(0 0 0)
(0 0 0)
(0 0 0)
(3.35732 1.73713 -1.34066)
(0 0 0)
(0 0 0)
(0 0 0)
(-4.59494 5.27583 3.21295)
(-1.29974 1.43692 -6.60754)
(-2.15409 5.11128 -13.0653)
(0 0 0)
(0 0 0)
(1.45808 1.58191 1.52894)
(0 0 0)
(5.09506 4.996 6.813)
(0 0 0)
(1.9722 2.14558 -0.199577)
(-0.95286 2.96854 0.886777)
(0 0 0)
(2.0514 -3.72993 10.3316)
(0 0 0)
(2.2224 -1.13031 -3.49931)
(-0.531472 -6.88084 -1.62804)
(0 0 0)
(0 0 0)
(-7.55427 5.32723 -15.3092)
(0 0 0)
(2.69325 -10.0302 -2.75112)
(-8.11312 1.22416 0.479615)
(-0.355874 -0.855575 0.472891)
(12.9448 2.11405 0.560296)
(0 0 0)
(-2.56603 10.9872 -0.646175)
(0 0 0)
(-4.6548 -2.53835 -7.753)
(0 0 0)
(0 0 0)
(0 0 0)
(0 0 0)
(0 0 0)
(0 0 0)
(0 0 0)
(0 0 0)
(-4.23454 9.27373 -3.80645)
(14.9389 6.55573 8.17941)
(-2.77736 -0.290084 -1.28351)
(-0.894619 0.850764 -1.251)
(-0.966048 0.879549 -3.95522)
(3.86636 -16.5871 -6.40069)
(-4.90932 -2.75006 3.31343)
(11.1761 15.0709 -11.2961)
(-3.48221 7.0986 -10.5151)
(-0.446225 -0.254283 -5.45214)
(1.89057 5.65685 2.30031)
(2.02248 9.14409 -12.2376)
(-15.4916 6.71306 -7.85953)
(24.9019 4.63293 -6.11361)
(-0.556622 -0.793861 0.405808)
(-8.90016 -25.2095 4.28438)
(-5.29077 0.395475 3.89525)
(18.599 2.78212 8.30333)
(5.16815 7.08655 -2.70973)
(1.00945 -0.67331 1.13057)
(-0.716574 -3.92581 -3.13617)
(1.55633 -6.48115 3.62898)
(6.30778 -3.4826 16.926)
(-0.600111 0.385494 1.77569)
(8.53155 5.30483 9.97659)
(-8.34687 7.01321 1.16365)
(-5.18441 -4.57828 6.99351)
(-1.92568 -1.66042 -2.19528)
(7.9742 -2.83296 18.7528)
(-4.51382 0.408663 -0.651257)
(-0.254096 0.381425 8.51745)
(0.620576 6.53384 8.28195)
(-1.77155 -3.90848 0.327827)
(0.980519 0.450635 -0.913739)
(-0.247521 -0.188722 -0.77203)
(-2.61611 4.26725 3.64224)
(1.19549 -1.80566 -1.27233)
(1.57652 2.57107 -6.12036)
(7.68782 -11.4441 2.51314)
(-6.55083 3.92215 3.09737)
(8.32076 -7.46014 -1.62034)
(-6.79183 1.56823 -0.886942)
(1.01537 5.86203 1.58038)
(3.42389 -3.27288 0.196432)
(1.44767 0.572648 -1.55241)
(1.65062 -5.19967 2.43862)
(7.54069 11.4277 -1.70178)
(-1.58096 -0.905254 -1.62343)
(-8.29705 17.0471 -11.5914)
(-14.9765 14.5131 -25.0439)
(13.0225 1.10005 -11.9282)
(-12.905 -9.53296 3.33827)
(-0.521786 -0.263747 0.401107)
(-3.44399 -8.0549 -3.90809)
(-0.249089 0.673144 0.25308)
(-0.665333 -6.05254 1.32154)
(1.13364 5.58563 -5.76365)
(9.30964 -3.08794 -0.436805)
(15.363 32.2403 -0.771979)
(-1.75523 0.734954 0.433349)
(1.68389 -7.17187 7.20366)
(-6.81417 -7.91815 -4.15035)
(-0.616446 3.36518 -1.20066)
(1.37781 0.807445 0.380805)
(2.66433 -5.06325 -4.9286)
(6.5537 7.25245 -6.30653)
(15.9191 -4.81581 7.14715)
(-10.3209 3.09033 -14.7797)
(0.376792 -0.80268 -2.17017)
(1.60035 1.84277 0.594145)
(-0.874708 -4.99633 -3.85857)
(-7.89498 -5.53445 -3.43659)
(-1.92711 7.40643 -2.60459)
(-2.60877 -0.398956 -0.32847)
(0.92052 6.04361 1.25438)
(7.00077 3.68021 8.49815)
(4.77169 3.8387 -1.9918)
(2.61669 -1.48083 3.55251)
(7.17349 4.41078 -10.2193)
(-4.06618 -2.35846 -1.4132)
(3.61506 4.38455 -0.950667)
(1.39258 0.244153 2.22219)
(0.254684 2.19729 -1.56863)
(0.376519 -20.008 6.44284)
(3.70616 7.0353 -6.17973)
(2.72736 0.532722 4.15431)
(-0.124553 -0.829898 -0.123691)
(6.43974 -0.136861 -1.66725)
(-0.125767 -1.82946 3.77661)
(-1.56043 -5.84058 4.53328)
(6.18089 -1.07462 3.73274)
(-0.636675 -1.52592 -0.0106146)
(-8.01597 -6.01616 -18.376)
(5.32352 8.22966 6.99985)
(0.454714 -6.83334 1.6965)
(3.70258 2.18275 3.50271)
(3.77696 15.3984 -15.809)
(0.632452 4.16763 1.3769)
(1.1075 -1.06815 -2.14808)
(-5.67797 -0.487071 4.88608)
(2.52145 -1.04023 -6.3406)
(-0.355876 1.57522 -0.755223)
(0.803709 2.47344 -2.17253)
(-12.5162 -6.43672 1.05649)
(-9.62477 -1.04225 -1.30348)
(0.702393 2.01138 -1.59528)
(-3.72052 4.55876 6.80121)
(-0.645372 1.08626 -0.120635)
(1.28656 2.44848 1.85522)
(-0.533748 0.1127 4.04887)
(-0.256571 -2.18045 0.68042)
(-4.90476 3.62669 -1.7274)
(2.09775 7.13944 4.62903)
(-5.47758 0.054194 -4.66168)
(3.28198 -3.71705 -1.08916)
(-0.785051 -6.057 0.0424438)
(1.08669 -6.51352 6.13619)
(3.47914 11.2664 1.52074)
(-2.64721 -5.48865 2.03536)
(1.3287 -6.1718 -0.877973)
(0.810736 1.08355 0.41057)
(-1.18846 -3.17347 -0.725754)
(-0.355846 4.09299 3.94908)
(-13.5535 -5.93236 -14.2091)
(-0.00683519 -0.0678022 -0.0169635)
(1.29354 8.03692 -0.952329)
(9.02334 20.3796 13.5494)
(-9.08139 -2.73031 -1.56247)
(0.186911 -0.701009 -0.395023)
(0 0 0)
(5.23214 13.2064 10.7564)
(0.700612 -0.679768 -0.311699)
(-1.42665 9.3278 3.11673)
(0.503257 0.545425 0.220261)
(0.834429 -5.0015 4.71176)
(-12.28 19.0456 10.4177)
(-15.5722 -9.47208 -0.85021)
(-6.22916 22.7808 -1.18293)
(2.06121 9.14601 -4.6137)
(-18.7044 -3.17844 -5.02461)
(-1.56448 9.07604 6.04162)
(-0.497807 -4.67938 3.1237)
(0.362293 -3.51455 5.89312)
(-2.16444 -4.73678 2.74745)
(-1.55335 5.24957 2.85246)
(2.19746 -3.04338 -7.11064)
(4.93909 12.5002 -9.67892)
(0.0481961 -0.123798 0.107564)
(0.0373213 -0.0943559 -0.62339)
(1.77576 -31.1736 11.1973)
(5.28475 9.105 7.63245)
(-0.555354 -0.806292 5.9102)
(-1.34618 -2.71454 -1.14101)
(9.78218 -0.326079 1.84112)
(0.700229 -7.1217 0.819145)
(4.93173 5.00862 -1.71609)
(-6.79175 3.816 -4.91599)
(6.66307 -7.7842 -2.67427)
(2.47054 -2.5041 5.41153)
(0.103954 11.6521 -7.46917)
(6.50248 -3.34733 2.39904)
(-3.31768 -7.3682 -3.31898)
(-1.29335 -6.1725 0.829939)
(11.0754 -5.13409 3.24807)
(-1.75878 -1.03607 -0.338104)
(2.41707 1.93439 1.31432)
(10.9367 -12.7769 -4.38951)
(-7.78443 5.02883 1.54484)
(-8.14401 -9.00657 2.89383)
(-2.3206 0.14543 -3.53639)
(1.72324 7.54126 -9.11753)
(-0.302385 11.8619 -13.8232)
(4.82288 -2.15313 -2.63477)
(-11.3746 -21.415 10.8516)
(-1.69077 -1.74787 3.06594)
(0 0 0)
(0 0 0)
(0.456398 -0.809172 1.30997)
(-0.134907 -5.29135 4.63325)
(-2.40837 9.68176 13.4081)
(0.391654 -3.09932 -10.328)
(9.30966 -9.22848 14.3971)
(1.02425 1.72669 -2.58742)
(-0.974656 0.0820827 -0.395223)
(-1.27595 -1.53807 -0.440179)
(2.57325 3.25346 -3.19248)
(-2.68809 1.42907 0.0224202)
(0 0 0)
(5.27625 -9.05767 -22.0569)
(14.1757 2.56659 7.34633)
(-2.04925 4.61301 -4.45291)
(0 0 0)
(0.95189 -1.38412 1.08905)
(-3.40656 -1.67882 2.67454)
(1.06835 3.06686 -0.598112)
(-6.79422 2.63608 -3.21862)
(6.95925 6.61479 4.9261)
(8.75529 -14.7176 5.01913)
(-2.14985 2.85949 -2.28779)
(0.237033 -0.277834 -0.08665)
(-0.588305 0.538498 -0.597794)
(-0.396749 -2.41349 3.29743)
(-1.15942 -0.213677 -0.140587)
(0 0 0)
(5.2401 1.10223 0.865819)
(0 0 0)
(-18.0637 12.4944 -16.7945)
(-0.00374598 0.867503 0.337214)
(-0.759417 -0.617063 4.58032)
(-9.50106 -2.85682 9.18848)
(6.04128 -5.97696 -6.99373)
(12.3663 -4.6152 7.35994)
(0.154738 -2.07587 -0.483018)
(-0.0301263 -1.07888 3.01706)
(2.84051 -0.745199 3.26883)
(0.760803 -7.73777 0.890005)
(0 0 0)
(-0.380048 -0.230142 -0.982255)
(-0.593969 -0.816052 11.4555)
(0 0 0)
(-0.680714 -3.76249 -2.33006)
(-0.832166 1.52131 7.96103)
(0 0 0)
(0 0 0)
(-2.13195 3.91258 1.52039)
(0 0 0)
(-2.47681 -3.20782 3.35001)
(0 0 0)
(1.06974 3.09754 -3.35835)
(8.56284 8.53652 3.1285)
(0 0 0)
(1.775 -4.51094 0.625016)
(-3.15969 0.829266 9.37244)
(0.543402 1.08018 3.19333)
(-3.54161 -1.93949 3.05975)
(-0.142386 0.902346 1.30497)
(2.61848 5.59437 3.31922)
(1.08882 -0.110042 -2.37366)
(0.824196 -8.01181 6.35778)
(-2.23708 -0.720318 5.16918)
(11.2131 -0.373776 2.11044)
(0 0 0)
(-0.645348 4.09788 2.34335)
(0.469245 -0.00557235 -0.498524)
(-11.3852 -6.92528 -0.621611)
(1.41705 1.60104 -1.81862)
(8.43406 -2.86917 1.54579)
(7.32267 0.263092 -2.69079)
(-13.5583 -3.21576 8.11266)
(-0.260541 -1.67505 2.77532)
(0 0 0)
(-3.59833 -1.92059 2.37885)
(0 0 0)
(0 0 0)
(0 0 0)
(0 0 0)
(0.865038 2.0388 1.41626)
(-2.07657 -2.77935 8.82654)
(0 0 0)
(-9.87667 -0.639135 -3.4555)
(0.452743 -0.00213325 0.152898)
(12.4688 -2.87572 -7.95665)
(0 0 0)
(-0.835118 -0.108448 -4.27245)
(6.18163 -0.348468 0.881261)
(17.8047 -16.0044 0.922517)
(0 0 0)
(0.895716 4.10464 0.800969)
(0 0 0)
(-3.19754 0.0586964 -1.58409)
(4.49931 9.17364 -21.4959)
(-0.146242 -1.04311 -0.630398)
(-2.66099 27.7945 1.89895)
(-7.183 21.5842 -1.02055)
(15.1024 23.7402 -3.38293)
(-7.97396 15.8907 6.31769)
(-7.90088 4.57923 2.38282)
(-6.87914 11.281 -6.66372)
(-11.0126 9.92971 -1.59788)
(0.28418 -6.5741 0.528985)
(11.1199 -3.11916 12.3857)
(9.91574 9.72295 13.2591)
(6.33326 -4.03296 2.36446)
(0.14549 -0.325143 -0.0538777)
(-17.7098 -7.75155 -18.5664)
(5.17455 21.0963 -21.6588)
(0.664895 -6.45004 10.8153)
(-2.46269 -11.7531 1.5803)
(-5.68218 24.3298 -1.43088)
(14.319 -6.63766 4.1993)
(0.3116 2.68833 -1.91918)
(1.63496 0.751409 -1.52361)
(-2.27832 4.83643 -7.15132)
(-2.5731 -5.21798 -0.103723)
(-14.7461 5.72129 -6.98565)
(-17.3229 3.99985 -2.26219)
(7.62012 -2.7288 -2.58988)
(6.47097 -2.5199 -7.29089)
(-13.9405 7.83261 -10.0904)
(0.774002 0.838856 0.338759)
(2.16642 1.52623 -0.735703)
(-0.213836 0.577874 0.217261)
(1.24942 1.20277 1.91774)
(6.50259 -3.67994 8.82814)
(-8.01327 -8.78617 -1.89475)
(-10.2481 6.62041 2.03377)
(-20.8507 6.32367 -2.12274)
(0.346756 0.00396251 -0.978018)
(4.19878 3.79075 3.81053)
(-3.40174 -4.44953 -10.1942)
(-2.46701 -10.6398 9.67518)
(4.60781 -1.90097 -11.5871)
(15.8957 -0.529868 2.99177)
(2.1732 0.859644 -2.33043)
(5.84481 -9.17643 0.870158)
(-13.1598 7.87914 6.22224)
(-0.48361 -0.177041 0.439236)
(5.19463 -5.26519 11.3784)
(0.411566 0.941959 -4.81573)
(-19.7241 -12.4869 11.383)
(-26.7863 -8.05328 -4.60864)
(-3.78584 5.03549 -4.02875)
(-3.47088 10.9485 0.09161)
(-4.04033 6.59037 5.62509)
(6.73543 4.14143 -9.59526)
(-3.26025 5.98325 2.32503)
(13.9158 5.08311 4.91777)
(3.60336 2.44264 1.59544)
(-27.6364 -2.99271 -3.7428)
(-18.0685 -14.3051 2.87098)
(-2.45332 -7.37133 4.75905)
(-29.1954 13.6432 -8.16589)
(16.6193 18.4016 -6.4312)
(15.8353 2.86707 8.2064)
(1.00321 1.3408 0.508042)
(-0.426943 -0.351132 2.47001)
(-32.4875 -5.5206 -8.72719)
(-0.62006 -8.02777 -1.89941)
(0.406051 -0.71991 1.16546)
(-2.14484 8.62236 11.9409)
(5.60356 -7.84348 1.01749)
(0.635952 4.1753 0.866602)
(-10.4087 1.28389 -4.64208)
(-7.54572 18.2508 -1.92726)
(1.02732 2.97473 -3.2252)
(-4.21858 -0.361881 3.63023)
(-8.01793 29.3226 -1.52262)
(4.03648 -3.85845 0.231577)
(12.1373 -5.41856 -6.63066)
(10.4577 -10.3665 16.1725)
(3.91579 -1.99157 -6.16568)
(9.45734 -6.39612 -3.67838)
(3.49363 0.93944 -1.62087)
(-3.04316 10.2844 5.58822)
(-4.18085 -5.81066 -18.8855)
(4.31858 -2.01742 15.9947)
(6.01906 -22.4161 -6.14838)
(-0.259666 0.389787 8.70416)
(12.1458 3.00935 28.9365)
(1.30572 7.53832 2.0323)
(-1.09629 5.11359 5.93756)
(-1.68745 9.78944 6.51651)
(2.06301 2.51804 0.233327)
(5.34945 23.7366 -11.9739)
(1.43421 4.10702 -3.25739)
(0.294917 -0.360316 -0.533197)
(-19.2747 -11.7242 -1.05236)
(4.38285 -1.55708 10.3071)
(0.561246 0.577764 0.367778)
(1.00813 6.0242 0.480842)
(-1.8487 -2.22849 -0.637769)
(-4.46296 -2.5886 -1.5511)
(-11.5509 -4.81486 -4.7405)
(-0.529062 -3.022 -2.33384)
(1.84716 -0.406523 0.0737873)
(-0.728711 0.667017 -0.740466)
(-4.7449 1.73944 -0.74618)
(-0.725294 4.74215 1.58451)
(0.00719378 -0.0476669 0.0333624)
(-0.187372 -0.933297 -0.966829)
(-2.431 -5.50276 -11.922)
(-1.57791 -0.807842 -1.25233)
(0.00699401 12.332 -15.4264)
(-7.07051 23.1265 12.8213)
(-9.20575 0.410231 7.61091)
(6.38639 6.48598 -2.22227)
(-9.83833 13.3657 4.63639)
(-23.8005 -7.13538 -22.1282)
(-11.725 -8.53309 -5.22021)
(-6.93798 3.7249 -8.14413)
(-0.081548 2.31636 0.0206047)
(-0.321105 -0.393365 -1.52191)
(-25.7848 -13.4056 2.36801)
(-3.34904 -1.83403 2.89338)
(20.6229 16 1.06269)
(2.34857 -4.27025 11.8282)
(-10.1562 6.82092 9.81456)
(12.4317 -4.2291 2.27846)
(-8.47457 4.81077 11.8209)
(-6.96345 -3.7167 4.60352)
(2.96726 27.7418 3.92769)
(1.81792 -3.41449 4.04685)
(-0.621718 -5.28364 1.64878)
(-7.83729 -1.30642 6.88811)
(0.331608 0.286756 -1.02933)
(-5.46282 -1.79638 -2.82734)
(-1.4247 2.07614 1.68149)
(4.7261 2.35577 -0.269843)
(-0.335686 -0.0435921 -1.71736)
(-0.31177 0.665603 -0.424646)
(-1.35885 8.00936 -1.99602)
(-13.8166 9.74339 -28.0002)
(1.1003 4.81511 -5.82156)
(-4.36198 10.3502 -26.4568)
(4.94471 -5.53978 -28.9854)
(0.101516 -3.43698 -1.80834)
(3.91493 1.9991 -5.50914)
(6.50213 -0.624793 -0.217165)
(-11.4559 -0.855027 -3.33039)
(3.66574 0.240247 -1.85723)
(-12.3332 -3.20043 -7.67517)
(-6.62933 -3.61509 -11.0418)
(-8.44385 -15.6151 -15.8773)
(-4.00672 13.0576 7.16603)
(-1.55497 -4.64954 -3.82038)
(6.61173 13.8251 6.45335)
(-11.4723 3.91423 0.132296)
(-0.56455 0.726034 1.19715)
(-1.17102 1.9756 26.8939)
(-1.521 -1.33488 -0.0131256)
(-4.60768 -7.10484 7.40153)
(-1.29905 -0.625655 -6.2051)
(0.154613 3.61121 5.01902)
(16.7599 1.94565 13.6451)
(-7.37577 16.1531 -6.63011)
(3.18934 2.25427 0.261024)
(0.834818 0.0641244 -0.637188)
(-33.0101 22.7693 1.9159)
(-1.98298 0.036401 -0.982383)
(0.603958 -0.0601069 -1.21112)
(2.06618 0.750604 -3.55541)
(-6.43954 10.081 17.8972)
(-8.87216 9.72723 2.40722)
(-6.50986 2.66758 3.20612)
(-12.5893 -3.56326 2.61063)
(1.1982 -0.420382 -0.987037)
(0.651237 3.61206 -2.43171)
(-2.45074 5.51682 -5.32535)
(-7.06913 4.37647 3.6396)
(0.0984754 -3.80499 -4.56166)
(-1.25268 0.44839 -0.87602)
(5.18656 0.685671 2.64067)
(4.00713 8.56121 5.07949)
(4.29556 -0.644248 -0.777859)
(1.13092 7.62905 -1.06872)
(-1.92906 5.26347 2.13084)
(1.98773 -2.18345 1.76632)
(-0.598042 -0.658003 -2.24297)
(0.861144 -2.81767 0.921651)
(-15.3619 -11.7813 -0.104419)
(0.576107 2.18397 -3.1545)
(-2.33179 -4.59873 -4.01448)
(1.18873 -0.964829 -1.40507)
(-5.2345 -1.35525 15.6889)
(-4.8895 2.9566 -0.761717)
(6.2927 -1.11839 -13.7193)
(-1.16259 9.80623 -6.94206)
(3.02244 0.332679 9.54186)
(1.16527 -0.63722 -0.384759)
(7.04195 -6.99979 -10.6077)
(-3.1432 2.51629 -1.97427)
(-2.21244 23.1093 1.57885)
(2.27158 4.78488 3.66799)
(-7.03638 -7.94217 3.84416)
(4.65432 -13.8515 -20.0923)
(-1.76137 1.76326 8.06802)
(1.22548 0.0464214 1.48542)
(-1.09921 4.48866 2.15186)
(0.177973 -0.271679 0.344891)
(-3.39326 0.349185 1.59848)
(-2.62632 -0.627488 -2.20316)
(-0.119194 -3.38452 -1.89289)
(12.4157 0.446075 -4.56227)
(1.52851 0.769408 -0.827367)
(-7.71407 11.6513 -9.58859)
(-1.12842 -2.93467 0.176272)
(0.580167 0.155714 2.23464)
(-5.02753 -1.36905 2.02607)
(1.31101 1.42626 -0.132667)
(-1.93944 11.5793 -4.50436)
(-2.25013 -1.83048 -2.88914)
(16.5345 -15.0492 -14.1966)
(-15.6817 -38.294 17.3186)
(2.8439 -1.66488 0.0997805)
(4.98681 0.672816 5.83962)
(-22.2507 -12.2935 -12.3525)
(-1.39406 1.67083 -1.65017)
(-20.3123 7.10214 -4.92955)
(9.62439 1.57178 0.416576)
(1.07856 -5.87358 6.32077)
(-2.91605 0.850892 3.45065)
(-0.732127 -3.17055 -2.03217)
(-0.527699 -1.17605 1.2218)
(0.909889 -2.9294 5.02131)
(4.5923 5.64149 0.159325)
(-3.45082 15.2411 1.17561)
(12.8725 7.66614 -4.14806)
(0.654556 3.07748 -2.62972)
(16.9034 -6.98121 -1.63071)
(-0.123756 0.242246 -0.176738)
(9.31209 -3.3347 -3.16493)
(-32.2277 -12.15 -3.90951)
(-3.90987 10.1909 16.8688)
(0.726249 -0.568603 1.87322)
(-0.540888 -0.00534209 -0.28845)
(-7.48523 6.52633 -9.49441)
(-9.91911 -5.09071 -6.10648)
(10.1946 -2.7939 7.24678)
(0.536006 -0.927717 -2.0063)
(7.70904 0.0431756 0.373176)
(2.74618 19.2951 -2.52154)
(0.327282 0.60631 -0.371595)
(7.751 -1.18862 3.67605)
(0.228233 -0.240583 -0.285582)
(-0.550293 1.15502 0.131453)
(5.8653 0.221907 -0.694079)
(-3.92056 0.888056 3.25947)
(-2.40274 -1.34622 16.4545)
(7.47966 -3.81481 -3.08994)
(-1.02454 5.56264 -1.27097)
(-11.8191 17.3926 16.6678)
(9.618 8.90199 -1.9613)
(-7.19237 -5.48161 -4.16802)
(-0.778724 5.27439 3.22453)
(-8.18462 -1.70503 0.744099)
(2.7512 0.328869 1.70617)
(0.941836 -0.0598895 -0.405584)
(-4.03932 -2.7989 -1.30562)
(-3.15775 4.39844 -1.79691)
(0.331102 0.247167 -0.492831)
(-5.31733 4.45551 9.5296)
(-0.0665301 5.67574 -9.58875)
(5.0446 -7.31507 -1.69259)
(3.60969 -2.03647 8.72342)
(-3.32657 12.5713 8.90761)
(-4.06703 -2.191 0.536487)
(-2.03227 -0.0245616 1.20042)
(4.46401 5.56077 10.4009)
(1.92623 -2.66903 3.48094)
(-11.6844 -0.759318 -9.41165)
(-8.67284 -1.69045 6.72813)
(-2.73515 2.95975 -27.0317)
(0.639585 -8.98452 -1.84969)
(-0.367888 -2.5481 0.350964)
(0.498159 0.703757 -0.278436)
(-1.02467 0.20407 5.74788)
(-8.38839 9.93077 7.62006)
(-0.0327348 -0.117732 -0.0248897)
(2.13809 -2.07315 -1.80269)
(-2.19741 2.51313 1.44509)
(-2.07196 -0.442788 1.64525)
(-12.646 -2.24975 7.34502)
(-7.97227 -9.70841 11.0764)
(2.05307 -1.39113 -7.03896)
(1.90194 -4.24526 -1.99681)
(0.259482 0.593882 -3.0362)
(-5.23612 4.30194 -1.39088)
(-1.40089 -11.7814 8.55613)
(-0.12686 -3.23361 1.40722)
(-18.5902 2.54748 7.81377)
(0.440807 2.24885 3.1072)
(-0.0727233 3.02925 -2.22588)
(-0.614217 -16.0703 8.33344)
(-10.5346 -7.69389 -2.23712)
(2.34303 -3.73871 1.85666)
(-16.1374 -9.46208 -3.77515)
(3.47299 -7.24321 1.92289)
(-14.6519 -29.8741 -14.0223)
(17.0421 10.1493 -5.49169)
(-26.2136 0.648369 22.0107)
(-40.8384 11.4301 -28.6461)
(-12.1455 3.63666 -17.3925)
(5.75644 1.89894 2.81644)
(4.41773 5.79809 -0.218057)
(-2.29032 11.5427 6.66341)
(7.00052 7.04853 14.1202)
(0.816494 -5.46854 -22.232)
(-2.94176 -9.19944 34.8635)
(-1.5741 6.9378 2.5883)
(-1.53764 -3.42684 3.56015)
(-0.547002 0.66954 -8.56691)
(7.01807 -4.43892 8.90626)
(-1.84504 -0.404612 -0.335293)
(3.34684 1.89245 -0.242415)
(-3.19583 26.1096 19.2006)
(1.63889 4.82282 -14.6569)
(-25.5675 -0.586346 21.3671)
(10.1697 10.3376 16.3185)
(0.193774 1.70745 27.6662)
(-5.76238 -11.0947 14.7726)
(-4.16686 7.419 23.9917)
(7.86779 -1.53877 7.80055)
(-5.96155 14.0919 -7.32355)
(0.902109 -3.29186 8.98749)
(-1.04904 2.51356 0.419057)
(-0.0395357 -0.0222739 0.0213156)
(-2.45955 -11.181 -17.3037)
(-4.08006 20.4422 -3.74851)
(4.08424 10.5072 -19.361)
(4.71168 -8.95399 -8.71588)
(19.0122 -8.05349 -1.10881)
(0.842288 -0.284806 5.18782)
(-11.7513 23.4182 9.31044)
(10.9342 22.4125 5.22732)
(28.1269 -33.8695 10.6262)
(0.00416756 -5.18422 27.2941)
(-2.39331 0.991001 3.30479)
(-23.6542 4.46785 -20.2517)
(-10.5271 1.96236 -7.21365)
(-2.859 18.1881 -37.7963)
(-7.09005 0.758804 2.87548)
(31.6288 29.4512 -7.18698)
(-7.98649 0.100278 -21.276)
(0.433384 -3.28072 17.0899)
(-10.9017 12.9062 9.90313)
(2.0749 12.2666 -30.3214)
(1.33866 -3.03415 -2.55567)
(-18.1358 1.69389 0.617465)
(-7.22926 -2.27309 0.228104)
(-0.0782893 4.11597 -2.72253)
(0.216862 -0.11059 -0.208041)
(-7.82884 6.45388 -0.245298)
(3.91173 6.4593 1.72708)
(1.10093 5.61657 7.76034)
(9.14556 -11.397 18.7528)
(1.30255 -1.19357 1.09894)
(0.664267 2.0443 -1.7956)
(-0.0466624 -0.0178892 -0.0151418)
(-5.01865 -2.21806 2.5564)
(-0.110474 -0.0415956 -0.0619392)
(7.01678 1.02609 -2.23758)
(0.706101 -0.00363542 -0.358995)
(-1.6397 3.55212 -1.80682)
(1.89921 -1.91917 -2.50041)
(-2.41625 -3.24774 0.140938)
(3.98507 -16.5953 9.29221)
(-1.15516 -0.702286 -0.526065)
(-0.567162 -0.0100391 -0.262864)
(-5.132 4.48576 -0.79866)
(-10.8542 1.24116 -0.252724)
(-5.51692 -7.71335 0.571986)
(17.8556 -3.82022 21.1397)
(13.5241 -3.62432 -3.19827)
(-14.5937 3.79564 -1.70279)
(-0.0562313 0.156412 0.0860969)
(21.3487 15.2258 -5.12078)
(-8.52863 0.407577 14.768)
(3.63338 1.72551 -5.86052)
(-5.26211 22.5173 -8.18017)
(9.13176 14.2065 4.65571)
(-5.96875 -1.98937 -9.42189)
(4.93249 -4.51327 -0.236078)
(0.927223 -4.25075 -1.95632)
(5.54559 0.100029 5.71875)
(0.165823 -0.767715 -1.1528)
(15.707 20.2851 8.3312)
(22.7611 -0.469586 12.3506)
(-3.21616 -1.84156 -3.30254)
(0.876897 -1.00064 0.544605)
(-0.629977 -6.15652 -1.16569)
(-5.40265 6.57405 -3.38904)
(0.00420308 1.76383 11.3751)
(-15.8507 -0.0384067 5.65188)
(2.48876 -1.47357 7.62392)
(-4.28587 2.03391 -7.95881)
(3.90463 -4.42387 -6.598)
(-11.0374 8.75962 -5.83432)
(-7.98072 6.55687 -2.11993)
(8.67816 5.05406 3.96604)
(-3.47749 -5.4622 4.61364)
(8.51362 -12.3 -11.215)
(5.69869 1.279 -9.62836)
(-1.25818 4.04315 11.9272)
(24.6998 -6.63498 -4.88067)
(11.9921 -8.45875 7.19275)
(1.42234 10.0406 -5.74417)
(30.8852 18.1706 -1.05363)
(3.94359 -2.82532 5.6597)
(-8.02636 -2.80291 -9.32995)
(0.795291 -1.60371 1.08093)
(3.03 -0.666504 -0.836203)
(-4.80254 1.91989 2.5919)
(-10.1523 14.4804 -2.54994)
(-39.0553 5.26308 -24.8456)
(-1.9885 6.92512 0.779282)
(5.14055 -5.24129 3.1125)
(0.369544 -8.20637 -3.55843)
(28.7198 1.28086 -21.2106)
(-1.50458 2.08591 1.09554)
(-1.92241 -1.51203 -4.19943)
(3.51337 -3.07124 1.85503)
(4.3742 0.7669 6.98004)
(2.32121 -10.6169 -0.481691)
(2.65546 -4.9401 4.31789)
(-5.37046 0.138967 -2.05137)
(7.49577 -7.27555 1.73309)
(19.8325 3.96299 -15.0265)
(5.45284 14.1201 31.8477)
(-2.14084 -3.75701 -0.692404)
(5.56459 3.28044 5.2642)
(-8.31682 0.485833 5.84939)
(-0.413863 4.20921 2.01321)
(-10.0741 14.0163 -20.0283)
(6.20081 1.72206 0.498501)
(15.0978 -19.9591 7.64104)
(-7.82086 -8.88615 10.7796)
(19.2865 -3.84117 -29.5158)
(11.8998 4.55799 2.90952)
(-11.6662 -4.79275 7.10855)
(6.81153 10.53 8.95642)
(-1.33298 2.70789 0.329965)
(25.0289 35.7853 29.6875)
(-0.869923 8.86334 1.63855)
(-5.00832 -2.86462 2.15912)
(1.40514 0.377134 5.41221)
(0.958928 -0.0401206 0.00398033)
(1.60307 9.29577 -3.74292)
(-1.01246 -4.5783 -1.50529)
(0.0691194 -0.648047 -0.418313)
(19.3577 -3.44042 -42.2037)
(-0.280571 -4.29974 1.25968)
(7.70374 14.5727 -5.63575)
(8.93214 12.8071 8.72868)
(-0.550245 -7.49914 -5.88117)
(20.7136 2.59997 16.0864)
(-17.9653 10.7014 -3.76269)
(-7.95375 -3.23963 0.980403)
(-0.664961 1.10701 -1.32743)
(-3.93377 1.84849 -0.719339)
(-6.28607 1.14049 -4.36768)
(-13.0529 -9.79646 -29.9226)
(-3.31923 -28.6971 -2.51584)
(2.55096 -3.70928 2.91853)
(7.98748 0.954797 4.95347)
(3.61236 -0.873271 -1.38611)
(1.57068 0.52604 -4.16197)
(3.59135 7.59971 9.99913)
(3.40048 -13.1391 -7.4981)
(-2.99689 0.25239 -1.21524)
(-0.179447 7.47478 -5.49242)
(4.26787 6.18478 10.5437)
(0.542306 -5.38496 3.50874)
(12.7667 -7.17711 -11.7474)
(11.4564 7.93004 1.09156)
(-5.19676 8.35721 5.66606)
(-3.76554 -3.89269 6.82817)
(1.22102 0.68884 2.66213)
(15.3989 14.6367 10.9001)
(0.142359 -0.365667 0.317716)
(3.22075 4.02757 1.42845)
(5.38542 6.57484 -12.8353)
(-0.655127 8.18613 -1.4222)
(27.5443 -5.51163 7.7817)
(-2.09967 -4.63238 0.388545)
(-6.83914 -0.195125 -1.58037)
(-0.504191 -1.36922 -3.40023)
(3.20596 -1.87684 0.112484)
(-11.715 4.28359 6.38252)
(-6.58374 0.389142 0.337114)
(-8.26132 0.617518 6.08227)
(0.396682 12.035 13.5066)
(-0.896377 10.3103 9.94774)
(2.02108 -1.85864 0.543221)
(-4.22711 2.24727 0.0352566)
(0.694045 -0.789071 3.03032)
(2.11718 13.1543 -1.55871)
(3.65066 0.929061 -23.1006)
(3.07735 5.01871 -11.9469)
(8.59528 4.51842 10.4337)
(3.02656 5.06207 -0.941356)
(1.65495 -0.333682 0.157911)
(1.61628 7.40718 -7.88867)
(-5.07753 -4.02995 -3.69863)
(35.6071 -10.5363 -1.72773)
(2.67082 0.484144 1.02383)
(6.76665 13.7773 -3.79918)
(-0.53238 0.361054 -1.09486)
(-8.52486 15.8411 -4.19916)
(-5.60341 0.0387315 -11.0686)
(-2.52392 -5.59567 -12.1109)
(-1.84578 -2.53591 35.5983)
(-0.552877 -0.987668 1.61063)
(-0.0436082 0.100023 -0.0108536)
(-3.6138 0.960316 0.804085)
(5.22417 3.79212 -9.94383)
(-0.35963 -0.274199 -1.1217)
(23.6013 7.98436 -9.91785)
(-13.3294 9.85603 -4.69445)
(-4.61757 0.418056 -0.666226)
(1.36259 -0.137711 -2.97049)
(12.5305 -0.398949 7.03086)
(12.284 -4.07451 -0.576361)
(1.43426 -1.39159 -0.638093)
(1.59537 3.03619 2.30053)
(0.20139 -6.85737 8.00615)
(13.862 -0.294603 -3.58888)
(13.6506 2.77763 10.7263)
(-0.595892 -5.42084 1.18362)
(-6.14223 -14.5526 -7.85947)
(-1.17165 -1.73448 2.14666)
(-4.01751 15.4404 -5.42988)
(14.8966 -15.1032 11.9303)
(-0.46344 0.2977 1.37129)
(3.62506 -2.45628 -12.4285)
(10.5407 5.94545 21.5967)
(1.996 1.0028 3.54859)
(-2.98525 -6.53308 3.78935)
(-15.6884 -24.0372 16.712)
(15.6423 1.32135 -14.3279)
(0.314686 0.0404453 -0.128716)
(1.0232 7.82921 -12.1257)
(-0.080985 6.16469 6.07622)
(-4.06506 -2.39466 -0.781458)
(2.97135 2.96149 -3.7857)
(-27.3518 -8.84278 -4.75335)
(-1.35388 4.63276 -4.3118)
(-4.26925 0.252006 -0.567105)
(-0.624278 0.131816 4.73562)
(21.5257 -11.081 7.94174)
(-0.504942 -2.76636 -2.20993)
(2.79238 -0.795503 -0.163721)
(-5.5257 6.77065 10.1011)
(-0.786784 -1.88569 -0.0131172)
(3.33361 -3.21517 -6.46579)
(-1.25147 -2.76988 10.349)
(0.573376 -0.672072 -0.209604)
(1.74624 0.885206 -6.47205)
(2.11905 1.24184 0.585673)
(-0.383722 8.60194 -10.0007)
(6.01231 7.6016 -7.45914)
(-0.162235 1.02813 1.48689)
(6.89404 17.4011 14.173)
(12.3734 -9.41398 5.93825)
(-1.36811 -0.691541 1.05169)
(-1.25241 -1.01765 7.55375)
(13.4739 0.0754627 0.652241)
(3.57518 -0.180419 -0.410154)
(-0.229498 -1.52915 -0.22791)
(5.01539 -2.32106 3.68453)
(-1.71179 4.46172 7.38535)
(-3.18706 2.76664 1.11126)
(-1.71409 -0.3159 -0.207844)
(8.76979 2.44107 -10.3692)
(3.00384 5.64976 7.2705)
(-4.32515 7.49063 -9.64848)
(-0.18596 -0.190902 0.0931822)
(-0.246765 -0.699953 3.52997)
(2.82205 -8.88983 4.16929)
(-1.04397 11.6378 -3.49198)
(6.55287 8.11926 -7.59177)
(1.53104 -0.840497 3.5826)
(-0.0110082 -0.109197 -0.02732)
(2.60311 12.8259 -13.2347)
(-6.78432 0.0671226 -5.77379)
(-1.70608 -0.364598 1.35472)
(4.91763 0.819266 11.7239)
(0.416643 -1.56262 -0.880545)
(2.39972 -2.73187 17.0336)
(-5.37625 -1.97717 -0.491206)
(-0.125958 -1.83224 3.78235)
(-1.03078 -17.3815 -4.05028)
(-4.80572 1.16896 -4.15852)
(-1.12064 -1.9171 13.6294)
(8.92019 1.87631 1.47388)
(2.80903 3.04759 2.94554)
(5.95731 -6.74702 -1.977)
(-0.207194 -8.12661 7.11587)
(12.5017 8.11011 -1.47811)
(-2.27568 7.08965 2.11785)
(10.5306 13.8142 2.31806)
(5.75849 4.60854 3.13127)
(1.44554 9.52559 3.14705)
(-0.390636 1.2546 -0.105355)
(-0.0732364 -1.5934 -1.50529)
(-0.101497 13.1793 10.0712)
(-6.0344 3.05359 2.86109)
(-1.16129 6.30508 -1.4406)
(2.89276 8.30412 -1.6195)
(2.07291 -27.1438 -15.2828)
(1.95696 12.06 -3.66496)
(-0.00807133 -0.0719407 -0.00841321)
(-2.32111 -17.692 3.62913)
(-5.00301 -10.3731 3.84667)
(-2.0984 -0.34833 -0.096994)
(1.1042 22.8676 -11.3484)
(18.0696 30.9053 -7.58588)
(-11.8709 26.2724 -8.88091)
(-3.9027 40.7644 2.78506)
(-21.6838 6.178 -28.1131)
(8.69295 9.61979 -8.3651)
(5.24022 16.9693 2.29051)
(-3.55858 30.0159 -21.249)
(-0.247811 7.03905 0.0626142)
(-7.48701 6.78633 -0.765208)
(22.8428 21.2701 -5.19055)
(-37.4204 25.8114 2.17186)
(2.40252 7.18865 2.92321)
(18.0501 30.8718 -7.57767)
(-5.26407 -2.42017 13.4237)
(-23.1791 20.3172 13.7302)
(-15.0858 16.6779 -16.3044)
(-2.76882 16.531 -6.43058)
(11.4725 24.0757 -0.576482)
(-11.6449 23.9257 -16.2685)
(6.12181 11.5802 -4.47848)