/*--------------------------------*- C++ -*----------------------------------*\
  =========                 |
  \\      /  F ield         | OpenFOAM: The Open Source CFD Toolbox
   \\    /   O peration     | Website:  https://openfoam.org
    \\  /    A nd           | Version:  7
     \\/     M anipulation  |
\*---------------------------------------------------------------------------*/
FoamFile
{
    version     2.0;
    format      ascii;
    class       scalarField;
    location    "0.1125/lagrangian/reactingCloud1";
    object      age;
}
// * * * * * * * * * * * * * * * * * * * * * * * * * * * * * * * * * * * * * //


527
(
0.007005
0.006477
0.006333
0.006813
0.006741
0.006453
0.006213
0.006285
0.006525
0.008205
0.006141
0.006237
0.006117
0.006261
0.006045
0.007725
0.006093
0.007413
0.006069
0.006429
0.006189
0.006309
0.006165
0.005877
0.006357
0.005853
0.006549
0.006021
0.006789
0.005997
0.005733
0.005949
0.005757
0.005925
0.005709
0.005613
0.005829
0.005781
0.005589
0.005661
0.005541
0.007461
0.005685
0.011325
0.005469
0.005445
0.005565
0.005517
0.005637
0.00558862
0.005901
0.005301
0.005493
0.005349
0.005397
0.005205
0.005325
0.005229
0.005133
0.005805
0.005277
0.005373
0.004965
0.005085
0.004989
0.005037
0.005013
0.005181
0.005109
0.002037
0.001605
0.001557
0.001533
0.001509
0.001485
0.001461
0.001437
0.001413
0.001389
0.001365
0.001341
0.001317
0.001293
0.001269
0.001245
0.001221
0.001197
0.001173
0.001149
0.001125
0.001101
0.001077
0.001053
0.001029
0.001005
0.000981
0.000957
0.000933
0.000909
0.000885
0.000861
0.000837
0.000813
0.000789
0.000765
0.000741
0.000717
0.000693
0.000669
0.000645
0.000621
0.000597
0.000573
0.000549
0.000525
0.000501
0.000477
0.000453
0.000429
0.000405
0.000381
0.000380625
0.000357
0.000333
0.000309
0.000285
0.000261
0.000237
0.000213
0.000189
0.000165
0.000141
0.000117
9.3e-05
6.9e-05
4.5e-05
2.1e-05
0.006645
0.003837
0.004293
0.004197
0.004749
0.002949
0.002901
0.002829
0.002781
0.002853
0.002757
0.002709
0.002733
0.002685
0.002661
0.003165
0.002613
0.002589
0.002565
0.002541
0.002493
0.002517
0.002469
0.002421
0.002349
0.002373
0.002301
0.002325
0.002445
0.003093
0.002253
0.002205
0.002181
0.002229
0.002133
0.002085
0.002109
0.002157
0.002013
0.001989
0.001965
0.002637
0.002277
0.001917
0.001893
0.001845
0.001869
0.002061
0.001821
0.001797
0.001773
0.001941
0.002397
0.001701
0.001677
0.001725
0.001653
0.001629
0.001581
0.001749
0.008109
0.004893
0.004437
0.004221
0.004053
0.004029
0.003981
0.004005
0.004125
0.004101
0.003909
0.003885
0.003933
0.003957
0.003813
0.003717
0.003861
0.003789
0.003765
0.003645
0.003669
0.003693
0.003741
0.003621
0.003501
0.003525
0.003405
0.003429
0.003573
0.003549
0.003597
0.003381
0.003477
0.003309
0.003357
0.003237
0.003117
0.003141
0.003189
0.003285
0.003261
0.003213
0.003021
0.00302062
0.003333
0.003453
0.003045
0.002877
0.002997
0.002925
0.003069
0.002973
0.002805
0.005157
0.005421
0.005061
0.004797
0.004869
0.004941
0.004701
0.005253
0.004677
0.004821
0.004725
0.004773
0.004653
0.004581
0.004557
0.004509
0.004485
0.004629
0.004461
0.004605
0.004845
0.004533
0.004389
0.004317
0.004269
0.004917
0.004365
0.004173
0.004413
0.004149
0.005973
0.004341
0.004245
0.00429262
0.004077
0.012429
0.012285
0.011997
0.012357
0.011949
0.012117
0.011925
0.011853
0.012093
0.011733
0.011685
0.012333
0.011781
0.011637
0.011757
0.011901
0.011541
0.011469
0.011565
0.011517
0.011829
0.011805
0.011877
0.011421
0.011589
0.011373
0.011493
0.011397
0.011709
0.011301
0.012237
0.011661
0.011613
0.011349
0.011133
0.011973
0.012141
0.011445
0.012045
0.010989
0.011157
0.012165
0.011229
0.011037
0.010941
0.010845
0.010893
0.010749
0.011205
0.010821
0.012021
0.010701
0.010869
0.010797
0.010725
0.010557
0.011277
0.010653
0.010509
0.010773
0.011181
0.010677
0.011109
0.010485
0.011085
0.011061
0.010581
0.010533
0.010293
0.010461
0.010629
0.011253
0.010341
0.010173
0.010197
0.010917
0.010221
0.010389
0.010365
0.010437
0.010005
0.010245
0.009981
0.010317
0.010053
0.010605
0.009861
0.009693
0.010149
0.009717
0.010077
0.010101
0.010413
0.009621
0.009645
0.009573
0.009549
0.0102206
0.009765
0.009813
0.009789
0.009669
0.009909
0.009933
0.009837
0.009741
0.010125
0.009597
0.009957
0.009453
0.009501
0.010029
0.010269
0.009309
0.009477
0.009429
0.009405
0.009357
0.009285
0.009237
0.009333
0.011013
0.009069
0.009021
0.009045
0.009213
0.009381
0.008949
0.008901
0.008973
0.008853
0.008877
0.009165
0.009141
0.009117
0.008997
0.008805
0.008733
0.008637
0.008661
0.012261
0.008685
0.008781
0.009189
0.009093
0.008517
0.009261
0.008709
0.008757
0.008541
0.008493
0.008589
0.008373
0.008925
0.008445
0.008829
0.008397
0.008253
0.008229
0.008085
0.008277
0.008037
0.007989
0.008061
0.007917
0.008349
0.008157
0.008565
0.009885
0.007821
0.007893
0.008613
0.008421
0.007797
0.008325
0.007749
0.007965
0.008133
0.007773
0.00760462
0.007629
0.008469
0.007509
0.007845
0.008181
0.007485
0.007653
0.007341
0.008301
0.007581
0.007269
0.007293
0.007221
0.007605
0.007317
0.007677
0.007197
0.008013
0.007245
0.007437
0.009525
0.007101
0.007389
0.006981
0.006957
0.007053
0.007149
0.007869
0.007701
0.007029
0.007125
0.006933
0.006909
0.007533
0.007557
0.006693
0.006861
0.00698062
0.010965
0.007173
0.006765
0.006597
0.007365
0.006621
0.006717
0.007077
0.007941
0.006885
0.006501
0.006381
0.006405
0.006669
0.006837
0.006573
0.012477
0.012453
0.012381
0.012309
0.012405
0.012189
0.012213
0.012069
)


// ************************************************************************* //
