/*--------------------------------*- C++ -*----------------------------------*\
  =========                 |
  \\      /  F ield         | OpenFOAM: The Open Source CFD Toolbox
   \\    /   O peration     | Website:  https://openfoam.org
    \\  /    A nd           | Version:  7
     \\/     M anipulation  |
\*---------------------------------------------------------------------------*/
FoamFile
{
    version     2.0;
    format      ascii;
    class       labelField;
    location    "0.1125/lagrangian/reactingCloud1";
    object      cellId;
}
// * * * * * * * * * * * * * * * * * * * * * * * * * * * * * * * * * * * * * //


527
(
159
21
18
88
120
87
47
52
155
119
113
147
150
153
146
189
185
183
185
224
257
260
255
251
258
250
292
330
365
363
358
361
395
398
430
423
432
465
463
501
498
539
501
576
568
568
607
642
678
713
713
707
747
743
781
809
813
811
835
870
868
925
941
947
1001
1028
1027
1029
1057
880
1021
1029
1017
985
985
972
951
926
911
912
895
863
841
846
830
811
789
783
761
741
722
714
692
621
662
653
622
611
591
569
550
550
523
508
489
469
441
446
428
406
396
371
320
342
323
312
317
260
279
247
238
221
201
202
189
80
173
147
123
101
104
94
66
41
41
25
13
795
935
735
935
878
1038
1038
998
1043
836
918
1028
959
1006
898
696
942
858
902
881
883
837
757
757
804
737
784
717
677
636
719
751
702
617
617
666
639
617
623
630
607
495
557
589
541
525
518
476
528
503
485
498
436
439
442
416
429
406
384
396
820
500
1023
1024
1008
967
969
968
863
864
910
911
888
784
767
730
643
665
645
694
670
606
523
505
531
466
498
472
404
404
361
368
343
306
241
267
254
230
227
183
163
143
128
128
101
81
85
96
86
89
61
44
10
491
490
436
458
489
517
511
543
539
544
569
625
650
647
702
728
755
760
810
815
816
896
892
916
968
1033
340
346
340
306
279
240
221
200
204
111
144
145
191
185
231
188
182
182
183
225
313
270
226
228
268
268
306
307
307
394
357
353
308
309
304
350
348
350
348
344
390
392
348
345
434
434
390
557
427
432
558
427
471
469
466
504
504
555
509
597
505
551
552
592
545
635
589
590
593
632
633
630
631
633
675
670
669
667
673
672
713
710
707
709
712
710
711
752
755
749
792
790
792
831
832
828
825
872
868
866
874
961
909
911
908
907
911
908
955
984
952
954
953
956
953
25
10
43
23
22
40
61
7
20
21
38
39
36
38
94
133
91
90
91
126
123
92
93
123
123
125
159
159
196
232
191
264
192
193
338
261
158
263
264
223
227
219
226
262
262
297
293
287
329
474
366
362
398
362
355
394
393
430
429
504
466
461
575
459
464
460
502
496
536
532
535
605
604
602
601
632
627
663
632
660
692
658
690
683
687
687
714
719
714
749
716
783
747
810
777
775
808
801
799
805
807
840
837
835
837
834
862
867
925
884
920
954
989
955
950
944
953
948
981
1009
1010
1009
1005
1025
1029
1033
1034
1053
1022
1036
1045
1046
1044
1044
1052
1053
)


// ************************************************************************* //
