/*--------------------------------*- C++ -*----------------------------------*\
  =========                 |
  \\      /  F ield         | OpenFOAM: The Open Source CFD Toolbox
   \\    /   O peration     | Website:  https://openfoam.org
    \\  /    A nd           | Version:  7
     \\/     M anipulation  |
\*---------------------------------------------------------------------------*/
FoamFile
{
    version     2.0;
    format      ascii;
    class       vectorField;
    location    "0.1125/lagrangian/reactingCloud1";
    object      coordinates;
}
// * * * * * * * * * * * * * * * * * * * * * * * * * * * * * * * * * * * * * //


527
(
(1.71386 0.110918 4.50597e-07)
(1.81699 0.0670955 -1.77299e-07)
(1.80764 0.0477642 1.87569e-14)
(1.75631 0.0868113 -3.42517e-07)
(1.73665 0.0890012 -2.04234e-07)
(1.7629 0.0803707 -1.63788e-07)
(1.77611 0.0289668 9.35661e-14)
(1.77631 0.0596949 5.18653e-07)
(1.70373 0.0864454 7.6804e-08)
(1.72903 0.0819303 1.55337e-07)
(1.72941 0.0430759 3.03578e-13)
(1.71233 0.0325943 7.41607e-07)
(1.70442 0.0537699 -1.41772e-07)
(1.69717 0.0739831 1.81143e-09)
(1.70165 0.0264214 -1.77458e-14)
(1.68294 0.0829836 4.84594e-08)
(1.68236 0.0527749 -9.21187e-08)
(1.68627 0.0378924 -1.73393e-07)
(1.6824 0.0523241 5.30619e-07)
(1.65103 0.0802928 -8.61082e-08)
(1.64273 0.0652857 6.20657e-07)
(1.63583 0.0863374 -1.76452e-07)
(1.63437 0.056045 1.18416e-08)
(1.62786 0.0290237 -3.59167e-13)
(1.62148 0.072188 -4.93782e-07)
(1.62128 0.0201394 9.93947e-15)
(1.59981 0.0705502 3.8611e-07)
(1.58066 0.0852554 -1.50899e-07)
(1.56041 0.0888191 8.66172e-08)
(1.57071 0.0759847 -9.52857e-09)
(1.55433 0.0392622 -3.86519e-15)
(1.55391 0.0635799 2.42158e-07)
(1.5339 0.0523021 4.71837e-08)
(1.53852 0.0725724 -3.30921e-07)
(1.52123 0.053913 -1.38494e-12)
(1.5199 0.0102631 -3.35004e-13)
(1.51635 0.0689634 4.5893e-09)
(1.49612 0.0510612 5.94781e-07)
(1.49146 0.0384347 1.09549e-13)
(1.48115 0.059633 3.67185e-07)
(1.4715 0.0381526 1.07742e-13)
(1.45459 0.0816191 -9.82654e-08)
(1.46954 0.0615537 3.54407e-07)
(1.44459 0.0930213 5.82963e-07)
(1.43635 0.0398727 -3.6774e-12)
(1.43187 0.0352474 -1.49543e-12)
(1.42275 0.0687954 7.38857e-08)
(1.39088 0.0634334 -8.26523e-08)
(1.37603 0.0825704 -4.25703e-08)
(1.35946 0.0826311 -9.57692e-08)
(1.36571 0.0869793 -3.12869e-10)
(1.35715 0.045452 -1.25988e-13)
(1.343 0.0873538 -2.82681e-08)
(1.35116 0.0565061 -2.03339e-08)
(1.32467 0.0866438 2.00214e-07)
(1.317 0.0438881 -8.55912e-13)
(1.31105 0.0693413 1.35626e-07)
(1.30074 0.0564969 4.22784e-11)
(1.29057 0.0395814 -8.84762e-12)
(1.2765 0.0889622 -3.75023e-07)
(1.26907 0.0760427 -2.66885e-07)
(1.24435 0.0930794 -3.41979e-07)
(1.22853 0.0267305 -8.12901e-12)
(1.2237 0.0659177 6.62562e-08)
(1.20329 0.0637273 2.53238e-07)
(1.18951 0.0670044 -1.54056e-07)
(1.17957 0.0541145 1.53923e-07)
(1.17861 0.0705668 -9.44792e-08)
(1.16724 0.0787496 4.943e-08)
(0.398015 0.143378 -1.09997e-07)
(0.426415 0.143451 8.3227e-08)
(0.423185 0.0789033 1.62804e-11)
(0.418155 0.0175742 3.6085e-12)
(0.418121 0.113027 -7.46817e-12)
(0.415395 0.107679 -5.92776e-13)
(0.409331 0.0529205 1.23128e-12)
(0.406851 0.0616271 8.80339e-12)
(0.405149 0.101515 -1.12118e-11)
(0.400143 0.0638633 -1.12076e-11)
(0.39678 0.055923 -7.46783e-12)
(0.392603 0.0304825 3.06997e-13)
(0.393439 0.118721 -1.21552e-10)
(0.389081 0.131868 -4.37924e-12)
(0.385428 0.0949617 -8.99373e-11)
(0.380183 0.0672971 -1.92205e-11)
(0.375766 0.0565072 -5.83714e-12)
(0.372749 0.0734658 -1.75148e-11)
(0.372794 0.116636 -5.08013e-11)
(0.369902 0.124096 -1.12862e-10)
(0.364335 0.127523 -2.90298e-12)
(0.362476 0.116209 -1.98666e-11)
(0.353718 0.0357574 -2.63676e-12)
(0.350543 0.0470781 -4.28302e-11)
(0.337017 0.123568 4.88436e-07)
(0.346796 0.115438 -8.15632e-11)
(0.339303 0.0445316 -1.96027e-12)
(0.338206 0.113647 -8.72243e-11)
(0.331315 0.0561067 -1.68466e-12)
(0.328234 0.0565331 -1.03692e-11)
(0.324356 0.0706717 -4.22414e-11)
(0.32061 0.0589177 3.69387e-14)
(0.316479 0.0623509 3.06043e-12)
(0.313276 0.108017 2.75968e-11)
(0.3085 0.0740305 6.36876e-12)
(0.304963 0.0647043 -6.37498e-11)
(0.301146 0.0655561 -1.03146e-11)
(0.297538 0.121833 -3.14321e-11)
(0.29377 0.089492 -1.32542e-13)
(0.288968 0.0758637 2.18946e-12)
(0.285108 0.088434 -9.21386e-12)
(0.28053 0.0238216 -1.52137e-13)
(0.277641 0.051845 1.46945e-13)
(0.266504 0.124744 -6.7515e-12)
(0.269568 0.114331 2.76544e-11)
(0.265887 0.109133 -2.75345e-11)
(0.261648 0.050349 -2.25246e-12)
(0.257412 0.019311 3.99722e-14)
(0.252643 0.122839 -3.70048e-12)
(0.248984 0.00104552 -2.10337e-15)
(0.245854 0.0800417 -1.69314e-12)
(0.241285 0.00890613 1.76848e-12)
(0.241639 0.120874 -7.35687e-13)
(0.238009 0.121496 1.21779e-11)
(0.233328 0.109859 -1.8751e-12)
(0.229848 0.0667448 -3.42127e-12)
(0.203203 0.128498 2.33752e-13)
(0.222172 0.0400029 7.88073e-13)
(0.21734 0.0780664 -1.07898e-12)
(0.213229 0.104928 -1.04261e-12)
(0.209728 0.11865 5.37888e-12)
(0.206351 0.097381 -2.25098e-13)
(0.20199 0.0350697 3.1262e-13)
(0.197672 0.0884517 -7.14444e-13)
(0.194228 0.118912 1.86847e-11)
(0.190403 0.117844 1.01639e-12)
(0.18643 0.0905729 -4.30582e-13)
(0.182431 0.0407673 1.47407e-12)
(0.517621 0.157052 2.50225e-07)
(0.545338 0.150504 -6.37399e-07)
(0.504965 0.160308 5.24059e-08)
(0.546053 0.149728 1.86988e-07)
(0.532225 0.127594 -1.75878e-07)
(0.567768 0.125484 -7.40908e-11)
(0.565609 0.12178 1.13327e-10)
(0.557098 0.123583 6.41821e-11)
(0.565325 0.0857808 3.70284e-11)
(0.525247 0.144777 3.81778e-07)
(0.543191 0.132231 -3.66956e-07)
(0.561766 0.0517198 8.35274e-12)
(0.548031 0.12181 -6.75125e-12)
(0.557363 0.0675231 5.06724e-11)
(0.536107 0.130371 -1.23541e-11)
(0.494171 0.151905 -1.87377e-07)
(0.543232 0.0982269 -5.72921e-12)
(0.527769 0.132411 -7.44215e-13)
(0.537071 0.101411 1.04908e-10)
(0.533111 0.105923 1.77969e-12)
(0.530533 0.0926241 2.76452e-12)
(0.522802 0.136877 -2.67121e-07)
(0.506605 0.139739 -5.01585e-08)
(0.508828 0.13768 1.23227e-07)
(0.516006 0.081068 7.18353e-11)
(0.503668 0.139018 -1.2328e-07)
(0.510499 0.0840253 2.47809e-12)
(0.499119 0.139052 -5.60443e-07)
(0.493311 0.145672 -9.41498e-08)
(0.482011 0.154118 -1.65e-07)
(0.498353 0.125845 2.73211e-11)
(0.502465 0.0299311 5.05719e-12)
(0.495158 0.0990876 1.36093e-10)
(0.478518 0.145615 -1.11018e-06)
(0.478933 0.142416 3.53995e-08)
(0.486269 0.071182 2.07786e-11)
(0.483765 0.12419 8.6872e-11)
(0.478901 0.142342 -1.25232e-07)
(0.476773 0.0966107 2.06071e-12)
(0.476445 0.0357515 1.4734e-12)
(0.472815 0.0643926 4.99159e-11)
(0.45504 0.155946 3.17323e-08)
(0.463852 0.140121 4.11641e-07)
(0.467496 0.0482645 2.90418e-12)
(0.463121 0.107663 2.3462e-12)
(0.458019 0.0788346 -5.20676e-12)
(0.457494 0.132953 1.35508e-10)
(0.450553 0.149707 -7.23298e-08)
(0.455278 0.0527141 -8.22233e-12)
(0.452876 0.0953969 1.02778e-10)
(0.449442 0.0794718 2.96031e-11)
(0.451719 0.133311 -3.1754e-07)
(0.442633 0.151685 2.47368e-07)
(0.44056 0.127264 3.1495e-10)
(0.438618 0.0983813 -5.22549e-11)
(0.437268 0.145744 3.07265e-07)
(0.434163 0.0458415 -1.0598e-12)
(0.431643 0.0631638 7.4377e-11)
(0.425775 0.0772524 1.16225e-12)
(0.430768 0.142627 -9.45571e-08)
(0.75909 0.0992185 2.1357e-07)
(0.677809 0.11817 -1.22395e-07)
(0.81398 0.086063 -6.59036e-08)
(0.814514 0.0821019 7.31828e-07)
(0.808616 0.0620898 -1.22044e-10)
(0.795008 0.0664235 3.21949e-07)
(0.79884 0.0525284 -2.76266e-13)
(0.794564 0.0605772 6.83824e-13)
(0.768858 0.0842499 1.04207e-07)
(0.770356 0.0815935 -4.87065e-07)
(0.781711 0.048081 2.6558e-11)
(0.779983 0.0423992 -1.90006e-11)
(0.773095 0.0610508 -1.8277e-10)
(0.747312 0.0797102 -2.86986e-07)
(0.737743 0.0638893 7.74808e-11)
(0.729928 0.0477009 -6.01729e-11)
(0.709883 0.0899248 -6.4533e-08)
(0.714134 0.0791671 5.13709e-11)
(0.712015 0.077582 9.69458e-12)
(0.722082 0.0282506 1.19792e-11)
(0.714115 0.0540917 5.73922e-12)
(0.701766 0.0747975 3.01261e-11)
(0.681686 0.097897 -5.48364e-11)
(0.680566 0.0840837 -7.2283e-12)
(0.68055 0.0516039 9.85027e-12)
(0.667668 0.0814916 1.4449e-11)
(0.672307 0.0116841 1.43626e-11)
(0.670673 0.0431028 4.00421e-13)
(0.658053 0.0999646 9.33359e-13)
(0.656239 0.0987336 6.74993e-11)
(0.647347 0.118074 2.16727e-07)
(0.648138 0.0763561 4.27226e-11)
(0.640907 0.105013 -6.81704e-12)
(0.632344 0.0867005 5.73431e-11)
(0.623487 0.128842 -3.74679e-08)
(0.62315 0.0861773 -1.08361e-11)
(0.620246 0.0393956 4.0068e-11)
(0.617979 0.0644939 -2.15531e-12)
(0.615387 0.0885125 4.50185e-12)
(0.607601 0.117386 -1.84692e-11)
(0.603215 0.1197 3.12996e-11)
(0.599583 0.118362 -2.83385e-11)
(0.595232 0.0853443 1.2046e-10)
(0.595309 0.0840031 4.02496e-11)
(0.590982 0.132387 -5.12851e-08)
(0.587308 0.135812 -1.88746e-07)
(0.587953 0.108882 8.93968e-11)
(0.587406 0.0225263 -4.29895e-13)
(0.586561 0.100204 -2.98442e-13)
(0.585388 0.0763385 -4.45364e-12)
(0.584242 0.139511 -2.2181e-07)
(0.578499 0.112491 1.55978e-10)
(0.571124 0.0706054 -4.74162e-12)
(1.13539 0.0780585 -5.71578e-07)
(1.12949 0.0719159 -8.86456e-08)
(1.15042 0.0681314 -7.14793e-07)
(1.14873 0.0352152 -5.24615e-14)
(1.13001 0.0635101 4.17195e-08)
(1.1191 0.0701166 -6.03282e-08)
(1.11142 0.0270867 -1.74918e-14)
(1.09968 0.0611612 -5.11007e-07)
(1.09799 0.0338057 -4.96391e-14)
(1.09811 0.0697426 -1.57708e-07)
(1.087 0.0559329 1.27882e-14)
(1.06882 0.0714729 -1.41135e-07)
(1.05554 0.0560209 2.55007e-14)
(1.05438 0.036558 5.53438e-12)
(1.03559 0.0439127 1.25601e-13)
(1.02528 0.0343616 2.00052e-12)
(1.01472 0.0356086 3.47759e-12)
(1.01105 0.070679 -2.82921e-07)
(0.994192 0.0438675 2.30955e-12)
(0.987067 0.0726909 1.08924e-07)
(0.986165 0.0814779 -4.5024e-08)
(0.95955 0.0733639 -9.60895e-08)
(0.955805 0.0495482 1.52325e-12)
(0.94674 0.0310307 -9.70121e-14)
(0.935288 0.0191035 -1.04922e-12)
(0.914282 0.0839901 4.24392e-08)
(0.886934 0.0774974 -7.39278e-08)
(0.883995 0.0387964 -1.62256e-11)
(0.881347 0.0773218 -2.47014e-07)
(0.870642 0.0430382 4.6846e-13)
(0.858129 0.0857537 5.03806e-07)
(0.846009 0.0803023 -8.45667e-09)
(0.840461 0.0745597 6.02626e-08)
(0.837238 0.0784463 -2.76642e-08)
(0.834115 0.0512722 -6.95739e-11)
(4.3632 0.106941 4.78599e-07)
(4.32965 0.0340397 -9.04325e-08)
(4.30751 0.038396 -2.89517e-09)
(4.22941 0.0723863 9.02008e-07)
(4.28645 0.0202016 -1.2678e-07)
(4.21681 0.0560867 2.82993e-08)
(4.23383 0.048807 1.58945e-07)
(4.25651 4.73721e-07 2.01114e-09)
(4.27997 0.000604999 1.09023e-07)
(4.23145 0.0119334 -3.38588e-08)
(4.17385 0.0073028 -3.69706e-07)
(4.08314 0.0770162 -6.23818e-07)
(4.15899 0.0474788 6.6388e-08)
(4.17629 0.0148553 -2.92812e-07)
(4.18462 0.0327032 5.39774e-08)
(4.13545 0.031458 -3.53231e-07)
(4.11817 0.0268924 -5.27795e-07)
(4.10259 0.0157064 2.56999e-07)
(4.09625 0.0231693 -3.77967e-07)
(4.0956 0.0225743 -3.39761e-07)
(3.98085 0.0776269 7.35707e-07)
(3.9991 0.109694 4.16173e-07)
(4.01564 0.0749785 -1.98666e-07)
(4.06307 0.0297545 -2.93347e-07)
(4.05246 0.0362485 5.73404e-07)
(4.07874 1.1818e-10 5.23771e-13)
(4.02636 0.0460635 -2.32751e-07)
(4.01671 0.0281371 1.08203e-07)
(4.03135 0.0477344 -4.39232e-07)
(4.02575 0.0314656 -4.02026e-08)
(4.01846 4.42343e-11 -3.58346e-14)
(3.9836 0.0446366 -1.46453e-07)
(3.9553 0.0611906 1.60304e-07)
(3.98787 0.0289881 4.64312e-07)
(4.03013 0.011382 6.10954e-07)
(3.92299 0.077033 7.3942e-08)
(3.91934 0.0772769 5.48523e-08)
(3.96817 0.0421686 6.15615e-08)
(3.75556 0.101818 1.91578e-08)
(3.9212 0.0192284 4.40148e-07)
(3.87203 0.0604035 1.70569e-07)
(3.73541 0.111986 2.84355e-07)
(3.8778 0.0235983 -1.03054e-07)
(3.86067 0.0559682 4.20701e-07)
(3.83536 0.034425 -9.80035e-08)
(3.82856 0.0133522 3.82736e-07)
(3.80366 0.00302307 -1.50861e-07)
(3.79275 0.00450646 -1.57528e-14)
(3.72482 0.0915505 -4.45113e-07)
(3.79606 0.0362645 6.76077e-07)
(3.67392 0.104019 -6.80963e-07)
(3.76913 0.00656622 1.02544e-07)
(3.74695 0.0516832 3.76054e-07)
(3.73638 0.0621975 2.26587e-07)
(3.6814 0.063796 -3.52582e-10)
(3.70821 0.0109259 -3.38465e-14)
(3.64426 0.0861898 -4.785e-07)
(3.68498 0.0375215 -9.94137e-08)
(3.69364 0.0422068 -2.04108e-07)
(3.64695 0.0696009 5.75272e-07)
(3.61882 0.0562012 -2.98296e-07)
(3.60432 0.0671481 3.58289e-07)
(3.61803 0.0461161 -1.59793e-07)
(3.60921 0.0494885 1.83706e-07)
(3.5916 0.0689378 -5.91192e-09)
(3.57079 0.0836223 6.20565e-08)
(3.5887 0.0435963 -1.04444e-08)
(3.58111 0.0389895 3.04525e-07)
(3.58351 0.0207921 -2.60989e-08)
(3.54743 0.0727682 -1.9735e-07)
(3.54257 0.0593858 4.64898e-08)
(3.52542 0.0641625 4.97563e-07)
(3.52864 0.0441885 4.45909e-08)
(3.52655 0.0240368 1.13845e-07)
(3.52367 0.0366389 2.86871e-08)
(3.49742 0.0616765 -8.9769e-12)
(3.50219 0.0399437 -3.0284e-08)
(3.48848 0.0502522 -3.59706e-07)
(3.47181 0.0621554 -9.67872e-08)
(3.43748 0.0816389 -5.286e-07)
(3.45176 0.0355334 5.89183e-08)
(3.41501 0.0581376 -1.81532e-07)
(3.42264 0.0418822 -4.61114e-07)
(3.39008 0.0592967 1.60664e-08)
(3.3765 0.0513206 -4.16313e-07)
(3.35844 0.060611 1.8091e-08)
(3.35422 0.024828 -3.51039e-07)
(3.35531 0.0104064 -2.85017e-07)
(3.32151 0.0604458 -3.18031e-08)
(3.32446 0.0270205 1.08149e-07)
(3.30109 0.0165634 -5.43952e-07)
(3.29266 0.0708566 -2.37904e-07)
(3.21444 0.122898 3.96236e-07)
(3.27036 0.03371 1.80809e-07)
(3.26075 0.0531357 -4.18684e-07)
(3.25731 0.0296807 1.51336e-07)
(3.2562 0.0192324 -6.12147e-13)
(3.23898 0.052952 6.44864e-08)
(3.23315 0.0300813 3.31459e-07)
(3.22169 0.0854109 1.0401e-07)
(3.16813 0.0977192 6.57907e-08)
(3.2216 0.0605169 -1.33214e-07)
(3.21727 0.078696 1.68038e-07)
(3.19343 0.0636203 1.67765e-07)
(3.1811 0.0940999 -2.73377e-07)
(3.18087 0.0636798 1.07531e-07)
(3.11271 0.0873477 -1.92586e-07)
(3.16486 0.0739405 -3.62892e-07)
(3.03769 0.0888091 2.42987e-07)
(3.1175 0.0706621 -3.33993e-07)
(3.12487 0.0691291 1.73705e-07)
(3.07874 0.0684695 6.17472e-09)
(3.02972 0.0878813 -2.32462e-07)
(3.13899 0.0468339 1.72048e-07)
(3.10189 0.044659 -1.72316e-08)
(3.09444 0.0564787 4.30595e-08)
(3.0526 0.0515563 -8.23261e-08)
(3.07013 0.0566024 -1.67549e-07)
(3.06794 0.032701 5.56671e-07)
(3.05863 0.0515544 -1.17565e-08)
(2.94322 0.0818326 9.62268e-08)
(2.89751 0.114607 -3.73407e-07)
(2.97371 0.055684 -3.47187e-07)
(2.98441 0.0500111 -4.68867e-08)
(2.96217 0.0549446 6.54038e-08)
(2.92026 0.0662803 4.12072e-07)
(2.89935 0.0374818 -7.53981e-07)
(2.94738 0.065237 1.86326e-07)
(2.943 0.0743988 -7.54415e-07)
(2.91515 0.042417 1.58169e-07)
(2.92615 0.0370503 -2.93339e-07)
(2.90574 0.0561611 -2.35409e-10)
(2.87914 0.0535611 3.39384e-07)
(2.88607 0.0521807 -1.93585e-07)
(2.81495 0.0753555 8.83885e-08)
(2.77732 0.0923745 3.56978e-07)
(2.83868 0.039588 -6.64208e-08)
(2.72733 0.0743026 -8.96303e-07)
(2.82801 0.0440697 -1.10945e-07)
(2.83202 0.0554808 1.29625e-07)
(2.63791 0.115364 1.03434e-07)
(2.75791 0.0578083 -6.7708e-07)
(2.85766 0.0441372 -3.11953e-07)
(2.73034 0.0716965 -9.51412e-07)
(2.75654 0.0770537 -1.55769e-07)
(2.79803 0.0235212 -1.58617e-13)
(2.76281 0.0561829 -5.85929e-08)
(2.77104 0.00424441 -1.56248e-07)
(2.76866 0.0453128 -8.81237e-09)
(2.73725 0.0646653 4.36695e-08)
(2.7285 0.0590768 -7.88928e-08)
(2.67938 0.0727644 9.8918e-07)
(2.69665 0.0398812 -4.08478e-08)
(2.69528 7.3796e-05 -2.69956e-08)
(2.6631 0.051685 -1.08333e-07)
(2.49285 0.113389 -5.30801e-07)
(2.5956 0.0757643 4.93277e-08)
(2.61868 0.0450921 -1.87696e-07)
(2.5875 0.0624104 -1.26024e-07)
(2.59576 0.0446903 7.74611e-08)
(2.60888 1.48736e-10 -1.12725e-12)
(2.57924 0.029596 -1.73971e-13)
(2.56336 0.0219927 -3.01181e-13)
(2.54817 0.0436903 5.70871e-08)
(2.52215 0.0366533 1.55686e-08)
(2.43809 0.0918728 -4.03713e-09)
(2.48717 0.0628652 -4.29632e-07)
(2.49655 0.0244467 1.20212e-07)
(2.3751 0.107228 1.92449e-07)
(2.49391 0.014603 -6.23854e-13)
(2.48741 0.0444688 1.20699e-07)
(2.47897 0.018589 2.09193e-07)
(2.46173 0.0778832 -5.09348e-07)
(2.47041 0.0330901 -1.12958e-13)
(2.42213 0.0756945 -5.87997e-07)
(2.43656 0.0448453 -9.34269e-08)
(2.41819 0.0668055 3.19748e-08)
(2.34661 0.0805011 -1.70529e-07)
(2.35056 0.0736467 -3.09544e-07)
(2.34858 0.0592904 4.75476e-08)
(2.33777 0.0496885 -3.79589e-08)
(2.30341 0.0656614 1.7969e-07)
(2.32189 0.0302659 -1.3165e-07)
(2.27068 0.0784205 -2.06506e-07)
(2.30057 0.0641882 7.78804e-07)
(2.27029 0.0548592 -2.32798e-07)
(2.22662 0.0823631 -9.23449e-09)
(2.2603 0.0415658 1.21756e-09)
(2.23342 0.0654203 1.5268e-07)
(2.25348 0.0171162 -2.54756e-07)
(2.2259 0.0441519 -5.65404e-08)
(2.2238 0.0446726 1.34744e-07)
(2.21814 0.030806 -7.14169e-13)
(2.1971 0.0694029 -6.69026e-07)
(2.20171 0.0319903 8.72774e-08)
(2.18313 0.0735277 -1.39902e-07)
(2.19244 0.044115 1.02422e-08)
(2.13217 0.105941 -3.63876e-07)
(2.16865 0.0562324 -1.94011e-07)
(2.11824 0.0930616 -2.23774e-07)
(2.14229 0.0639477 -1.13423e-08)
(2.12494 0.0531314 1.35142e-08)
(2.0994 0.0778562 8.13195e-08)
(2.11182 0.0303014 -3.94353e-14)
(2.1098 0.0182177 -6.20476e-14)
(2.10149 0.0541674 3.59792e-09)
(2.09814 0.0747946 -1.87674e-07)
(2.05743 0.0983084 2.35895e-07)
(2.06543 0.0812506 2.59119e-07)
(2.07377 0.0625557 2.17809e-07)
(2.05933 0.0760548 2.51736e-07)
(2.06747 0.0578346 8.40755e-08)
(2.03837 0.0520524 2.5234e-07)
(2.02691 0.085287 -5.13043e-07)
(1.98685 0.0888852 4.79007e-08)
(1.9958 0.00563602 -5.72364e-14)
(1.97357 0.0515305 1.981e-07)
(1.9525 0.0847123 -1.69994e-07)
(1.92902 0.116079 -6.49706e-07)
(1.94515 0.0896425 -2.9947e-09)
(1.95774 0.0596768 2.93666e-07)
(1.95206 0.0159986 7.54856e-14)
(1.93514 0.0755707 1.81637e-07)
(1.93805 0.0438986 2.75145e-13)
(1.91993 0.0702087 -6.18576e-07)
(1.90416 0.0783684 1.42751e-08)
(1.89916 0.085443 -9.32493e-09)
(1.88893 0.0790188 5.23328e-08)
(1.88349 0.0457546 -2.80886e-14)
(1.85941 0.0119931 -4.60732e-14)
(1.85636 0.0319261 4.01127e-14)
(1.85186 0.0627746 -2.17481e-07)
(1.85214 0.0713035 -5.62672e-07)
(1.8346 0.0541395 4.30244e-07)
(4.57095 1.30809e-10 -1.01477e-12)
(4.50286 0.0352187 9.02932e-08)
(4.46321 0.0203288 -1.32563e-07)
(4.42618 0.034833 5.37036e-08)
(4.42322 0.0158128 5.88334e-07)
(4.41862 0.0172308 -3.02558e-08)
(4.37531 0.00311766 4.7474e-07)
(4.36909 0.0119259 -1.09266e-07)
)


// ************************************************************************* //
