/*--------------------------------*- C++ -*----------------------------------*\
  =========                 |
  \\      /  F ield         | OpenFOAM: The Open Source CFD Toolbox
   \\    /   O peration     | Website:  https://openfoam.org
    \\  /    A nd           | Version:  7
     \\/     M anipulation  |
\*---------------------------------------------------------------------------*/
FoamFile
{
    version     2.0;
    format      ascii;
    class       labelField;
    location    "0.1125/lagrangian/reactingCloud1";
    object      origId;
}
// * * * * * * * * * * * * * * * * * * * * * * * * * * * * * * * * * * * * * //


527
(
230
253
259
239
242
254
264
261
251
179
267
263
268
262
271
199
269
213
270
255
265
260
266
278
258
279
250
272
240
273
284
275
283
276
285
289
280
282
290
287
293
211
286
48
296
297
292
294
288
291
277
303
295
301
299
307
302
306
310
281
304
300
317
312
316
314
315
308
311
441
459
461
462
463
464
465
466
467
468
469
470
471
472
473
474
475
476
477
478
479
480
481
482
483
484
485
486
487
488
489
490
491
492
493
494
495
496
497
498
499
500
501
502
503
504
505
506
507
508
509
510
511
512
513
514
515
516
517
518
519
520
521
522
523
524
525
526
246
365
345
350
326
403
405
408
410
407
411
413
412
414
415
393
417
418
419
420
422
421
423
425
428
427
430
429
424
396
432
434
435
433
437
439
438
436
442
443
444
416
431
446
447
449
448
440
450
451
452
445
426
455
456
454
457
458
460
453
183
320
339
349
356
357
359
358
353
354
362
363
361
360
366
370
364
367
368
373
372
371
369
374
379
378
383
382
376
377
375
384
380
387
385
390
395
394
392
388
389
391
399
400
386
381
398
406
401
404
397
402
409
309
298
313
324
321
318
328
305
329
323
327
325
330
333
334
336
337
331
338
332
322
335
341
344
347
319
342
351
340
352
274
343
348
346
355
2
8
20
5
22
15
23
26
16
31
33
6
29
35
30
24
39
42
38
40
27
28
25
44
37
46
41
45
32
49
10
34
36
47
56
21
14
43
18
62
55
13
52
60
64
68
66
72
53
69
19
74
67
70
73
80
50
76
82
71
54
75
57
83
58
59
79
81
91
84
77
51
89
97
96
65
94
87
88
85
104
93
105
90
102
78
110
117
98
116
101
100
86
120
119
122
123
95
114
112
113
118
108
107
111
115
99
121
106
127
125
103
92
133
126
128
129
131
134
136
132
61
143
145
144
137
130
148
150
147
152
151
139
140
141
146
154
157
161
160
9
159
155
138
142
166
135
158
156
165
167
163
172
149
169
153
171
177
178
184
176
186
188
185
191
173
181
164
109
195
192
162
170
196
174
198
189
182
197
205
203
168
209
194
180
210
202
216
175
206
219
218
221
204
217
201
222
187
220
212
124
226
214
231
233
228
224
193
200
229
225
234
235
208
207
244
237
232
63
223
241
248
215
247
243
227
190
236
252
257
256
245
238
249
0
1
4
7
3
12
11
17
)


// ************************************************************************* //
