/*--------------------------------*- C++ -*----------------------------------*\
  =========                 |
  \\      /  F ield         | OpenFOAM: The Open Source CFD Toolbox
   \\    /   O peration     | Website:  https://openfoam.org
    \\  /    A nd           | Version:  7
     \\/     M anipulation  |
\*---------------------------------------------------------------------------*/
FoamFile
{
    version     2.0;
    format      ascii;
    class       Cloud<passiveParticle>;
    location    "0.1125/lagrangian/reactingCloud1";
    object      positions;
}
// * * * * * * * * * * * * * * * * * * * * * * * * * * * * * * * * * * * * * //

527
(
(0.113916 0.0500613 0.443202 0.392821) 46290 91902 2
(0.267932 0.0221346 0.344094 0.36584) 46107 91534 2
(0.914929 0.0426131 0.00371893 0.0387389) 46104 91530 1
(0.0441499 0.423812 0.0550208 0.477017) 46198 91716 2
(0.416716 0.298945 0.200998 0.0833407) 46242 91803 1
(0.0925685 0.145234 0.30884 0.453358) 46197 91714 2
(0.401962 0.299264 0.187814 0.11096) 46145 91612 1
(0.3841 0.30768 0.127739 0.180481) 46150 91620 1
(0.108782 0.446233 0.432442 0.0125423) 46286 91892 1
(0.656888 0.171711 0.163379 0.00802154) 46241 91802 1
(0.0367704 0.474925 0.48067 0.00763456) 46235 91792 2
(0.33653 0.358496 0.261785 0.043189) 46278 91875 1
(0.936034 0.0176113 0.014566 0.0317883) 46281 91882 2
(0.447403 0.276637 0.268992 0.00696815) 46284 91975 1
(0.806349 0.0989141 0.0777986 0.0169381) 46277 91961 1
(0.707403 0.0874716 0.0621769 0.142949) 46329 91977 2
(0.719034 0.0177986 0.122823 0.140345) 46325 91970 2
(0.434841 0.287006 0.0437653 0.234387) 46323 91965 1
(0.599558 0.0760966 0.123659 0.200687) 46325 91970 2
(0.410991 0.29476 0.123622 0.170628) 46373 92066 1
(0.0343196 0.487267 0.0881271 0.390286) 46415 92149 1
(0.310932 0.155125 0.189757 0.344185) 46418 92156 2
(0.278435 0.233525 0.360394 0.127646) 46413 92148 2
(0.125297 0.437933 0.148466 0.288303) 46409 92140 1
(0.159218 0.420931 0.416893 0.00295864) 46416 92239 1
(0.142423 0.46874 0.1101 0.278737) 46408 92223 1
(0.235578 0.381939 0.358511 0.0239728) 46459 92240 1
(0.153815 0.423513 0.221373 0.201299) 46506 92332 1
(0.607225 0.196453 0.109003 0.0873192) 46550 92422 1
(0.28922 0.159312 0.203204 0.348264) 46548 92415 2
(0.233491 0.295291 0.359598 0.11162) 46543 92493 2
(0.0376125 0.4811 0.40226 0.0790276) 46546 92414 1
(0.35882 0.341296 0.0205209 0.279363) 46589 92585 1
(0.501489 0.249733 0.141076 0.107702) 46592 92504 1
(0.617236 0.103025 0.191219 0.0885201) 46633 92588 2
(0.575211 0.186523 0.0261869 0.212078) 46626 92572 2
(0.458056 0.271158 0.140715 0.130071) 46635 92592 1
(0.65073 0.174052 0.0725379 0.10268) 46677 92674 1
(0.349749 0.302312 0.300852 0.0470865) 46675 92757 2
(0.650468 0.15138 0.031801 0.166351) 46722 92763 2
(0.406949 0.297836 0.272595 0.0226211) 46719 92845 2
(0.56073 0.219812 0.13512 0.0843384) 46769 92860 1
(0.21551 0.0867405 0.38755 0.310199) 46722 92851 2
(0.272947 0.191174 0.17751 0.358369) 46815 92949 2
(0.416654 0.292054 0.0555071 0.235784) 46807 92936 1
(0.202319 0.399035 0.115212 0.283435) 46807 92934 1
(0.252648 0.126094 0.373568 0.247689) 46855 93032 2
(0.147845 0.431387 0.329395 0.0913733) 46899 93205 1
(0.00204269 0.499336 0.227101 0.27152) 46945 93212 1
(0.0768552 0.462024 0.324784 0.136337) 46990 93300 1
(0.497755 0.0426662 0.251073 0.208506) 46990 93302 2
(0.471526 0.0802485 0.258403 0.189822) 46984 93375 2
(0.284982 0.357869 0.0564767 0.300673) 47034 93390 1
(0.194171 0.413052 0.153678 0.239099) 47030 93379 1
(0.456174 0.271971 0.102709 0.169147) 47078 93478 1
(0.0896965 0.450621 0.0373392 0.422343) 47116 93551 2
(0.212739 0.288073 0.105789 0.393399) 47120 93560 2
(1.11097e-06 0.52055 0.168198 0.311251) 47118 93643 1
(0.204236 0.398286 0.110069 0.287409) 47159 93640 1
(0.557308 0.185389 0.0363975 0.220906) 47211 93742 2
(0.16197 0.422638 0.335549 0.0798437) 47209 93825 1
(0.2578 0.345005 0.0266487 0.370547) 47300 93920 2
(0.242524 0.373625 0.378213 0.00563819) 47333 93988 2
(0.379546 0.0760172 0.306343 0.238093) 47339 94085 2
(0.339706 0.3461 0.279797 0.0343972) 47427 94173 1
(0.124019 0.0484628 0.43781 0.389709) 47471 94264 2
(0.236928 0.38146 0.0793564 0.302256) 47470 94260 1
(0.262654 0.38614 0.00448115 0.346725) 47472 94351 1
(0.502486 0.248792 0.174248 0.0744742) 47517 94356 1
(0.138421 0.430791 0.429119 0.00166811) 3280 6411 1
(0.173468 0.405055 0.110691 0.310786) 3421 6685 1
(0.571535 0.0908502 0.214715 0.1229) 3429 6665 2
(0.590466 0.130124 0.205451 0.0739592) 3417 6642 2
(0.029459 0.484351 0.458604 0.0275865) 3385 6615 1
(0.679385 0.00246358 0.16032 0.157831) 3385 6579 2
(0.262604 0.0211319 0.368804 0.34746) 3372 6554 2
(0.707376 0.145672 0.0146907 0.132262) 3351 6513 1
(0.221637 0.387921 0.355136 0.0353059) 3326 6500 1
(0.188915 0.399452 0.302007 0.109625) 3311 6471 1
(0.311529 0.338623 0.0898043 0.260044) 3312 6434 1
(0.500988 0.0748283 0.249842 0.174342) 3295 6404 2
(0.0241092 0.477773 0.152254 0.345864) 3263 6377 1
(0.252282 0.368285 0.167609 0.211824) 3241 6334 1
(0.495682 0.243415 0.24483 0.0160733) 3246 6305 1
(0.404997 0.290261 0.14482 0.159923) 3230 6274 1
(0.328925 0.0867234 0.335873 0.248479) 3211 6240 2
(0.643365 0.125128 0.0527274 0.17878) 3189 6195 2
(0.0102067 0.170914 0.323351 0.495528) 3183 6183 2
(0.344066 0.291351 0.328991 0.0355916) 3161 6142 2
(0.323153 0.00970319 0.328688 0.338456) 3141 6101 2
(0.35267 0.0289063 0.324515 0.293908) 3122 6102 2
(0.662331 0.0389051 0.168949 0.129815) 3114 6051 2
(0.124722 0.436687 0.0871284 0.351463) 3092 6008 1
(0.249994 0.373994 0.0297905 0.346221) 3021 5866 1
(0.640123 0.11174 0.0649122 0.183225) 3062 5946 2
(0.208999 0.385935 0.133915 0.27115) 3053 5929 1
(0.614298 0.136645 0.193133 0.0559248) 3022 5871 2
(0.564142 0.210186 0.13938 0.086292) 3011 5847 1
(0.675674 0.162078 0.053479 0.108769) 2991 5809 1
(0.270335 0.364596 0.176001 0.189068) 2969 5766 1
(0.106679 0.0232823 0.447954 0.422085) 2950 5767 2
(0.0840538 0.441313 0.333207 0.141426) 2950 5728 1
(0.248139 0.370754 0.175986 0.205121) 2923 5675 1
(0.573945 0.166918 0.0385225 0.220615) 2908 5646 2
(0.0403365 0.479711 0.0869061 0.393046) 2889 5612 1
(0.307842 0.346074 0.280722 0.0653623) 2869 5573 1
(0.247461 0.376269 0.100589 0.275681) 2841 5516 1
(0.270584 0.00349418 0.361214 0.364708) 2846 5526 2
(0.411693 0.292387 0.0424054 0.253515) 2828 5490 1
(0.602581 0.0623803 0.136329 0.19871) 2806 5448 2
(0.648007 0.175943 0.17562 0.000431029) 2796 5467 1
(0.0438677 0.0108027 0.478741 0.466588) 2771 5418 2
(0.651537 0.168201 0.174232 0.00603023) 2720 5282 2
(0.270036 0.360785 0.151116 0.218064) 2742 5322 1
(0.182561 0.329219 0.0795001 0.408719) 2723 5286 2
(0.406354 0.296823 0.0389022 0.257921) 2712 5265 1
(0.00743416 0.495556 0.00436328 0.492647) 2717 5274 1
(0.0663769 0.466812 0.281993 0.184819) 2660 5165 1
(0.242975 3.73454e-11 0.258078 0.498947) 2679 100085 2
(0.793535 0.103232 0.0711638 0.0320687) 2647 5140 1
(0.306779 0.209508 0.451365 0.0323492) 2638 5159 2
(0.547247 0.226377 0.0598064 0.16657) 2621 5087 1
(0.0552694 0.46849 0.328986 0.147254) 2601 5086 1
(0.0440607 0.0855253 0.47797 0.392444) 2602 5052 2
(0.672854 0.163573 0.0275808 0.135992) 2589 5027 1
(0.181022 0.389456 0.020033 0.409489) 2480 96700 1
(0.237031 0.0767148 0.298377 0.387877) 2573 4993 2
(0.189586 0.0649337 0.405207 0.340273) 2547 4945 2
(0.511168 0.111519 0.244416 0.132897) 2523 4898 2
(0.577458 0.0930081 0.213855 0.115679) 2501 4891 2
(0.17567 0.0288919 0.412165 0.383273) 2504 4861 2
(0.751958 0.0464615 0.0729135 0.128667) 2494 4839 2
(0.597012 0.201494 0.147352 0.0541422) 2466 4785 1
(0.16045 0.34393 0.429328 0.066291) 2441 4774 2
(0.484809 0.0148906 0.242291 0.258009) 2441 4735 2
(0.0670195 0.46649 0.0503155 0.416175) 2425 4707 1
(0.292199 0.166861 0.367805 0.173135) 2413 4720 2
(0.528974 0.231388 0.0782019 0.161437) 3860 7542 1
(0.719393 0.0153484 0.140019 0.125239) 4000 7778 2
(0.596953 0.00733391 0.194192 0.201521) 3800 96634 1
(0.55316 0.223774 0.047937 0.175129) 4000 7778 1
(0.353511 0.1787 0.322739 0.14505) 3943 7667 2
(0.385831 0.300438 0.0877436 0.225987) 4103 8015 1
(0.106764 0.262705 0.44596 0.184571) 4103 7979 2
(0.254151 0.167096 0.372512 0.206241) 4063 7901 2
(0.620435 0.119815 0.189482 0.0702675) 4108 7989 2
(0.408068 0.296249 0.111431 0.184253) 3901 7585 1
(0.04704 0.476704 0.0271174 0.449138) 3983 7743 1
(0.412124 0.29403 0.0369968 0.256849) 4093 7958 1
(0.300783 0.345824 0.121101 0.232292) 4024 7822 1
(0.35292 0.324016 0.191538 0.131527) 4071 7915 1
(0.539839 0.226259 0.129931 0.103971) 3963 7703 1
(0.310496 0.335773 0.343813 0.00991792) 3761 7309 1
(0.23693 0.371466 0.261807 0.129798) 4007 7789 1
(0.538579 0.229803 0.0308688 0.20075) 3923 7625 1
(0.126745 0.43736 0.304396 0.131499) 3967 7712 1
(0.669182 0.111678 0.169704 0.0494359) 3946 7709 2
(0.216413 0.385006 0.162895 0.235685) 3948 7674 1
(0.122869 0.105992 0.329569 0.44157) 3902 7584 2
(0.34115 0.0399678 0.288303 0.33058) 3822 7428 2
(0.00161076 0.49981 0.210917 0.287663) 3822 7431 1
(0.200685 0.400188 0.172663 0.226464) 3869 7523 1
(0.139877 0.400348 0.42915 0.0306238) 3802 7392 2
(0.674401 0.0631468 0.0964954 0.165957) 3849 7481 2
(0.00369863 0.381073 0.497225 0.118003) 3782 7353 2
(0.0516607 0.467534 0.240619 0.240186) 3742 7311 1
(0.535392 0.23127 0.0415641 0.191773) 3701 7192 1
(0.50492 0.124583 0.118804 0.251693) 3784 7354 2
(0.676233 0.161959 0.0350982 0.12671) 3816 7418 1
(0.166347 0.417294 0.0928965 0.323463) 3767 7324 1
(0.682082 0.128788 0.0305812 0.158549) 3682 7156 2
(0.542154 0.228887 0.0786153 0.150344) 3682 7158 1
(0.72808 0.136001 0.0638451 0.0720737) 3731 7252 1
(0.132325 0.433873 0.28628 0.147522) 3704 7201 1
(0.524647 0.237704 0.0713022 0.166347) 3682 7158 1
(0.433531 0.280435 0.0671983 0.218836) 3688 7167 1
(0.649058 0.0149899 0.175473 0.160479) 3695 7184 2
(0.375036 0.188579 0.123804 0.312581) 3672 7137 2
(0.266985 0.0437022 0.367669 0.321644) 3560 6957 2
(0.0213829 0.0801202 0.406663 0.491834) 3622 7038 2
(0.267549 0.0186201 0.347589 0.366243) 3654 7102 2
(0.138515 0.0653231 0.433255 0.362907) 3606 7046 2
(0.411606 0.287132 0.159963 0.141299) 3590 7015 1
(0.602992 0.198126 0.0166131 0.18227) 3583 6965 1
(0.383463 0.300428 0.017141 0.298968) 3541 6919 1
(0.421733 0.25645 0.0113129 0.310504) 3593 6982 2
(0.50288 0.247985 0.232337 0.0167985) 3568 6934 1
(0.345215 0.327127 0.0906079 0.23705) 3550 6899 1
(0.268105 0.318728 0.0373995 0.375767) 3563 6923 2
(0.0255109 0.486783 0.0979714 0.389734) 3501 6803 1
(0.0355059 0.439129 0.0414556 0.483909) 3504 6809 2
(0.145587 0.317255 0.0967329 0.440426) 3507 6814 2
(0.809156 0.0207946 0.0961227 0.0739264) 3481 6802 2
(0.317364 0.338995 0.0278703 0.31577) 3494 6789 1
(0.12679 0.430337 0.438609 0.0042639) 3471 6747 2
(0.0149405 0.00923799 0.492577 0.483245) 3449 6704 2
(0.00675861 0.290098 0.198503 0.50464) 3461 6724 2
(0.252567 0.341154 0.382295 0.0239841) 4940 9652 2
(0.486067 0.256558 0.0611354 0.19624) 4620 96593 2
(0.493049 0.083035 0.16808 0.255836) 5143 10018 2
(0.658698 0.166082 0.133774 0.041446) 5144 10020 1
(0.134295 0.282203 0.150344 0.433158) 5128 9989 2
(0.176673 0.405185 0.150806 0.267337) 5087 9906 1
(0.55654 0.0124958 0.222435 0.208529) 5089 9950 2
(0.0205345 0.477448 0.270256 0.231762) 5088 9908 1
(0.682024 0.158818 0.0919621 0.0671966) 4983 9701 1
(0.292236 0.352638 0.303891 0.0512355) 4984 9740 1
(0.374242 0.29592 0.0180708 0.311768) 5030 9832 1
(0.910254 0.0449131 0.0124488 0.032384) 5031 9797 1
(0.237065 0.207338 0.173915 0.381682) 5008 9749 2
(0.438669 0.275955 0.127575 0.157802) 4904 9580 1
(0.149203 0.412389 0.338248 0.100159) 4887 9506 1
(0.390001 0.299557 0.302889 0.00755259) 4850 9436 2
(0.58403 0.0832931 0.122131 0.210546) 4763 9263 2
(0.398984 0.29346 0.211434 0.0961221) 4785 9306 1
(0.425206 0.287609 0.25493 0.0322546) 4765 9270 1
(0.213878 0.216874 0.414748 0.1545) 4814 9402 2
(0.0562626 0.190438 0.282693 0.470607) 4790 9317 2
(0.647398 0.176869 0.0861646 0.0895687) 4726 9194 1
(0.406006 0.289402 0.258229 0.0463627) 4643 9029 1
(0.0243485 0.159096 0.493508 0.323047) 4625 9033 2
(0.112156 0.430537 0.240932 0.216375) 4651 9045 1
(0.302449 0.146576 0.196562 0.354413) 4586 8918 2
(0.151816 0.275159 0.150484 0.422541) 4618 8982 2
(0.170224 0.00713204 0.415398 0.407247) 4592 8969 2
(0.0982373 0.450142 0.427951 0.0236705) 4524 8836 1
(0.679645 0.160782 0.112994 0.0465796) 4524 8798 1
(0.651991 0.145402 0.173364 0.0292429) 4481 8716 2
(0.218371 0.391337 0.10063 0.289662) 4488 8728 1
(0.0940873 0.0187095 0.433662 0.453541) 4463 8678 2
(0.0317291 0.136292 0.483465 0.348514) 4426 8609 2
(0.128086 0.435843 0.431118 0.00495267) 4361 8518 1
(0.0677851 0.454863 0.292353 0.184999) 4387 8530 1
(0.478888 0.261529 0.203985 0.0555982) 4374 8506 1
(0.146445 0.311453 0.44408 0.0980215) 4350 8497 2
(0.413468 0.0145808 0.278753 0.293198) 4347 8453 2
(0.539459 0.228345 0.0654522 0.166743) 4303 8366 1
(0.330974 0.0600744 0.274709 0.334243) 4283 8328 2
(0.749101 0.122292 0.107355 0.0212517) 4263 8288 1
(0.361579 0.320594 0.312388 0.00543905) 4248 8260 1
(0.733207 0.133845 0.101261 0.0316875) 4248 8260 1
(0.277139 0.125143 0.360865 0.236853) 4221 8209 2
(0.741526 0.0917151 0.0350558 0.131703) 4201 8167 2
(0.320286 0.340622 0.176814 0.162278) 4205 8176 1
(0.0526305 0.0511122 0.482203 0.414054) 4216 8236 2
(0.754321 0.122735 0.00292609 0.120018) 4206 8177 1
(0.443101 0.14126 0.130127 0.285513) 4209 8183 2
(0.305997 0.348045 0.228004 0.117954) 4181 8129 1
(0.132634 0.332901 0.432718 0.101747) 4164 8098 2
(0.24392 0.257068 0.392322 0.10669) 4130 8068 2
(0.000116004 0.303264 0.209127 0.487493) 47649 94617 2
(0.501189 0.196909 0.249156 0.0527462) 47648 94618 2
(0.22489 0.390467 0.338814 0.0458278) 47560 94527 1
(0.0206559 0.524138 0.354972 0.100235) 47599 94517 1
(0.816037 0.0799842 0.0161253 0.087853) 47647 94613 2
(0.479857 0.262764 0.0093633 0.248015) 47692 94703 2
(0.101498 0.449391 0.115326 0.333785) 47686 94692 1
(0.43594 0.282543 0.0224186 0.259099) 47735 94790 1
(0.21375 0.401216 0.301909 0.0831257) 47731 94869 1
(0.233068 0.40164 0.00721837 0.358074) 47736 94879 1
(0.440893 0.293171 0.262263 0.00367352) 47778 94963 2
(0.449851 0.0579363 0.274916 0.217297) 47868 95058 2
(0.82678 0.0527483 0.0369765 0.0834948) 47910 95139 2
(0.676306 0.161998 0.01338 0.148316) 47907 95136 1
(0.328926 0.0272347 0.310311 0.333529) 47996 95311 2
(0.192136 0.428669 0.253296 0.1259) 48039 95397 1
(0.14122 0.369965 0.0896652 0.39915) 48083 95485 2
(0.513965 0.159908 0.242674 0.0834533) 48088 95498 2
(0.0558204 0.120555 0.360442 0.463182) 48172 95663 2
(0.180877 0.409605 0.179991 0.229527) 48177 95674 1
(0.363215 0.285765 0.308519 0.0425003) 48178 95763 2
(0.482302 0.259075 0.219796 0.0388273) 48309 95938 1
(0.133895 0.204626 0.419437 0.242043) 48305 96017 2
(0.186123 0.0240557 0.404761 0.38506) 48346 96099 2
(0.337284 0.187743 0.164488 0.310486) 48432 96183 2
(0.236803 0.381743 0.302397 0.0790576) 48531 96398 1
(0.0240747 0.133968 0.492858 0.3491) 5345 10462 2
(0.212916 0.394069 0.0765138 0.316502) 5351 10437 1
(0.301678 0.0948561 0.349152 0.254314) 5345 10425 2
(0.477248 0.260617 0.251293 0.0108417) 5311 10394 1
(0.059815 0.467396 0.0787826 0.394006) 5284 10300 1
(0.121729 0.182336 0.25649 0.439446) 5245 10223 2
(0.126751 0.337249 0.0987704 0.43723) 5226 10185 2
(0.171217 0.405938 0.174145 0.2487) 5205 10182 1
(0.121199 0.343662 0.439435 0.0957041) 5209 10153 2
(0.065259 0.467705 0.197062 0.269974) 43557 86434 1
(0.167926 0.22614 0.41506 0.190875) 43592 86506 2
(0.663692 0.182314 0.0357666 0.118228) 43593 86593 1
(0.125259 0.454165 0.158701 0.261875) 43641 86689 1
(0.0152557 0.505628 0.071008 0.408108) 43635 86589 1
(0.2882 0.299685 0.0786477 0.333467) 43683 86685 2
(0.269256 0.139129 0.353761 0.237854) 43638 86683 2
(5.87531e-05 3.69854e-05 0.495461 0.504443) 43632 189598 2
(0.1431 0.00200497 0.0418781 0.813017) 43632 189598 2
(0.191645 0.0335288 0.395434 0.379392) 43633 86673 2
(0.298221 0.359907 0.331259 0.0106126) 43677 86761 1
(0.0924282 0.313213 0.452324 0.142035) 43773 86868 2
(0.192206 0.281733 0.145981 0.38008) 43726 86771 2
(0.378276 0.346109 0.14893 0.126685) 43678 86763 1
(0.372893 0.313976 0.173397 0.139733) 43680 86682 1
(0.663033 0.156291 0.167319 0.0133569) 43724 86770 2
(0.167554 0.417897 0.142017 0.272532) 43724 86768 1
(0.0663036 0.494094 0.0580968 0.381506) 43766 86851 2
(0.279551 0.297778 0.102842 0.319829) 43767 86853 2
(0.30129 0.372711 0.0269128 0.299086) 43767 86853 2
(0.174057 0.414047 0.027607 0.384289) 43862 87043 1
(0.29204 0.353986 0.276965 0.0770098) 43821 86964 1
(0.42312 0.285346 0.287383 0.004151) 43817 86956 2
(0.606483 0.217144 0.171961 0.00441167) 43768 86943 2
(0.251697 0.398159 0.141838 0.208306) 43769 86945 1
(1.43228e-08 9.82164e-09 0.433066 0.566934) 43764 189730 2
(0.631251 0.148514 0.0487417 0.171493) 43814 86947 2
(0.572909 0.1927 0.0213031 0.213088) 43812 86944 2
(0.461711 0.0372678 0.235545 0.265476) 43814 86947 2
(0.544685 0.0534862 0.227395 0.174434) 43812 86946 2
(9.94557e-09 0.551235 0.448765 6.80666e-10) 43808 141214 1
(0.0799335 0.497462 0.363452 0.0591528) 43858 87035 1
(0.632231 0.184268 0.158962 0.02454) 43860 87040 1
(0.0657272 0.522594 0.0197448 0.391934) 43812 87031 1
(0.369712 0.06665 0.317734 0.245904) 43809 86940 2
(0.156773 0.422999 0.0244243 0.395804) 43906 87131 1
(0.264933 0.00919956 0.358322 0.367546) 43906 87132 2
(0.236428 0.18606 0.196303 0.381209) 43858 87036 2
(0.015217 0.498869 0.168102 0.317812) 44041 87401 1
(0.116414 0.0512197 0.389412 0.442955) 43899 87118 2
(0.0798692 0.480056 0.179822 0.260253) 43904 87215 1
(0.73687 0.0773922 0.0564344 0.129303) 44042 87403 2
(0.278879 0.144192 0.341221 0.235707) 43899 87205 2
(0.317123 0.0375206 0.306331 0.339026) 43947 87213 2
(0.441259 0.280186 0.178066 0.100488) 43945 87210 1
(0.35071 0.323183 0.104389 0.221718) 43942 87204 1
(0.31451 0.383719 0.152346 0.149425) 43984 87288 1
(0.701352 0.00332449 0.147662 0.147662) 43984 87288 1
(0.0831791 0.45987 0.0558697 0.401082) 44039 87400 1
(0.584131 0.228813 0.183601 0.00345473) 43989 87297 1
(0.869494 0.0388223 0.064783 0.0269006) 44085 87492 2
(0.196589 0.40113 0.133897 0.268383) 43985 87290 1
(0.323873 0.358235 0.231436 0.0864553) 44035 87389 1
(0.70263 0.0452358 0.106294 0.14584) 44036 87391 2
(0.3293 0.173195 0.334795 0.16271) 44080 87482 2
(0.290627 0.0411343 0.344174 0.324065) 44029 87465 2
(0.0188917 0.512346 0.413907 0.0548554) 44127 87573 1
(0.546861 0.0218361 0.206994 0.224308) 44077 87473 2
(0.232944 0.402218 0.178745 0.186094) 44078 87475 1
(0.0784577 0.435839 0.435072 0.0506321) 44081 87569 2
(0.0458953 0.451981 0.0268647 0.475259) 44124 87568 2
(0.518475 0.241893 0.218415 0.0212169) 44125 87657 1
(0.351822 0.31387 0.322832 0.0114764) 44122 87566 2
(0.468011 0.266164 0.114703 0.151122) 44123 87566 1
(0.0536997 0.473143 0.444717 0.0284404) 44125 87657 2
(0.397886 0.159552 0.141935 0.300627) 44171 87662 2
(0.053028 0.435244 0.0754617 0.436266) 44166 87651 2
(0.0564595 0.138889 0.471734 0.332917) 44165 87652 2
(0.245846 0.429893 0.293873 0.0303893) 44163 87645 1
(0.0472142 0.477121 0.290052 0.185614) 44169 87660 1
(0.238123 0.406565 0.0270055 0.328307) 44168 87743 1
(0.0307926 0.185422 0.299322 0.484464) 44213 87746 2
(0.281227 0.209973 0.167323 0.341477) 44210 87739 2
(0.102659 0.128258 0.448492 0.320591) 44207 87736 2
(0.468237 0.0747227 0.198373 0.258668) 44209 87737 2
(0.506268 0.246932 0.225926 0.0208741) 44212 87746 1
(0.276695 0.362478 0.225269 0.135557) 44210 87740 1
(0.213162 0.421699 0.0547132 0.310427) 44211 87829 1
(0.348515 0.0341565 0.325549 0.29178) 44256 87834 2
(0.218959 0.390987 0.0307137 0.359341) 44259 87838 1
(0.820929 0.00618346 0.0890224 0.0838652) 44253 87913 2
(0.580068 0.219093 0.113917 0.0869218) 44300 87919 1
(0.286369 0.387582 0.290855 0.0351942) 44298 87915 1
(0.461916 0.207504 0.254966 0.075613) 44300 88007 2
(0.0598193 0.337138 0.159084 0.443958) 44343 88005 2
(0.516805 0.123319 0.241232 0.118644) 44344 88010 2
(0.28774 0.319819 0.0382481 0.354193) 44340 88000 2
(0.409704 0.237764 0.292977 0.0595545) 44337 87996 2
(0.202855 0.140544 0.267614 0.388987) 44388 88095 2
(0.0864705 0.472995 0.0364364 0.404099) 44384 88087 2
(0.303939 0.35096 0.00128253 0.343819) 44382 88086 1
(0.00147975 0.500436 0.329198 0.168886) 44390 88100 1
(0.46251 0.270936 0.116069 0.150485) 44485 88289 1
(0.222658 0.428331 0.00174474 0.347266) 44429 88177 2
(0.109383 0.248305 0.444077 0.198235) 44431 88184 2
(0.177614 0.283121 0.410519 0.128747) 44428 88178 2
(0.591982 0.0986445 0.105685 0.203688) 44427 88174 2
(0.118498 0.441327 0.237214 0.202961) 44431 88184 1
(0.0231948 0.488231 0.354358 0.134216) 44428 88178 1
(0.168856 0.11429 0.306656 0.410197) 44479 88277 2
(0.341571 0.339714 0.267645 0.0510699) 44525 88369 1
(0.172458 0.0592968 0.358641 0.409605) 44476 88271 2
(0.00427881 0.171582 0.497498 0.326641) 44478 88278 2
(0.485 0.257651 0.100846 0.156503) 44477 88274 1
(0.121345 0.439583 0.405561 0.0335116) 44480 88282 1
(0.17883 0.422599 0.22365 0.174921) 44477 88361 1
(0.33877 0.14264 0.188488 0.330103) 44568 88456 2
(0.476075 0.275138 0.00195061 0.246837) 44522 88363 2
(0.231147 0.399628 0.0349018 0.334324) 44612 88631 1
(0.296306 0.0641915 0.288116 0.351387) 44566 88452 2
(0.0784435 0.019749 0.460865 0.440943) 44565 88452 2
(0.0370434 0.0530657 0.431645 0.478246) 44609 88537 2
(0.10618 0.460366 0.289396 0.144058) 44656 88631 1
(0.46244 0.271331 0.235608 0.0306216) 44519 88445 1
(0.0519891 0.475431 0.437026 0.0355534) 44563 88446 1
(0.61527 0.205801 0.00893851 0.169991) 44564 88535 1
(0.155202 0.423578 0.0688686 0.352352) 44607 88536 1
(0.401231 0.283209 0.035721 0.279838) 44608 88535 2
(0.493652 0.27582 0.195971 0.0345569) 44605 88529 1
(0.166176 0.359784 0.415795 0.0582446) 44607 88536 2
(0.167641 0.228764 0.405239 0.198356) 44699 88805 2
(0.157825 0.416104 0.411179 0.0148922) 44748 88903 2
(0.510159 0.257448 0.0054757 0.226917) 44696 88711 2
(0.045142 0.190378 0.301741 0.462739) 44695 88709 2
(0.807581 0.0964114 0.0904162 0.00559182) 44696 88712 1
(0.361649 0.239831 0.318855 0.0796647) 44741 88804 2
(0.238487 0.393046 0.262453 0.106013) 44738 88883 1
(0.3477 0.15857 0.316589 0.177142) 44697 88801 2
(0.157791 0.144413 0.412674 0.285122) 44698 88803 2
(0.253959 0.373869 0.0321035 0.340069) 44738 88798 1
(0.296937 0.142525 0.209926 0.350612) 44738 88796 2
(0.519456 0.134698 0.231002 0.114845) 44740 88887 2
(0.617786 0.021712 0.169079 0.191423) 44784 88888 2
(0.275347 0.0378165 0.324839 0.361997) 44784 88888 2
(0.0658891 0.467497 0.191777 0.274838) 44831 88982 1
(0.527832 0.236099 0.0981049 0.137964) 44877 89074 1
(0.475295 0.214189 0.0667842 0.243732) 44826 88971 2
(0.00162024 0.500401 0.199491 0.298488) 44919 89158 1
(0.310473 0.324038 0.0218587 0.34363) 44827 88974 2
(0.777754 0.0268697 0.0859788 0.109397) 44828 88975 2
(0.136164 0.435689 0.244104 0.184043) 45013 89433 1
(0.102523 0.0341507 0.447977 0.415349) 44916 89154 2
(0.282218 0.359458 0.0488389 0.309485) 44783 88886 1
(0.540502 0.0569257 0.22589 0.176682) 44918 89243 2
(0.234999 0.39294 0.19248 0.179581) 44919 89157 1
(0.322794 0.348265 0.0671945 0.261746) 44868 89055 1
(0.056928 0.228634 0.455681 0.258757) 44872 89151 2
(0.435181 0.0436012 0.258896 0.262322) 44864 89136 1
(0.325789 0.355255 0.120627 0.198329) 44871 89149 1
(0.390421 0.30539 0.0677399 0.23645) 44917 89156 1
(0.260921 0.369889 0.0968495 0.272341) 44917 89154 1
(0.132014 0.0705785 0.430881 0.366526) 44962 89331 2
(0.612415 0.194351 0.0243427 0.168891) 44958 89238 1
(0.0204572 0.433019 0.545926 0.000598303) 44952 142358 1
(0.529932 0.060615 0.174716 0.234737) 45004 89328 2
(0.417357 0.292095 0.238248 0.0523001) 45189 89698 1
(0.0679559 0.482282 0.14791 0.301852) 45051 89509 1
(0.804301 0.102334 0.046043 0.0473214) 45047 89413 1
(0.334267 0.155362 0.18725 0.323121) 45093 89505 2
(0.0755535 0.497667 0.0400121 0.386768) 45047 89501 1
(5.7216e-09 0.35897 0.64103 2.52481e-08) 45040 142446 1
(0.614189 0.0656532 0.127449 0.192708) 45089 89498 2
(0.221567 0.389583 0.121947 0.266902) 45088 89496 1
(0.294233 0.369553 0.181989 0.154225) 45135 89589 1
(0.391246 0.324131 0.0969863 0.187636) 45134 89675 1
(0.0514131 0.278868 0.463836 0.205882) 45229 89865 2
(0.327302 0.337081 0.198297 0.13732) 45181 89684 1
(0.917579 0.00341853 0.0379204 0.0410822) 45176 89671 2
(0.571716 0.214159 0.0589705 0.155154) 45320 89960 1
(0.398276 0.301638 0.0253979 0.274688) 45174 89670 1
(0.614087 0.208556 0.00644503 0.170913) 45179 89765 1
(0.18114 0.358862 0.363416 0.0965815) 45175 89757 2
(0.476396 0.119643 0.261159 0.142801) 45227 89776 2
(0.164491 0.0487867 0.417615 0.369107) 45221 89764 2
(0.794754 0.0763221 0.0304675 0.0984567) 45271 89861 2
(0.0283921 0.406216 0.111372 0.45402) 45267 89853 2
(0.79949 0.100469 0.0983531 0.00168721) 45270 89860 1
(0.504172 0.178285 0.070151 0.247391) 45360 90040 2
(0.644423 0.179536 0.0274587 0.148582) 45359 90037 1
(0.753323 0.101163 0.0284578 0.117055) 45357 90033 2
(0.599366 0.200435 0.0274708 0.172728) 45356 90032 1
(0.749141 0.125618 0.119619 0.00562174) 45402 90211 1
(0.219861 0.296775 0.122661 0.360703) 45397 90113 2
(0.147674 0.427146 0.379447 0.0457324) 45448 90216 1
(0.398544 0.300244 0.0962654 0.204947) 45402 90124 1
(0.0860271 0.458212 0.399155 0.0566059) 45445 90210 1
(0.379707 0.144448 0.303868 0.171977) 45492 90391 2
(0.317242 0.352873 0.206185 0.1237) 45443 90293 1
(0.771316 0.116752 0.0714423 0.0404904) 45490 90387 1
(0.0702086 0.528045 0.356623 0.0451238) 45483 90285 1
(0.338004 0.165603 0.317938 0.178455) 45487 90381 2
(0.217095 0.15117 0.37976 0.251975) 45487 90381 2
(0.111525 0.188044 0.274677 0.425754) 45529 90377 2
(0.0293379 0.486574 0.17174 0.312348) 45534 90390 1
(0.0883257 0.456795 0.0367697 0.41811) 45529 90380 1
(0.169081 0.374688 0.0594378 0.396792) 45579 90477 2
(0.37959 0.120589 0.300749 0.199072) 45531 90469 2
(0.764789 0.0243454 0.11683 0.0940354) 45628 90663 2
(0.628024 0.186594 0.168422 0.0169608) 45577 90474 1
(0.0828 0.471015 0.34979 0.0963945) 45670 90659 1
(0.619799 0.191965 0.0293383 0.158898) 45622 90563 1
(0.0768144 0.461869 0.336692 0.124624) 45620 90562 1
(0.443917 0.278295 0.153744 0.124043) 45668 90656 1
(0.480788 0.00932885 0.251195 0.258688) 45661 90641 2
(0.605751 0.029996 0.170996 0.193257) 45659 90637 2
(0.236608 0.382435 0.322104 0.0588535) 45665 90650 1
(0.377591 0.311649 0.162943 0.147817) 45667 90656 1
(0.121579 0.447966 0.132343 0.298112) 45715 90837 1
(0.531568 0.234129 0.187463 0.0468397) 45712 90746 1
(0.472083 0.188839 0.0753243 0.263753) 45710 90740 2
(0.0618588 0.469062 0.0897568 0.379323) 45712 90744 1
(0.750567 0.12464 0.123379 0.00141439) 45709 90740 1
(0.193876 0.403582 0.0483997 0.354142) 45752 90826 1
(0.16722 0.42852 0.118901 0.28536) 45757 90921 1
(0.0809294 0.185953 0.459228 0.273889) 45845 91012 2
(0.13934 0.487454 0.261404 0.111802) 45789 90985 1
(0.20373 0.39842 0.167569 0.230281) 45840 91002 1
(0.750726 0.125565 0.0195773 0.104131) 45889 91097 1
(0.346482 0.176672 0.152917 0.323929) 45939 91197 2
(0.294751 0.353037 0.22854 0.123672) 45890 91100 1
(0.0160768 0.189681 0.491853 0.302389) 45885 91092 2
(0.624624 0.0782685 0.109601 0.187507) 45879 91078 2
(0.0744545 0.467128 0.365146 0.0932716) 45888 91183 1
(0.207818 0.396163 0.364135 0.0318844) 45883 91088 1
(0.840685 0.0664218 0.0138929 0.0790004) 45931 91182 2
(0.0616648 0.40658 0.0804721 0.451283) 45976 91271 2
(0.413002 0.205913 0.0954803 0.285605) 45977 91273 2
(0.659944 0.170177 0.0659584 0.10392) 45976 91274 1
(0.401371 0.299407 0.0421683 0.257054) 45972 91264 1
(0.770866 0.0919795 0.0989575 0.0381969) 46010 91427 2
(0.414668 0.292826 0.0694622 0.223044) 46014 91348 1
(0.231677 0.367112 0.363108 0.0381021) 46018 91443 2
(0.25172 0.21625 0.362831 0.169199) 46019 91445 2
(0.76305 0.11821 0.107018 0.0117216) 46061 91442 1
(3.39597e-09 0.515958 0.484042 1.81795e-08) 43412 140818 1
(0.0411399 0.480869 0.0497747 0.428216) 43460 86242 1
(0.0762512 0.138645 0.324099 0.461004) 43503 86326 2
(0.0601683 0.470589 0.263624 0.205619) 43504 86330 1
(0.376906 0.363992 0.0541348 0.204967) 43502 86411 1
(0.231058 0.280954 0.335297 0.152691) 43502 86411 2
(0.730237 0.00861729 0.211976 0.04917) 43544 189510 2
(0.332299 0.334877 0.175216 0.157608) 43545 86412 1
)


// ************************************************************************* //
