/*--------------------------------*- C++ -*----------------------------------*\
  =========                 |
  \\      /  F ield         | OpenFOAM: The Open Source CFD Toolbox
   \\    /   O peration     | Website:  https://openfoam.org
    \\  /    A nd           | Version:  7
     \\/     M anipulation  |
\*---------------------------------------------------------------------------*/
FoamFile
{
    version     2.0;
    format      ascii;
    class       scalarField;
    location    "0.1125/lagrangian/reactingCloud1";
    object      tTurb;
}
// * * * * * * * * * * * * * * * * * * * * * * * * * * * * * * * * * * * * * //


527
(
0.0017437
0.002603
0.006333
0.00121955
0.00117635
0.00075955
0.006213
0.00233605
0.00094435
0.000254
0.006141
0.0023305
0.00027035
6.96182e-05
0.006045
0.00139305
0.000973
0.00526385
0.00022235
0.000484585
0.0022635
0.001224
0.0023855
0.005877
0.0001587
0.005853
0.002164
0.00072255
0.0013882
0.0021235
0.005733
0.00221076
0.000637
0.0021662
0.005709
0.005613
0.00194505
0.00189705
0.005589
0.001392
0.005541
0.00084135
0.00176328
0.00109435
0.005469
0.005445
0.00161204
0.00161
0.000177841
0.00111002
0.00086235
0.005301
0.000213764
0.0010833
0.000391735
0.005205
0.00139762
0.00096355
0.005133
0.0003595
0.0013955
0.000781512
0.004965
0.00103363
0.00072355
0.00112365
0.00107161
0.0014222
0.0013502
0.000478037
0.0001785
0.001557
0.001533
0.001509
0.001485
0.001461
0.001437
0.001413
0.001389
0.001365
0.001341
0.001317
0.001293
0.001269
0.001245
0.001221
0.001197
0.001173
0.001149
0.001125
0.001101
0.001077
0.001053
0.00045305
0.001005
0.000981
0.000957
0.000933
0.000909
0.000885
0.000861
0.000837
0.000813
0.000789
0.000765
0.000741
0.000717
0.000693
0.000669
0.000645
0.000621
0.000597
0.000573
0.000549
0.000525
0.000501
0.000477
0.000453
0.000429
0.000405
0.000381
0.000380625
0.000357
0.000333
0.000309
0.000285
0.000261
0.000237
0.000213
0.000189
0.000165
0.000141
0.000117
9.3e-05
6.9e-05
4.5e-05
2.1e-05
0.000952196
0.00089135
0.00091785
0.00065855
0.002381
0.002949
0.002901
0.002829
0.002781
0.00143601
0.000242291
0.002709
0.002733
0.002685
0.002661
0.00112115
0.002613
0.002589
0.002565
0.002541
0.002493
0.0005172
0.0004692
8.21037e-07
0.002349
7.17226e-05
0.002301
9.53766e-06
0.00132035
0.0006557
0.002253
0.002205
0.002181
0.000802836
0.0001332
0.002085
0.002109
0.00103785
0.002013
0.001989
0.001965
0.00048485
0.0011467
0.001917
0.001893
0.001845
0.001869
0.00094105
0.001821
0.001797
0.001773
0.00134055
0.000508
0.001701
0.001677
0.00029679
0.001653
0.001629
0.001581
0.00062905
0.000108843
0.000224205
0.00010685
0.000466
0.004053
8.96995e-05
0.003981
0.004005
0.000359323
0.0003422
0.003909
0.003885
0.003933
7.15e-05
0.003813
0.003717
0.000117651
0.003789
0.003765
0.003645
0.003669
0.003693
0.003741
0.003621
0.003501
0.003525
0.003405
0.003429
0.003573
0.003549
0.00119173
0.003381
0.003477
0.003309
0.000172262
0.003237
0.003117
0.003141
0.003189
0.003285
0.003261
0.003213
0.003021
0.00302062
0.00013935
0.0002422
0.003045
0.002877
0.002997
0.002925
0.0010692
0.002973
0.002805
0.0006087
0.000864797
0.0010555
0.004797
0.000931
0.00109225
0.004701
0.00295472
0.004677
0.000904646
0.004725
0.0008485
0.004653
0.004581
0.004557
0.004509
0.004485
0.000707661
0.004461
0.00072105
0.000730795
0.00064905
0.004389
0.004317
0.004269
0.0006602
0.000473578
0.004173
0.000658565
0.004149
0.0007495
0.00058229
0.000353
0.0005355
0.004077
0.00257635
0.00069085
0.00417905
0.0006877
0.00544335
0.0007402
0.0012842
0.000965755
0.0004215
0.00153805
0.00263685
0.00045585
0.0021357
0.0019887
0.00253335
0.00465719
0.0018927
0.0018207
0.006445
0.00501135
0.00072535
0.00265105
0.0033027
0.00236606
0.0044152
0.0017422
0.0001847
0.004229
0.00194055
0.00479535
0.00410571
0.00120405
0.0027662
0.00550235
0.00707854
0.00351535
0.00242735
0.002977
0.00016605
0.0031735
0.0033095
0.0044677
0.00734505
0.003869
0.00443535
0.0011967
0.001254
0.010749
0.00142835
0.00467101
0.00243735
0.00050605
0.0029817
0.0012182
0.0027565
0.010557
0.00318585
0.00034855
0.00269822
0.00279005
0.001705
0.0019907
0.00327935
0.000914039
0.0006975
0.00310385
0.00147959
0.002091
0.0006447
0.00324805
0.00167305
0.0015487
0.000689
0.00112124
0.003029
0.0031355
0.00371535
1.30368e-05
0.00293405
0.0031915
0.006053
0.00037355
0.0001462
0.00324622
0.00333455
0.00309955
0.00559555
0.005745
0.00277035
0.000666103
0.00619305
0.00144756
0.00421255
0.00311535
0.00313935
0.00112057
0.009549
0.00353513
0.00585216
0.002488
0.0007317
0.00165685
0.00136205
0.0016275
0.0009952
0.0015667
0.0029767
3.705e-05
0.00064555
0.0025787
0.00262356
0.0009965
0.00060285
0.002141
0.00030355
0.00155455
0.0027205
0.0014797
0.00501955
0.000166591
0.00068785
0.00211085
0.00322235
0.00251535
0.00055835
0.0014792
0.00356885
0.00310235
0.00018085
0.0050285
0.001685
0.003757
0.00297285
0.00250677
0.00206405
0.00229185
0.00369302
0.00205405
0.001469
0.003541
0.00045055
0.00283835
0.00260662
0.00163835
0.002413
0.008517
0.00253155
0.00496575
0.005417
4.30313e-05
0.000494
0.00039985
0.00186735
0.000160141
0.00451935
0.0033045
0.00220912
0.0013787
0.0009792
0.000920808
0.000184729
0.008037
0.007989
0.00221435
0.00010561
0.00143235
0.00249374
0.0058455
0.00157132
0.007821
0.00138735
0.00329771
0.00124985
0.007797
7.2e-06
0.000581
0.00131683
0.0008252
0.001051
0.0033392
0.00336355
0.00108705
0.00166235
0.00189651
0.0026617
0.0035377
0.00028455
0.000173
0.0013267
0.003485
0.000101
0.00144635
0.007221
0.0023612
0.003262
0.0011505
2.9e-05
0.0017005
0.00334
0.00174961
0.0020432
0.00283555
0.00011385
0.006981
0.006957
0.00120635
0.000455774
0.0008572
0.00081155
0.0029815
0.00140615
0.00108635
0.001789
0.0015057
0.00151755
0.006693
0.001134
0.00175935
0.002814
0.0017497
0.00285526
0.006597
0.00166905
0.006621
3.35e-05
0.0019037
0.00020655
0.00096205
0.006501
0.006381
0.006405
0.00278754
0.00259802
0.00268905
0.00133753
0.0046355
0.00653435
0.0005997
0.00253335
0.0025407
0.0055067
0.0024207
)


// ************************************************************************* //
