/*--------------------------------*- C++ -*----------------------------------*\
  =========                 |
  \\      /  F ield         | OpenFOAM: The Open Source CFD Toolbox
   \\    /   O peration     | Website:  https://openfoam.org
    \\  /    A nd           | Version:  7
     \\/     M anipulation  |
\*---------------------------------------------------------------------------*/
FoamFile
{
    version     2.0;
    format      ascii;
    class       vectorField;
    location    "0.1125/lagrangian/reactingCloud1";
    object      U;
}
// * * * * * * * * * * * * * * * * * * * * * * * * * * * * * * * * * * * * * //


527
(
(330.49 13.8525 9.01193)
(439.007 -1.73663 -3.54598)
(440.551 -0.0539871 3.90118e-07)
(399.305 2.50505 -6.85034)
(394.341 5.86147 -4.08467)
(422.515 4.44081 -3.27575)
(440.934 -0.0245422 1.88652e-06)
(452.054 -2.88096 10.3731)
(400.519 -0.158134 1.53608)
(417.587 7.43978 3.10673)
(440.492 -0.0487085 6.0612e-06)
(437.896 -15.287 14.8321)
(436.591 7.31311 -2.83544)
(430.651 -0.261584 0.0362291)
(440.707 -0.0264742 -3.53845e-07)
(417.746 -4.29237 0.969187)
(437.134 -3.49991 -1.84237)
(442.023 -14.0231 -3.46785)
(444.287 -3.80361 10.6124)
(419.087 -1.06202 -1.72216)
(419.192 -2.22244 12.4131)
(414.682 -2.37308 -3.52905)
(432.959 -8.70575 0.236832)
(440.404 -0.0257957 -7.20621e-06)
(442.763 6.92076 -9.87565)
(440.458 -0.0177861 1.97103e-07)
(433.357 -8.66549 7.72219)
(412.877 1.63875 -3.01798)
(395.359 -4.78103 1.73234)
(429.141 -0.31313 -0.190572)
(439.953 -0.0081592 -7.79925e-08)
(440.732 -6.63965 4.84316)
(431.928 -5.92273 0.943673)
(442.214 -3.79553 -6.61841)
(439.259 0.00716369 -2.74241e-05)
(440.101 0.00296494 -6.66534e-06)
(437.592 -3.02242 0.0917857)
(437.068 -11.5105 11.8956)
(439.696 0.0423875 2.18269e-06)
(438.036 -1.63077 7.3437)
(439.606 0.065116 2.14631e-06)
(405.54 -7.45278 -1.96531)
(438.739 -4.8299 7.08814)
(381.957 1.26715 11.6593)
(439.388 0.123157 -7.38932e-05)
(439.445 0.115477 -3.02105e-05)
(434.361 1.63825 1.47771)
(431.645 -2.30395 -1.65305)
(423.811 -5.43986 -0.851407)
(420.598 -1.67716 -1.91538)
(407.521 0.252927 -0.00625625)
(438.705 0.356365 -2.48763e-06)
(408.047 0.321942 -0.565364)
(441.923 -3.68481 -0.406678)
(417.269 0.528227 4.00428)
(438.347 0.49687 -1.7166e-05)
(437.686 0.0891119 2.71252)
(439.566 -2.34176 1.96434)
(438.125 0.557056 -0.000177759)
(402.374 1.50937 -7.50045)
(434.215 1.16637 -5.33769)
(400.991 5.15357 -6.83957)
(437.168 0.569472 -0.000162223)
(430.785 5.00896 1.32512)
(446.389 8.60106 5.06475)
(434.421 0.587296 -3.08112)
(425.307 -7.84254 3.07845)
(422.031 -3.90421 -1.88958)
(429.27 1.44938 0.988598)
(56.7932 16.114 -2.19985)
(100.267 32.1064 1.66454)
(128.34 11.4528 0.000331807)
(133.631 2.25453 7.3089e-05)
(124.625 20.5364 -0.000159415)
(127.294 19.6067 -1.84623e-06)
(135.303 7.72878 2.70519e-05)
(135.82 9.38288 0.000174177)
(133.705 18.9946 -0.000236111)
(138.265 10.0558 -0.000227682)
(139.701 8.60911 -0.00014688)
(141.303 4.4092 6.28823e-06)
(138.507 25.8133 -0.00244289)
(135.642 31.4074 -8.8257e-05)
(144.56 17.542 -0.00178718)
(146.096 10.6668 -0.000380258)
(147.32 8.45455 -0.000119202)
(149.273 11.5722 -0.000355082)
(152.377 23.748 -0.00102638)
(153.668 27.4479 -0.00227114)
(155.127 26.9959 -7.18859e-05)
(158.651 21.2771 -0.000425756)
(153.011 4.34272 -5.53644e-05)
(154.399 5.63681 -0.000852501)
(142.507 12.4708 9.76867)
(166.103 16.3947 -0.00160482)
(156.814 4.63387 -3.8732e-05)
(168.131 13.0895 -0.00176905)
(159.208 5.23528 -3.3299e-05)
(159.771 5.01463 -0.000201118)
(161.764 5.84332 -0.000836633)
(161.122 4.55907 8.4897e-07)
(161.947 4.44152 6.08988e-05)
(168.277 6.36302 0.000546546)
(163.806 4.33212 0.000126074)
(163.251 3.61293 -0.00126943)
(163.6 3.35229 -0.000201151)
(167.201 2.12563 -0.000618412)
(165.884 3.32916 -7.37764e-06)
(164.926 2.76413 4.21867e-05)
(165.861 2.63208 -0.000189702)
(163.213 0.895767 -1.8354e-06)
(164.132 1.68189 3.93322e-06)
(163.218 0.00264213 -0.000136356)
(166.864 0.783032 0.000547182)
(166.693 0.938952 -0.000553502)
(164.644 1.17453 -4.33391e-05)
(164.276 0.468417 3.4427e-07)
(164.288 -0.0358734 -7.33854e-05)
(164.496 0.0209128 -4.20674e-08)
(165.581 1.0049 -3.23529e-05)
(164.745 0.172024 3.56785e-05)
(165.237 -0.0424256 -1.43526e-05)
(164.739 -0.0869981 0.000246185)
(165.968 0.227915 -3.8224e-05)
(165.434 0.756464 -6.7657e-05)
(85.3635 -0.120704 4.66575e-06)
(165.29 0.519142 1.54468e-05)
(165.579 0.63212 -2.21207e-05)
(165.732 0.23906 -2.11448e-05)
(165.562 -0.0541194 0.000109411)
(165.665 0.342876 -4.76972e-06)
(165.478 0.408249 6.05224e-06)
(165.614 0.454421 -1.41498e-05)
(165.464 -0.0561339 0.000375319)
(165.595 -0.0233172 1.86872e-05)
(165.601 0.413913 -8.58165e-06)
(165.566 0.446059 2.97537e-05)
(48.0578 -11.6389 5.00446)
(55.9789 -10.5186 -12.748)
(39.4069 -4.64446 1.04812)
(77.438 -12.305 3.73977)
(78.6087 -25.5676 -3.51756)
(112.002 -18.2619 -0.00149061)
(113.305 -17.5513 0.00227834)
(110.88 -15.8913 0.00129396)
(122.482 -13.1865 0.000749866)
(82.4265 -10.9142 7.63557)
(105.476 -18.5951 -7.33915)
(126.676 -7.77528 0.000160862)
(109.686 -13.8541 -0.000133609)
(123.35 -9.44312 0.00100584)
(104.128 -12.3647 -0.000244755)
(76.3562 -13.8928 -3.74755)
(114.57 -10.7323 -0.000113995)
(101.714 -10.9134 -1.43464e-05)
(112.705 -9.90166 0.00208911)
(111.003 -9.53381 3.6046e-05)
(113.362 -7.92593 5.48353e-05)
(114.311 -19.1694 -5.34244)
(87.258 -11.8869 -1.00318)
(94.4993 -7.91416 2.46536)
(113.773 -4.53246 0.00142794)
(95.8466 -4.88207 -2.46559)
(112.886 -3.71897 4.85591e-05)
(88.9059 -9.4613 -11.2089)
(90.8062 -6.55604 -1.88299)
(76.8247 -1.16228 -3.30001)
(101.073 -3.12952 0.000541387)
(120.001 -0.742773 9.73947e-05)
(109.537 -1.11896 0.00271063)
(81.5884 -3.42985 -22.2035)
(91.1895 2.2439 0.707976)
(115.742 0.817696 0.000407132)
(102.058 1.38216 0.00172326)
(94.237 -5.40016 -2.50466)
(111.314 3.19804 4.04382e-05)
(120.903 1.14548 3.31157e-05)
(118.108 2.69331 0.00100595)
(57.563 10.2701 0.634687)
(92.3233 -3.77155 10.8013)
(120.853 2.51726 6.36011e-05)
(110.2 7.28019 4.79183e-05)
(118.189 6.05252 -0.000105198)
(100.443 10.5718 0.00269296)
(77.3226 10.7189 -1.44657)
(122.464 4.1001 -0.000163488)
(115.862 8.79676 0.00204341)
(120.052 7.63315 0.000582759)
(112.438 1.71859 -6.35078)
(72.445 16.6833 4.94733)
(108.351 17.104 0.0063172)
(119.315 12.5366 -0.00104016)
(92.776 23.3527 6.14528)
(128.06 5.23922 -2.02191e-05)
(127.291 7.84068 0.00149312)
(127.603 10.8402 2.99055e-05)
(96.5857 20.2946 -0.665056)
(264.243 -18.4734 4.27135)
(113.835 -31.6284 -2.44791)
(340.766 -14.6723 -1.31806)
(349.696 -5.13967 14.6366)
(345.34 -8.76091 -0.00246467)
(340.988 -4.61372 6.43903)
(336.873 -8.98406 2.1129e-06)
(334.99 -11.4128 2.05913e-05)
(317.964 -22.0366 2.08423)
(327.965 -26.9714 -9.74143)
(321.128 -11.7911 0.000536076)
(318.301 -10.5909 -0.000361975)
(315.983 -18.1311 -0.00370111)
(292.731 -28.2875 -5.73981)
(273.883 -31.3609 0.00154051)
(260.089 -23.0091 -0.00121392)
(226.047 -47.9567 -1.29069)
(235.872 -42.9074 0.00101545)
(232.916 -41.8581 0.000181142)
(248.846 -13.3087 0.000242672)
(238.421 -27.0009 0.000116391)
(219.631 -37.784 0.000587426)
(188.562 -45.2293 -0.00108812)
(192.894 -38.0171 -0.00014661)
(199.584 -22.6683 0.000195279)
(181.337 -33.361 0.000285137)
(194.78 -4.92598 0.000289527)
(191.112 -17.7915 6.3459e-06)
(167.185 -38.0905 2.0278e-05)
(166.313 -36.7632 0.00132875)
(154.153 -36.4675 4.33462)
(166.478 -27.179 0.000839301)
(152.877 -34.9277 -0.00012595)
(152.972 -27.0396 0.00116196)
(124.561 -39.1622 -0.749391)
(147.398 -24.8632 -0.000215475)
(153.613 -11.2509 0.000794616)
(148.83 -17.929 -4.33555e-05)
(142.433 -23.785 0.000103885)
(128.825 -28.8331 -0.000361199)
(125.569 -27.825 0.000642853)
(124.888 -26.8322 -0.000559105)
(133.273 -18.7849 0.00240373)
(133.602 -18.5103 0.000793179)
(111.831 -25.0333 -1.02569)
(104.277 -30.4503 -3.77492)
(124.129 -21.5708 0.0017737)
(138.253 -4.72371 -8.91213e-06)
(126.155 -19.6872 -4.62665e-06)
(131.004 -15.18 -8.81235e-05)
(113.085 -14.0423 -4.43626)
(119.879 -19.6197 0.00313306)
(126.923 -11.8755 -9.54011e-05)
(408.958 -7.43764 -11.4315)
(403.436 0.483789 -1.77291)
(431.528 -2.33117 -14.2958)
(434.039 1.02732 -1.05303e-06)
(431.972 0.914373 0.834389)
(429.907 -2.96506 -1.20656)
(431.639 0.818132 -3.54623e-07)
(415.735 -6.74581 -10.2201)
(430.448 1.00849 -9.75257e-07)
(431.854 3.1464 -3.15415)
(428.924 1.62793 2.52365e-07)
(423.564 4.82769 -2.8227)
(425.468 1.41281 5.40831e-07)
(425.653 0.90273 0.000112093)
(422.948 0.902513 2.71805e-06)
(421.353 0.575918 4.0332e-05)
(419.545 0.464748 6.99222e-05)
(417.462 3.4145 -5.65842)
(415.634 0.258467 4.69986e-05)
(405.87 2.72088 2.17848)
(403.495 -0.218904 -0.90048)
(406.917 1.24086 -1.92178)
(406.729 -0.503449 3.01642e-05)
(404.417 -0.405841 -1.80822e-06)
(401.364 -0.214916 -2.12329e-05)
(380.248 -1.77174 0.8488)
(383.034 2.16311 -1.47856)
(383.805 -1.04851 -0.000321896)
(377.323 -5.34196 -4.94031)
(378.234 -1.59425 1.4425e-05)
(350.713 -11.4116 10.0762)
(363.679 -7.56425 -0.169146)
(361.698 -7.49631 1.20524)
(359.378 -8.65837 -0.553277)
(360.157 -4.11459 -0.00140312)
(374.675 14.1205 9.57199)
(435.738 -1.54454 -1.80865)
(431.883 -0.0819625 -0.0579028)
(400.307 6.70084 18.0402)
(440.108 -4.53314 -2.53559)
(416.061 -0.14157 0.565987)
(421.798 -1.10545 3.17891)
(431.73 0.000817626 0.855961)
(445.683 1.099 2.18047)
(446.8 -2.28965 -0.677176)
(432.415 -6.10401 -7.39412)
(398.23 -7.95385 -12.4764)
(424.946 0.66823 1.32776)
(441.139 -3.65018 -5.85625)
(446.901 -4.86409 1.07955)
(439.407 -6.26542 -7.06461)
(431.501 2.29902 -10.5559)
(439.972 -0.808832 5.13998)
(439.69 -4.83865 -7.55935)
(439.948 -4.33455 -6.79522)
(395.437 5.52125 14.7141)
(385.113 11.2736 8.32345)
(400.296 1.70881 -3.97331)
(433.407 0.724749 -5.86694)
(431.819 -5.78667 11.4681)
(445.573 0.00164862 0.0670389)
(432.379 3.65319 -4.65501)
(432.965 -3.72551 2.16407)
(454.708 -15.4592 -8.78464)
(444.148 -3.02807 -0.804052)
(443.688 0.000749203 -0.0230265)
(429.628 -4.6039 -2.92906)
(419.465 -5.3948 3.20608)
(436.272 -4.56662 9.28625)
(460.981 -7.21848 12.2191)
(401.924 -0.229162 1.47884)
(400.331 1.42036 1.09705)
(430.784 -3.4923 1.23123)
(376.299 -3.78033 0.383157)
(455.355 -5.25565 8.80295)
(422.682 1.28108 3.41138)
(371.692 5.10556 5.68711)
(438.731 -6.85886 -2.06108)
(421.783 2.98725 8.41403)
(437.916 -3.05038 -1.96007)
(439.974 -3.6492 7.65473)
(437.824 2.38074 -3.01722)
(442.935 0.00179039 -3.152e-07)
(386.887 19.3747 -8.90226)
(458.615 -8.40875 13.5215)
(362.127 10.0964 -13.6193)
(441.047 -10.9298 2.05087)
(427.326 -2.0677 7.52109)
(423.155 3.95031 4.53175)
(416.591 -0.380476 -0.00705167)
(442.851 -0.0328153 -6.72438e-07)
(391.329 -1.27951 -9.57001)
(435.738 -6.83179 -1.98827)
(446.849 2.20221 -4.08216)
(407.436 0.976225 11.5054)
(422.845 -8.70277 -5.96593)
(406.283 -0.192878 7.16578)
(429.668 -10.8151 -3.19586)
(419.69 -6.46244 3.67412)
(411.224 -0.132872 -0.118238)
(395.693 -2.48632 1.24113)
(439.651 -8.61013 -0.208889)
(432.358 -6.29685 6.09051)
(438.859 -2.07993 -0.521977)
(410.021 2.94944 -3.947)
(423.228 -0.764035 0.929796)
(409.044 -3.84128 9.95127)
(438.381 -1.7507 0.891818)
(440.694 -3.29492 2.2769)
(442.162 -2.43351 0.573742)
(421.077 -0.501795 -0.00017953)
(434.418 -2.47172 -0.605679)
(431.985 -0.822512 -7.19413)
(421.466 -2.49358 -1.93574)
(383.992 5.61823 -10.572)
(451.729 -5.28195 1.17837)
(425.179 1.65843 -3.63065)
(426.086 5.19551 -9.22229)
(426.491 -3.20464 0.321328)
(432.249 -5.22328 -8.32627)
(436.528 -8.60942 0.36182)
(443.985 -6.17093 -7.02077)
(460.292 -9.72036 -5.70033)
(430.482 -6.95706 -0.636063)
(438.394 2.77902 2.16298)
(427.952 -9.16292 -10.879)
(414.271 8.21384 -4.75808)
(335.372 12.3004 7.92473)
(444.645 -4.06109 3.61618)
(433.896 1.12699 -8.37368)
(442.186 -2.38766 3.02672)
(442.792 -0.0300754 -1.21902e-05)
(445.012 -5.99004 1.28973)
(435.509 -6.65558 6.62917)
(396.636 8.25291 2.08019)
(380.656 1.07522 1.31582)
(427.737 0.423929 -2.66429)
(395.062 7.59401 3.36076)
(421.235 -1.70722 3.3553)
(381.271 8.07801 -5.46755)
(409.741 -6.70136 2.15061)
(402.772 -2.59333 -3.85171)
(416.355 2.87577 -7.25784)
(392.848 -11.1318 4.85974)
(416.653 0.184695 -6.67986)
(423.911 -0.385469 3.47409)
(401.499 1.25284 0.123494)
(398.1 6.39118 -4.64925)
(442.642 3.27768 3.44097)
(440.27 -0.181448 -0.344632)
(431.66 -0.329112 0.86119)
(422.603 -6.43641 -1.64652)
(429.382 -1.88377 -3.35098)
(438.143 -5.37176 11.1334)
(438.695 -2.37148 -0.235129)
(396.858 -0.0626174 1.92454)
(387.996 13.6517 -7.46814)
(427 0.655383 -6.94375)
(433.557 1.94008 -0.937734)
(424.368 -8.52642 1.30808)
(417.442 -4.29838 8.24143)
(421.059 -12.7269 -15.0796)
(428.998 3.40511 3.72652)
(426.121 10.5007 -15.0883)
(437.581 -4.58299 3.16337)
(442.699 -4.06372 -5.86678)
(434.15 -0.236545 -0.00470799)
(429.683 -7.03027 6.78768)
(435.553 -5.65932 -3.8717)
(408.496 -1.62106 1.76777)
(390.586 3.97442 7.13956)
(430.823 -5.03236 -1.32842)
(381.382 1.83682 -17.9261)
(437.886 1.18504 -2.21891)
(441.013 -0.211735 2.59251)
(361.589 5.05516 2.06868)
(409.269 1.47104 -13.5416)
(459.541 -10.7301 -6.23906)
(410.439 -9.04631 -19.0282)
(412.137 0.528244 -3.11539)
(442.661 -0.0121114 -3.19397e-06)
(427.595 -6.51392 -1.17186)
(443.747 -15.0358 -3.12496)
(443.889 -7.15734 -0.176247)
(428.111 4.97945 0.87339)
(432.28 -0.878707 -1.57786)
(425.555 -7.40723 19.7836)
(436.459 -4.39554 -0.816955)
(439.965 0.460102 -0.539913)
(435.799 -4.18238 -2.16666)
(352.297 8.03275 -10.616)
(413.766 -0.39121 0.986555)
(442.247 -18.1187 -3.75392)
(431.504 -1.33074 -2.52048)
(444.396 5.88202 1.54922)
(444.926 -0.00493365 -0.0220997)
(442.415 -0.00418003 -3.45394e-06)
(442.561 -0.00709713 -6.05217e-06)
(434.511 -3.36096 1.14174)
(441.738 5.12923 0.311373)
(388.204 4.88005 -0.0807429)
(434.342 -6.16064 -8.59263)
(440.288 -12.8028 2.40424)
(355.116 8.93029 3.84899)
(442.577 -0.00273061 -1.25035e-05)
(438.941 -3.44648 2.41398)
(438.721 -22.2872 4.18386)
(423.903 0.269406 -10.187)
(442.219 0.0114631 -2.23312e-06)
(408.966 -0.247508 -11.7599)
(443.576 1.2469 -1.86854)
(429.795 -0.651048 0.639497)
(403.682 -6.81878 -3.41058)
(418.629 2.38604 -6.19087)
(438.814 0.0342312 0.950951)
(435.533 -2.93495 -0.759178)
(421.092 -8.45799 3.59379)
(442.916 -12.657 -2.633)
(410.952 -2.3129 -4.13012)
(457.449 -9.60646 15.5761)
(438.853 -3.25105 -4.65596)
(407.141 -0.414286 -0.18469)
(441.644 0.0468149 0.0243514)
(423.936 -7.21454 3.0536)
(448.177 -18.7205 -5.09512)
(441.238 -0.252283 -1.13081)
(439.505 -3.77849 2.69487)
(441.998 0.0109105 -1.43338e-05)
(423.874 -6.34941 -13.3805)
(439.527 -9.45691 1.74555)
(422.839 -1.47528 -2.79804)
(439.688 0.224052 0.204844)
(364.584 15.8889 -7.27752)
(441.849 -3.56292 -3.88021)
(386.789 7.66455 -4.47549)
(440.243 -9.30913 -0.226847)
(441.568 -2.37453 0.270285)
(419.792 2.53266 1.62639)
(441.824 0.00810835 -8.3983e-07)
(441.962 0.0163456 -1.26221e-06)
(430.442 0.910276 0.0719584)
(418.881 9.40439 -3.75349)
(366.203 5.67394 4.7179)
(413.668 -11.7458 5.18239)
(434.741 -0.0613964 4.35617)
(421.653 -4.29007 5.03472)
(442.983 6.32531 1.68151)
(436.972 -2.43164 5.04681)
(414.391 0.210865 -10.2609)
(394.263 -1.0231 0.958015)
(441.744 0.00288692 -1.138e-06)
(454.752 -23.2389 3.962)
(400.441 1.48196 -3.39989)
(339.075 7.45198 -12.9941)
(393.598 3.45308 -0.059894)
(442.345 -3.05035 5.87333)
(441.587 -0.00109472 1.49299e-06)
(420.57 -5.49913 3.63273)
(441.04 -0.0325052 5.63754e-06)
(443.181 6.03473 -12.3715)
(429.13 -6.83216 0.285501)
(404.237 -0.43869 -0.186499)
(420.301 0.840906 1.04666)
(440.825 -0.0574801 -5.70089e-07)
(441.334 -0.0046881 -9.18354e-07)
(441.148 -0.0221508 8.13732e-07)
(424.598 -3.44678 -4.34962)
(434.927 -1.58004 -11.2534)
(435.737 -7.02154 8.60488)
(442.954 0.00149568 -0.0800513)
(430.272 -0.501625 1.80586)
(439.129 -4.89617 -2.65126)
(434.611 0.112894 1.07407)
(455.687 -14.9113 11.7667)
(439.886 -2.09398 -0.605116)
(454.25 -12.0075 9.49479)
(441.377 -3.93641 -2.18531)
)


// ************************************************************************* //
