/*--------------------------------*- C++ -*----------------------------------*\
  =========                 |
  \\      /  F ield         | OpenFOAM: The Open Source CFD Toolbox
   \\    /   O peration     | Website:  https://openfoam.org
    \\  /    A nd           | Version:  7
     \\/     M anipulation  |
\*---------------------------------------------------------------------------*/
FoamFile
{
    version     2.0;
    format      ascii;
    class       vectorField;
    location    "0.1125/lagrangian/reactingCloud1";
    object      UTurb;
}
// * * * * * * * * * * * * * * * * * * * * * * * * * * * * * * * * * * * * * //


527
(
(-24.8339 14.1532 9.01193)
(3.07739 -1.47427 -3.54599)
(0 0 0)
(-2.71389 3.07067 -6.85033)
(-1.65369 6.45571 -4.08464)
(4.3719 4.9054 -3.27575)
(0 0 0)
(12.9846 -2.73808 10.3731)
(-3.20616 0.398519 1.53611)
(2.27132 7.92791 3.10674)
(0 0 0)
(-2.76914 -15.254 14.8321)
(-3.29233 7.40031 -2.83544)
(0.00561194 0.0912389 0.036235)
(0 0 0)
(4.05458 -3.79786 0.96924)
(-2.75123 -3.41687 -1.84237)
(1.53713 -13.9831 -3.46785)
(4.37785 -3.72247 10.6124)
(-1.38716 -0.626704 -1.72215)
(-18.1155 -2.02357 12.4132)
(9.6967 -1.84038 -3.52903)
(-6.45064 -8.61303 0.236854)
(0 0 0)
(9.48132 7.20909 -9.87565)
(0 0 0)
(-1.437 -8.41828 7.7222)
(3.76139 2.10661 -3.01793)
(-3.16334 -4.27425 1.73237)
(-0.0461001 -0.0164118 -0.190469)
(0 0 0)
(2.74148 -6.53392 4.84318)
(-7.46135 -5.91807 0.943725)
(8.41531 -3.59588 -6.61837)
(0 0 0)
(0 0 0)
(1.47468 -2.9091 0.0918335)
(-2.26674 -11.5564 11.8956)
(0 0 0)
(-0.528271 -1.68063 7.34376)
(0 0 0)
(-15.8491 -7.31478 -1.96526)
(0.547801 -4.8917 7.08817)
(-2.8706 1.57909 11.6594)
(0 0 0)
(0 0 0)
(-1.80379 1.48772 1.4778)
(-5.86074 -2.60455 -1.65299)
(3.88448 -5.62447 -0.851162)
(0.63689 -1.95671 -1.91507)
(0.0902199 0.0987692 -0.00621239)
(0 0 0)
(1.80665 0.0342994 -0.565046)
(3.8316 -4.13734 -0.406646)
(8.33028 0.0966163 4.00446)
(0 0 0)
(2.19524 -0.63464 2.71281)
(2.02311 -3.04879 1.9644)
(0 0 0)
(2.12112 0.743506 -7.50019)
(3.46065 0.136005 -5.33758)
(18.6843 4.20464 -6.83909)
(0 0 0)
(-4.25351 3.65728 1.32515)
(11.5414 7.12885 5.06484)
(0.589464 -1.04486 -3.08106)
(-9.64006 -9.26683 3.07849)
(-10.2057 -5.67431 -1.88937)
(3.28791 -0.505541 0.988671)
(1.72678 1.72105 -2.20003)
(3.71067 6.22684 1.66136)
(0 0 0)
(0 0 0)
(0 0 0)
(0 0 0)
(0 0 0)
(0 0 0)
(0 0 0)
(0 0 0)
(0 0 0)
(0 0 0)
(0 0 0)
(0 0 0)
(0 0 0)
(0 0 0)
(0 0 0)
(0 0 0)
(0 0 0)
(0 0 0)
(0 0 0)
(0 0 0)
(0 0 0)
(0 0 0)
(-25.5674 -3.91375 9.76862)
(0 0 0)
(0 0 0)
(0 0 0)
(0 0 0)
(0 0 0)
(0 0 0)
(0 0 0)
(0 0 0)
(0 0 0)
(0 0 0)
(0 0 0)
(0 0 0)
(0 0 0)
(0 0 0)
(0 0 0)
(0 0 0)
(0 0 0)
(0 0 0)
(0 0 0)
(0 0 0)
(0 0 0)
(0 0 0)
(0 0 0)
(0 0 0)
(0 0 0)
(0 0 0)
(0 0 0)
(0 0 0)
(0 0 0)
(0 0 0)
(0 0 0)
(0 0 0)
(0 0 0)
(0 0 0)
(0 0 0)
(0 0 0)
(0 0 0)
(0 0 0)
(0 0 0)
(0 0 0)
(0 0 0)
(0 0 0)
(0 0 0)
(-4.98333 -4.99488 5.01371)
(-23.5187 1.65571 -12.7482)
(-1.93555 -0.65477 1.04809)
(-3.81814 0.204075 3.73889)
(-26.0936 -14.1576 -3.51886)
(0 0 0)
(0 0 0)
(0 0 0)
(0 0 0)
(-9.22607 0.474415 7.63437)
(1.15481 -4.98293 -7.33943)
(0 0 0)
(0 0 0)
(0 0 0)
(0 0 0)
(0.404375 -10.1749 -3.74683)
(0 0 0)
(0 0 0)
(0 0 0)
(0 0 0)
(0 0 0)
(16.2364 -9.07295 -5.3426)
(-6.49727 -5.35156 -1.00334)
(-1.06934 -0.907073 2.46385)
(0 0 0)
(1.84467 0.824809 -2.46957)
(0 0 0)
(-4.70462 -5.05143 -11.213)
(4.17692 -3.46926 -1.8841)
(4.71852 -1.33568 -3.30019)
(0 0 0)
(0 0 0)
(0 0 0)
(-5.90511 -5.8941 -22.2052)
(0.325851 -0.241166 0.705915)
(0 0 0)
(0 0 0)
(3.30992 -7.89513 -2.50694)
(0 0 0)
(0 0 0)
(0 0 0)
(-3.21345 0.617626 0.632038)
(-1.17558 -12.0142 10.8005)
(0 0 0)
(0 0 0)
(0 0 0)
(0 0 0)
(-3.41783 -2.18331 -1.4522)
(0 0 0)
(0 0 0)
(0 0 0)
(11.438 -11.3634 -6.35125)
(-1.05638 0.39475 4.94514)
(0 0 0)
(0 0 0)
(0.117701 3.13667 6.14481)
(0 0 0)
(0 0 0)
(0 0 0)
(0.231413 -3.25075 -0.66925)
(0.996573 1.47819 4.28366)
(-0.457413 0.447307 -2.44841)
(-1.55436 -3.13434 -1.31747)
(2.06096 5.82989 14.6368)
(0 0 0)
(4.45865 7.68174 6.43937)
(0 0 0)
(0 0 0)
(-1.2428 2.10779 2.08631)
(7.70577 -3.95398 -9.74129)
(0 0 0)
(0 0 0)
(0 0 0)
(0.0798978 8.95563 -5.74069)
(0 0 0)
(0 0 0)
(-0.0404655 2.82737 -1.29099)
(0 0 0)
(0 0 0)
(0 0 0)
(0 0 0)
(0 0 0)
(0 0 0)
(0 0 0)
(0 0 0)
(0 0 0)
(0 0 0)
(0 0 0)
(0 0 0)
(0 0 0)
(5.83733 4.43522 4.33301)
(0 0 0)
(0 0 0)
(0 0 0)
(1.13405 -5.26767 -0.749355)
(0 0 0)
(0 0 0)
(0 0 0)
(0 0 0)
(0 0 0)
(0 0 0)
(0 0 0)
(0 0 0)
(0 0 0)
(0.865374 1.11005 -1.02737)
(-1.46943 -5.26986 -3.77268)
(0 0 0)
(0 0 0)
(0 0 0)
(0 0 0)
(15.4757 8.28613 -4.44085)
(0 0 0)
(0 0 0)
(-15.6567 -9.58579 -11.4313)
(-26.1284 -1.59719 -1.77282)
(-0.402095 -4.23995 -14.2958)
(0 0 0)
(0.24099 -0.969381 0.834403)
(0.378553 -5.0329 -1.20646)
(0 0 0)
(-13.9978 -8.57015 -10.2201)
(0 0 0)
(3.90267 1.09205 -3.15405)
(0 0 0)
(-1.20573 2.87633 -2.82275)
(0 0 0)
(0 0 0)
(0 0 0)
(0 0 0)
(0 0 0)
(0.391884 2.37125 -5.65875)
(0 0 0)
(-6.03433 2.2503 2.17805)
(0.211071 -0.763645 -0.900529)
(1.27612 1.70011 -1.9225)
(0 0 0)
(0 0 0)
(0 0 0)
(-1.91086 1.19335 0.846977)
(1.35486 6.62365 -1.47863)
(0 0 0)
(-2.80681 -0.566101 -4.94004)
(0 0 0)
(-9.31873 -4.67912 10.0765)
(0.0292438 -0.0445952 -0.168281)
(-1.77248 -0.452996 1.20677)
(-1.12751 -0.676986 -0.554079)
(0 0 0)
(7.91551 14.5774 9.57197)
(1.22733 -1.37612 -1.80866)
(-0.174351 0.215719 -0.0576754)
(-1.5055 7.25014 18.0402)
(-0.508554 -4.61164 -2.53552)
(-2.00826 0.469805 0.565644)
(-2.72512 -0.508025 3.17899)
(-10.8453 -0.164822 4.38605)
(3.1383 1.09202 2.18046)
(4.65565 -2.40562 -0.677169)
(-10.1272 -6.20038 -7.3941)
(-0.14925 -7.33659 -12.4764)
(-1.57296 1.23133 1.32785)
(-0.832392 -3.78401 -5.85614)
(10.1708 -4.70707 1.07953)
(1.55344 -6.13649 -7.06464)
(-8.14186 2.31972 -10.5559)
(-2.01573 -0.926736 5.14022)
(-1.07444 -4.88437 -7.55905)
(-0.965819 -4.39057 -6.79485)
(-3.12078 6.16462 14.7141)
(18.9669 11.7154 8.32345)
(-0.807946 2.31525 -3.97334)
(-5.65077 0.833715 -5.86666)
(-4.0419 -5.47782 11.4684)
(2.80808 -3.07752 -3.79714)
(2.85975 4.18488 -4.65503)
(-6.97372 -3.63975 2.16403)
(26.6969 -14.9183 -8.78466)
(5.52802 -2.85639 -0.804057)
(0.874992 -0.981071 -1.28944)
(-1.19541 -4.13359 -2.92915)
(3.30194 -4.97596 3.20611)
(-3.27304 -4.43582 9.28685)
(18.4444 -7.3217 12.219)
(2.28114 0.415861 1.47883)
(0.920136 2.06991 1.09705)
(-2.24831 -3.03788 1.23126)
(1.84763 -3.2519 0.383015)
(13.2879 -5.27476 8.80294)
(4.91008 1.70854 3.41148)
(6.88399 5.50737 5.68706)
(-2.79631 -6.7943 -2.06099)
(-0.702172 3.38149 8.41401)
(-0.799924 -2.76604 -1.96007)
(-2.69781 -3.65623 7.6547)
(-5.10577 2.37868 -3.01722)
(0 0 0)
(1.72707 19.9387 -8.90228)
(20.4106 -8.10223 13.5216)
(-10.2186 10.6193 -13.6193)
(-1.86404 -10.9263 2.05086)
(-0.541022 -1.7212 7.52101)
(5.48556 4.38859 4.53178)
(0.102626 0.112351 -0.00706663)
(0 0 0)
(-0.090703 -0.70392 -9.57031)
(-2.69765 -6.55456 -1.98827)
(11.1526 2.50974 -4.08224)
(-2.83272 1.55825 11.5055)
(-2.3237 -8.33353 -5.96595)
(-7.31767 0.391121 7.16579)
(-4.336 -10.5353 -3.19581)
(-11.8402 -6.17966 3.67415)
(-0.357422 0.442228 -0.118236)
(1.02918 -1.92422 1.24114)
(4.01291 -8.3558 -0.208927)
(-6.05364 -6.06767 6.09055)
(-3.59949 -1.96346 -0.521962)
(2.42477 3.54835 -3.94699)
(0.429338 -0.317758 0.930104)
(-8.78354 -3.30138 9.95127)
(2.36451 -1.51833 0.89183)
(-1.58053 -3.16739 2.27691)
(2.40012 -2.24814 0.573742)
(7.57075e-05 -0.000101298 -0.000179828)
(-4.17647 -2.2782 -0.605629)
(-0.0681803 -0.529128 -7.19388)
(0.643768 -1.97784 -1.93575)
(-13.8222 6.16565 -10.572)
(11.1019 -5.13801 1.17837)
(-0.738245 2.11552 -3.63056)
(-12.0574 5.37842 -9.22217)
(1.55064 -2.72919 0.321449)
(-0.0996 -4.89599 -8.32598)
(12.494 -8.10943 0.361831)
(1.54379 -6.09835 -7.02073)
(17.3234 -9.68041 -5.70031)
(5.99264 -6.47081 -0.635996)
(-3.83412 2.84687 2.16298)
(-14.9003 -9.12267 -10.879)
(1.77245 8.7314 -4.75805)
(-21.8377 12.4457 7.92465)
(3.19964 -3.98083 3.61628)
(1.44693 1.49752 -8.37367)
(0.0803664 -2.33284 3.02675)
(0 0 0)
(12.1512 -5.62362 1.28974)
(-6.58902 -6.60429 6.62919)
(2.31181 8.83092 2.08019)
(1.49537 1.60556 1.31558)
(1.99011 0.889839 -2.66427)
(-8.02758 8.12999 3.36075)
(-1.45625 -1.23527 3.35532)
(-2.21357 8.64139 -5.46755)
(-12.8908 -6.23521 2.15056)
(10.5834 -2.00867 -3.85172)
(6.45571 3.3772 -7.25785)
(2.28855 -10.5612 4.85949)
(1.88912 0.662186 -6.67987)
(7.22698 0.08382 3.4741)
(-16.5731 1.71069 0.123491)
(6.20528 6.9625 -4.64945)
(4.63564 3.52217 3.441)
(1.10181 0.020918 -0.344601)
(0.00558457 0.0641669 0.861237)
(-13.2781 -6.12822 -1.64646)
(-2.27363 -1.50472 -3.35092)
(-3.92387 -5.31786 11.1335)
(2.87098 -2.0613 -0.235069)
(-4.01682 0.499281 1.9245)
(26.0266 13.9354 -7.46849)
(-6.68815 0.98677 -6.94367)
(-3.66916 2.20011 -0.937612)
(-10.3422 -8.20302 1.30809)
(-5.72501 -3.88131 8.24145)
(-20.6535 -12.6451 -15.0796)
(5.02034 3.81447 3.72656)
(14.4858 11.0142 -15.0883)
(-3.20704 -4.45109 3.16342)
(0.923097 -3.98311 -5.86678)
(0.0674646 0.0738575 -0.00464549)
(-6.74656 -6.7622 6.78769)
(-1.508 -5.40817 -3.8717)
(-3.26463 -1.10438 1.76778)
(4.57239 4.52382 7.13956)
(-10.7126 -4.94415 -1.32834)
(-33.0711 2.3282 -17.9261)
(-2.83009 1.30787 -2.21886)
(5.39309 0.0625501 2.59252)
(1.51224 5.27838 2.06846)
(-24.9824 1.75876 -13.5416)
(18.9607 -10.5953 -6.23906)
(-7.98365 -8.57217 -19.0282)
(2.32711 1.04052 -3.11543)
(0 0 0)
(-7.58747 -6.24952 -1.17169)
(0.90352 -15.0301 -3.12497)
(3.38273 -7.04362 -0.176118)
(0.342922 5.37089 0.873401)
(-1.27093 -0.574192 -1.57785)
(8.1612 -6.93943 19.7836)
(-5.2902 -4.35734 -0.816938)
(-2.83195 0.460251 -0.539913)
(-3.23548 -4.01828 -2.16665)
(-7.96525 8.2776 -10.6161)
(0.0063973 0.0735051 0.986574)
(1.08536 -18.0551 -3.75389)
(-0.531296 -0.987632 -2.52038)
(3.37494 5.95136 1.54946)
(2.19371 -3.17634 -0.480682)
(0 0 0)
(0 0 0)
(-6.84444 -3.31062 1.14185)
(-0.329296 5.13478 0.31142)
(0.92592 5.42603 -0.0808589)
(1.35199 -5.83376 -8.59262)
(-2.18523 -12.8089 2.40424)
(-9.19375 9.31104 3.84897)
(0 0 0)
(-2.44737 -3.39674 2.41408)
(-3.80273 -22.2901 4.18385)
(11.7263 0.724992 -10.187)
(0 0 0)
(-7.6485 0.175067 -11.7599)
(2.32858 1.30415 -1.86832)
(-0.211252 -0.312496 0.639511)
(-5.09303 -6.32526 -3.41057)
(-2.45263 2.77506 -6.19086)
(1.46698 0.267435 0.951016)
(-5.23534 -2.85579 -0.759176)
(-11.6697 -8.16759 3.5938)
(0.761271 -12.6638 -2.63297)
(-2.80232 -1.85461 -4.1301)
(23.5118 -9.33327 15.5761)
(-0.666417 -3.10914 -4.65593)
(0.543294 0.0907595 -0.184637)
(0.00377778 0.0614191 0.0243922)
(-9.91567 -6.93994 3.05363)
(5.94032 -18.7383 -5.09511)
(-0.189486 -0.226417 -1.13076)
(-1.87069 -3.74886 2.69491)
(0 0 0)
(-5.61404 -6.02789 -13.3805)
(-2.42249 -9.46586 1.74554)
(-0.58978 -1.09635 -2.79782)
(-1.72831 0.247226 0.204871)
(1.41187 16.2998 -7.27759)
(2.29451 -3.43528 -3.88019)
(1.66725 8.21315 -4.47563)
(4.35667 -9.0716 -0.226825)
(1.30388 -2.29489 0.270296)
(2.2797 2.97225 1.6264)
(0 0 0)
(0 0 0)
(-9.65942 0.997056 0.071975)
(-4.35831 9.79636 -3.75349)
(-8.36256 6.20928 4.71764)
(2.44061 -11.2629 5.18239)
(-2.47282 0.150692 4.35618)
(0.133682 -3.88046 5.03472)
(3.66257 6.45856 1.68151)
(-3.50583 -2.3768 5.04683)
(11.8113 0.730248 -10.2608)
(-0.316462 -0.46813 0.95801)
(0 0 0)
(14.237 -23.1963 3.962)
(-4.33645 2.004 -3.39989)
(-16.9892 7.57832 -12.9942)
(0.685934 4.01968 -0.0599014)
(3.52002 -2.90076 5.87337)
(0 0 0)
(-3.68288 -5.11151 3.63279)
(0 0 0)
(10.3839 6.3468 -12.3715)
(9.86594 -6.40365 0.285722)
(0.548538 0.0916357 -0.18642)
(1.18969 1.27736 1.04666)
(0 0 0)
(0 0 0)
(0 0 0)
(-13.1527 -3.26214 -4.34933)
(3.44118 -1.25224 -11.2533)
(-4.35828 -6.94329 8.60488)
(1.00651 -3.97596 -4.57732)
(-1.54811 -0.288604 1.80595)
(-0.531752 -4.822 -2.65118)
(1.65683 0.302047 1.0741)
(14.6923 -14.896 11.7667)
(-0.790323 -2.07944 -0.605088)
(11.8555 -12.0199 9.49479)
(-0.438297 -3.97454 -2.18524)
)


// ************************************************************************* //
