/*--------------------------------*- C++ -*----------------------------------*\
  =========                 |
  \\      /  F ield         | OpenFOAM: The Open Source CFD Toolbox
   \\    /   O peration     | Website:  https://openfoam.org
    \\  /    A nd           | Version:  7
     \\/     M anipulation  |
\*---------------------------------------------------------------------------*/
FoamFile
{
    version     2.0;
    format      ascii;
    class       volScalarField;
    location    "0.1025";
    object      alphat;
}
// * * * * * * * * * * * * * * * * * * * * * * * * * * * * * * * * * * * * * //

dimensions      [1 -1 -1 0 0 0 0];

internalField   nonuniform List<scalar> 
48560
(
0.00510942
0.00505733
0.00500403
0.00495171
0.00490099
0.00485234
0.00480624
0.00476308
0.00472324
0.00468702
0.00465475
0.00462667
0.00460305
0.00458412
0.00457013
0.00456128
0.00455781
0.00455994
0.00456791
0.00458197
0.00460237
0.0046294
0.00466337
0.0047046
0.0047535
0.00481044
0.00487582
0.00494974
0.0050596
0.00518426
0.00532276
0.00547366
0.00563426
0.00580108
0.00596939
0.00614123
0.00631578
0.00649737
0.00668976
0.00690647
0.00715049
0.00742037
0.00771514
0.00801531
0.00828206
0.00837773
0.0079732
0.00694028
0.00546875
0.00391598
0.00126481
0.000499806
0.000550341
0.000574583
0.000615286
0.000635964
0.000681499
0.000708559
0.000775466
0.000834873
0.000960499
0.00103639
0.00108338
0.000986556
0.00108371
0.000849215
0.000856298
0.000890362
0.000947911
0.00101944
0.00110952
0.00120322
0.00130715
0.0014007
0.00148573
0.00153804
0.00154224
0.0014608
0.00128432
0.00107511
0.000947202
0.000984861
0.00104475
0.00104343
0.00101932
0.00097368
0.000931103
0.000894692
0.000871951
0.000857057
0.000854234
0.000853009
0.000852296
0.000848711
0.000843071
0.000831387
0.000813984
0.000787497
0.000751131
0.000702832
0.00484594
0.00483098
0.00481656
0.00480373
0.00479301
0.0047848
0.00477953
0.00477753
0.00477911
0.00478455
0.00479412
0.00480804
0.00482654
0.00484984
0.00487816
0.0049117
0.00495067
0.00499525
0.00504559
0.00510173
0.00516384
0.00523197
0.00530625
0.00538666
0.0054732
0.00556571
0.00566394
0.00576687
0.00591618
0.00607279
0.00623825
0.00641077
0.00659301
0.00678594
0.00699816
0.00723617
0.00750613
0.00781067
0.00815247
0.00852689
0.00893089
0.0093346
0.00965642
0.00973695
0.00945517
0.00871797
0.00757392
0.0062374
0.0051115
0.00460696
0.00507331
0.00904733
0.00945958
0.00991221
0.0103096
0.0106099
0.0102358
0.0103999
0.00971444
0.00989569
0.00897508
0.00868235
0.00777514
0.00820608
0.00716823
0.00711947
0.00693657
0.00696797
0.00676154
0.0067231
0.00669269
0.00676888
0.00685395
0.00699403
0.00712511
0.00718046
0.00700457
0.00648418
0.0067329
0.0064251
0.00704644
0.00995717
0.00904565
0.00847819
0.00819162
0.00817037
0.00856041
0.0095818
0.0107124
0.0121421
0.0136122
0.0151028
0.0167038
0.0185533
0.0205782
0.0229584
0.0258311
0.0300276
0.036956
0.0528136
0.00520563
0.00522054
0.00523805
0.00525827
0.00528158
0.00530828
0.00533863
0.00537279
0.00541091
0.00545304
0.00549928
0.00554964
0.00560426
0.00566314
0.00572637
0.00579391
0.00586575
0.00594176
0.00602184
0.00610647
0.00619546
0.0062891
0.00638743
0.00649078
0.00659931
0.00671345
0.00683365
0.00695975
0.00715469
0.00737089
0.0076088
0.00787357
0.00816581
0.00849011
0.00884822
0.00924145
0.00967022
0.0101218
0.0105701
0.0109347
0.0111543
0.0111001
0.0107371
0.0100239
0.00903433
0.00787479
0.00689149
0.0062522
0.006212
0.0069355
0.00896767
0.014204
0.0146893
0.0152067
0.0148706
0.0159231
0.0148242
0.0161095
0.0141408
0.0149854
0.0131528
0.0126933
0.0114298
0.0115839
0.0104463
0.0107151
0.0108318
0.0114202
0.0112231
0.0118133
0.0117094
0.0116265
0.0116034
0.0116001
0.0116406
0.0116795
0.0117036
0.0115214
0.0113873
0.0102252
0.0145453
0.02302
0.021196
0.020149
0.0198092
0.0165167
0.019067
0.0195394
0.0258856
0.0318226
0.0386259
0.0429634
0.0475672
0.0529655
0.0592816
0.0672686
0.0697773
0.0636189
0.0592191
0.0580423
0.00629868
0.00632836
0.00636181
0.0063999
0.00644187
0.00648896
0.0065404
0.00659705
0.00665804
0.00672407
0.00679468
0.00687059
0.00695153
0.00703816
0.0071304
0.0072289
0.00733378
0.00744579
0.00756541
0.00769297
0.00782888
0.00797365
0.00812753
0.00829116
0.00846521
0.00865052
0.00884767
0.00905767
0.00937555
0.00972081
0.0100928
0.0104922
0.010913
0.011347
0.0117702
0.0121504
0.0124376
0.0125725
0.0125145
0.0122132
0.0116746
0.0109
0.010003
0.00909927
0.00828883
0.00771672
0.00754582
0.00789072
0.0088388
0.0105881
0.0138509
0.0181514
0.0194494
0.0206602
0.0196317
0.0210332
0.0191193
0.0200133
0.0179699
0.0183777
0.016477
0.0156707
0.0145917
0.0145784
0.0144101
0.0144293
0.0154213
0.0164504
0.0168048
0.0170125
0.0173072
0.0176552
0.0180519
0.0184747
0.0185947
0.0167344
0.0139866
0.0134948
0.0149954
0.017361
0.0297883
0.0434109
0.0412317
0.0402567
0.0324963
0.0300832
0.0328659
0.0306779
0.0331762
0.0336822
0.0377842
0.0409487
0.0464351
0.0509816
0.0565196
0.0610305
0.0641501
0.0647126
0.0641723
0.0638484
0.0081459
0.00818898
0.00824016
0.00829985
0.00836732
0.00844381
0.00852861
0.00862271
0.00872534
0.00883737
0.00895828
0.00908893
0.00922896
0.00937918
0.00953932
0.00971008
0.00989116
0.0100831
0.0102856
0.0104989
0.0107229
0.0109574
0.0112031
0.01146
0.0117277
0.0120051
0.0122896
0.0125792
0.0129567
0.0133248
0.0136492
0.0139173
0.0140885
0.0141477
0.0140708
0.0138427
0.0134498
0.0128967
0.0121951
0.0114628
0.0107008
0.00999384
0.00939367
0.00898918
0.00886962
0.00913359
0.00984345
0.0110333
0.0128054
0.014527
0.0185549
0.0205023
0.0221464
0.0229205
0.0228978
0.0237656
0.0227116
0.0232877
0.0218373
0.0220478
0.0205884
0.0197337
0.0188537
0.0189805
0.0198202
0.0194334
0.0216725
0.0224367
0.0245051
0.0253032
0.0265941
0.0270818
0.0270485
0.0258981
0.023425
0.0202023
0.0174898
0.0170817
0.0170715
0.0221089
0.0336047
0.0407556
0.042845
0.0286383
0.026661
0.0273298
0.0286565
0.0288289
0.0324394
0.0341974
0.0393586
0.043044
0.0495124
0.05507
0.0622135
0.0667032
0.0685927
0.0697149
0.0709074
0.071701
0.0113632
0.011412
0.0114791
0.0115608
0.0116585
0.0117707
0.0118982
0.0120399
0.012196
0.0123657
0.0125488
0.0127449
0.0129538
0.013175
0.0134079
0.0136514
0.0139038
0.0141621
0.0144221
0.0146808
0.0149322
0.0151712
0.0153898
0.0155813
0.0157392
0.0158599
0.0159409
0.0159955
0.0159356
0.0158175
0.0155731
0.0152481
0.0148008
0.0142704
0.0136799
0.0130639
0.0124305
0.0118164
0.0112479
0.0107661
0.0104018
0.0102156
0.0102585
0.0105949
0.0112726
0.0123168
0.013728
0.0155529
0.0156269
0.0173181
0.0204863
0.0222788
0.024293
0.0255336
0.0261317
0.0263968
0.0263611
0.0262243
0.0256101
0.025251
0.0244496
0.0236183
0.023407
0.024063
0.0258451
0.0253863
0.0284872
0.0290091
0.0322179
0.032419
0.0346495
0.0336119
0.0333113
0.030169
0.0266214
0.0224322
0.0201859
0.0202037
0.0210773
0.0262432
0.0335044
0.0377307
0.0377159
0.0299635
0.0307797
0.0303187
0.0316326
0.0321302
0.0350264
0.0371432
0.041661
0.0451481
0.0508315
0.0561786
0.0631553
0.0693892
0.0730206
0.0753361
0.0770308
0.0780993
0.0164161
0.0164101
0.0164375
0.0164846
0.0165597
0.0166516
0.0167646
0.0168884
0.0170237
0.0171616
0.0173019
0.0174365
0.0175638
0.0176763
0.0177715
0.0178436
0.0178909
0.0179095
0.0178937
0.017842
0.0177512
0.0176208
0.0174495
0.0172389
0.0169897
0.0167058
0.0163901
0.0160608
0.0155683
0.0150894
0.0145634
0.0140629
0.0135461
0.013076
0.0126256
0.0122449
0.0119263
0.0117176
0.0116264
0.0117016
0.0119657
0.0124661
0.0132233
0.0142583
0.0155674
0.0171395
0.0189975
0.0189303
0.0184374
0.0203962
0.0224527
0.0239236
0.0260086
0.0273758
0.0279917
0.0282544
0.0283621
0.0282469
0.0278262
0.0275134
0.027108
0.0268352
0.0272492
0.0286767
0.0308336
0.0307704
0.0338549
0.0345523
0.0376537
0.0380389
0.0401291
0.0387585
0.0379093
0.0338297
0.0297646
0.0255258
0.0236308
0.0231699
0.0244191
0.0290099
0.0327361
0.0350724
0.0335575
0.0306313
0.0321506
0.0322164
0.0338248
0.0349213
0.0378833
0.040493
0.04504
0.0495482
0.0560862
0.062721
0.0693357
0.074707
0.0781282
0.080956
0.0828154
0.0840068
0.0219647
0.0217623
0.0215766
0.0213999
0.0212386
0.0210788
0.0209246
0.0207625
0.0205956
0.020413
0.0202176
0.0200015
0.0197681
0.0195116
0.0192353
0.0189356
0.0186166
0.0182788
0.0179331
0.0175751
0.0172125
0.0168437
0.0164749
0.0161063
0.0157431
0.0153865
0.0150407
0.0147155
0.0143521
0.0140551
0.0137742
0.0135604
0.0133909
0.0133065
0.0132949
0.0133937
0.0136029
0.0139572
0.0144659
0.0151581
0.0160376
0.0171161
0.0183832
0.019832
0.021451
0.0232692
0.0230977
0.0210823
0.0211825
0.0228006
0.0239308
0.0251873
0.0274893
0.028967
0.0294508
0.0297576
0.029847
0.0296925
0.0293348
0.0289295
0.0288516
0.029008
0.0301171
0.032126
0.0345879
0.0352149
0.0379908
0.0388993
0.0417748
0.0426553
0.0442916
0.0429775
0.0411166
0.0364433
0.0318886
0.028029
0.02655
0.026218
0.0276739
0.0309504
0.0329554
0.0352376
0.0340838
0.0336404
0.0347209
0.0353359
0.0366747
0.038246
0.0409589
0.0440939
0.0486078
0.0537849
0.0603507
0.0674879
0.0747178
0.0803074
0.0839383
0.0869146
0.08892
0.0902097
0.0235078
0.0230866
0.0226574
0.0222422
0.0218332
0.0214338
0.0210397
0.0206516
0.0202685
0.0198904
0.0195183
0.0191515
0.0187926
0.0184404
0.0180981
0.0177649
0.0174442
0.0171354
0.0168419
0.0165645
0.0163077
0.016073
0.0158657
0.0156886
0.0155479
0.015448
0.0153974
0.0154069
0.0154305
0.0155366
0.0156965
0.0159359
0.0162429
0.0166369
0.0171206
0.0177176
0.0184208
0.0192523
0.0202013
0.0212823
0.0224746
0.023785
0.0251929
0.0267169
0.0283691
0.0279293
0.0248571
0.0235575
0.0236549
0.0248004
0.0251951
0.0263203
0.0286489
0.0300437
0.0303637
0.0306612
0.0306036
0.030485
0.0300304
0.029661
0.0297554
0.0303056
0.0318339
0.0342305
0.0369785
0.0383387
0.040562
0.041611
0.0442237
0.0453915
0.0465794
0.0454421
0.0429674
0.0384844
0.0341579
0.0309384
0.0294899
0.0291057
0.0303197
0.0321995
0.0332389
0.0353659
0.0350006
0.0358102
0.0368514
0.0378797
0.0392821
0.0413301
0.0442423
0.0479713
0.05288
0.0587248
0.0658698
0.0732566
0.0804828
0.0860842
0.090046
0.0930333
0.0952302
0.0965959
0.0214526
0.0211012
0.0207436
0.0204093
0.0200817
0.0197729
0.0194725
0.0191896
0.0189187
0.0186667
0.0184317
0.0182179
0.0180243
0.017854
0.0177077
0.0175883
0.0174983
0.0174411
0.0174216
0.0174444
0.0175166
0.0176447
0.0178382
0.0181063
0.0184618
0.0189176
0.0194917
0.0202017
0.0206413
0.0211495
0.0217004
0.0223117
0.0229567
0.0236511
0.024404
0.0252357
0.0261232
0.0270867
0.0281042
0.0291934
0.0303332
0.0315439
0.0328168
0.0341887
0.0328521
0.0292737
0.0269323
0.0257497
0.0257156
0.0263751
0.0262434
0.0272328
0.0294315
0.0306965
0.0308618
0.0311004
0.030887
0.0307612
0.0301769
0.0298167
0.0300085
0.030807
0.0325648
0.0351695
0.0381928
0.0401384
0.0418667
0.0430256
0.0454254
0.0468003
0.0478789
0.0470125
0.0444242
0.0403485
0.0364414
0.0337642
0.0323307
0.0318356
0.0323823
0.033262
0.0339654
0.0363996
0.0367994
0.0382464
0.0393429
0.040586
0.042155
0.0445099
0.0477934
0.0519342
0.0574653
0.0638434
0.071709
0.0793213
0.086854
0.0921464
0.0963937
0.0992333
0.10168
0.103093
0.0199067
0.0197752
0.0196423
0.0195327
0.0194286
0.0193453
0.0192711
0.0192201
0.0191854
0.0191797
0.0191996
0.0192557
0.0193452
0.0194759
0.0196475
0.019868
0.0201402
0.0204729
0.0208719
0.0213474
0.021908
0.0225656
0.0233312
0.0242185
0.0252406
0.0264119
0.0277476
0.0292543
0.0298534
0.0304739
0.0311012
0.0317464
0.0323842
0.0330252
0.0336958
0.0344081
0.0351425
0.0359118
0.0367025
0.0375296
0.0383877
0.0392999
0.0402725
0.0368743
0.0337271
0.0307544
0.0287761
0.02752
0.0273428
0.0275584
0.0271008
0.0279326
0.0298718
0.0309602
0.0309561
0.0310875
0.0307426
0.0305782
0.0298747
0.0295263
0.0297545
0.0306751
0.0324703
0.0351416
0.038335
0.0406884
0.042147
0.0434532
0.045633
0.0472766
0.0485016
0.0481286
0.0459336
0.0425697
0.0392038
0.0367896
0.0350446
0.0341728
0.0340058
0.0341649
0.034762
0.037444
0.0385251
0.0404536
0.0418037
0.0432608
0.0451166
0.0478121
0.051632
0.0562427
0.0625869
0.0694458
0.0781154
0.0856691
0.0935215
0.0984476
0.102959
0.1056
0.108287
0.109742
0.0206826
0.0207843
0.0208937
0.0210273
0.0211699
0.021337
0.0215185
0.0217305
0.0219673
0.0222451
0.0225616
0.022932
0.0233541
0.0238382
0.0243821
0.0249961
0.0256817
0.0264489
0.0273007
0.0282475
0.0292932
0.0304456
0.0317107
0.0330921
0.0345917
0.0362067
0.0379314
0.039745
0.0401646
0.0405712
0.0409663
0.0413592
0.0417347
0.0420956
0.0424751
0.0428756
0.0432835
0.0437044
0.0441357
0.0434471
0.0424495
0.0409403
0.0392503
0.0368897
0.0345232
0.0319687
0.0301149
0.0288872
0.0284826
0.0283586
0.0276915
0.0284329
0.029989
0.030879
0.0306955
0.0307026
0.0302661
0.0300461
0.0292647
0.0289228
0.0291615
0.0301036
0.0318176
0.0344299
0.0376756
0.0403244
0.0418817
0.0433569
0.0453707
0.0474443
0.0490421
0.0494332
0.0479237
0.045326
0.0423476
0.0398976
0.03763
0.0362329
0.0353724
0.0350719
0.035703
0.0386888
0.0403554
0.0427351
0.0444149
0.0460873
0.048246
0.0513438
0.055759
0.0609453
0.0681477
0.0755115
0.0849227
0.0923916
0.100389
0.104978
0.109644
0.112162
0.115006
0.116515
0.0238714
0.0242051
0.0245585
0.0249387
0.0253325
0.0257533
0.0261921
0.0266636
0.0271635
0.0277078
0.0282962
0.0289448
0.0296549
0.0304363
0.031283
0.0322002
0.0331821
0.0342326
0.0353459
0.036524
0.0377617
0.039059
0.0404019
0.0417815
0.0431782
0.0445731
0.0459425
0.0472669
0.0473765
0.0471236
0.0461427
0.0443665
0.0434744
0.0423941
0.0416378
0.0408719
0.0402297
0.0394763
0.0388772
0.0382223
0.0377294
0.037117
0.0365257
0.0355503
0.0342104
0.0325831
0.0311488
0.0298546
0.029234
0.0288357
0.028051
0.0288196
0.0298662
0.0305102
0.0301186
0.0299924
0.0295007
0.0292281
0.0284114
0.0280815
0.0283278
0.0292365
0.030797
0.0332499
0.0364359
0.0393587
0.0413179
0.0429589
0.0448727
0.047512
0.0496523
0.0511124
0.050548
0.0487649
0.04591
0.0430284
0.040111
0.0380848
0.0365706
0.0359379
0.0365947
0.0398319
0.0420613
0.0449364
0.0470841
0.0490504
0.0515432
0.0551651
0.0602402
0.0661654
0.0742294
0.0821446
0.0920941
0.0995073
0.107437
0.11173
0.116377
0.118838
0.121751
0.123327
0.0286395
0.0291865
0.0297625
0.0303648
0.0309804
0.0316182
0.0322677
0.0329378
0.033622
0.034331
0.0350634
0.0358322
0.0366387
0.0374946
0.0383906
0.0393213
0.0402703
0.0412284
0.0421792
0.0431112
0.0440064
0.0448463
0.0456061
0.0462645
0.0467953
0.0471776
0.0460314
0.0442014
0.043837
0.0411337
0.0406517
0.0390299
0.0384387
0.0373597
0.0367201
0.0360293
0.0354539
0.0349243
0.0343472
0.0338523
0.0333579
0.0329396
0.0325822
0.0323036
0.0321225
0.031806
0.0311669
0.0303072
0.029726
0.0291338
0.0283766
0.0290927
0.0295546
0.0298659
0.0292441
0.0289936
0.0284861
0.0282011
0.0274179
0.0271258
0.0273767
0.0282178
0.0295756
0.0317917
0.03482
0.0379727
0.0405093
0.042369
0.0442645
0.0475956
0.0504616
0.0532986
0.0538784
0.0528076
0.0496833
0.0460178
0.0423973
0.0396906
0.0376656
0.0367381
0.0374125
0.0408377
0.0435784
0.0470395
0.049816
0.0521628
0.0550358
0.0593113
0.0651271
0.0719515
0.0808758
0.0894156
0.0996955
0.107021
0.114664
0.118661
0.1231
0.125538
0.128436
0.130081
0.0335055
0.0341774
0.0348783
0.0355986
0.0363244
0.0370603
0.0377928
0.0385231
0.0392386
0.0399403
0.0406193
0.04128
0.0419198
0.0425472
0.0431625
0.0437588
0.044313
0.0448045
0.0452078
0.0455019
0.0450498
0.044096
0.0432674
0.0423686
0.0413874
0.0402424
0.0392741
0.0381813
0.0380438
0.0358518
0.0358018
0.034388
0.0341896
0.0332995
0.0329714
0.0325041
0.0320664
0.0317908
0.0313316
0.0309572
0.030555
0.0302444
0.0299486
0.0297893
0.0297279
0.0297564
0.0298601
0.0300516
0.0298872
0.029618
0.0288651
0.0294115
0.0292749
0.0290915
0.0281348
0.0277142
0.0271989
0.0269286
0.0262072
0.0259618
0.0262379
0.0270311
0.028202
0.0301753
0.0329854
0.0362543
0.0392775
0.041488
0.0436907
0.0475836
0.0514785
0.0558744
0.0578404
0.0572726
0.0534521
0.0487843
0.0443785
0.0410323
0.0386342
0.0374334
0.0380821
0.0415952
0.0448201
0.0490017
0.0524959
0.0554804
0.0588746
0.0638808
0.070588
0.0784326
0.0882385
0.0973464
0.107739
0.11488
0.122068
0.125723
0.129757
0.132137
0.134948
0.136651
0.0368344
0.037473
0.0381276
0.0387882
0.0394409
0.0400885
0.0407164
0.041322
0.0418888
0.0424099
0.0428686
0.0432576
0.0435655
0.0437922
0.0439369
0.0440079
0.0433611
0.0419407
0.0402499
0.0386224
0.0371372
0.0359145
0.0349353
0.0341649
0.033491
0.0328341
0.0323338
0.0319307
0.0320052
0.0304095
0.0307639
0.0295359
0.0297421
0.0290733
0.0290812
0.0288154
0.0285795
0.0284522
0.0281839
0.0280764
0.027969
0.0279752
0.0279891
0.0280479
0.0280981
0.0282112
0.0285119
0.0289497
0.0294202
0.0298433
0.0294229
0.0296615
0.0288498
0.0279769
0.0266588
0.0260976
0.0256346
0.0254789
0.0249538
0.0248242
0.0251388
0.0258789
0.0268376
0.0285202
0.03097
0.0341473
0.0373836
0.0402093
0.0432879
0.0472603
0.0526665
0.0585408
0.0621433
0.0617397
0.056844
0.0511791
0.0461132
0.0422646
0.0395556
0.0381217
0.038677
0.0422121
0.0459641
0.0509239
0.0552498
0.0593515
0.0634882
0.0692275
0.0770675
0.0859676
0.0966837
0.106077
0.116203
0.12287
0.129454
0.132756
0.136227
0.138426
0.141069
0.142812
0.0375264
0.0379746
0.0384184
0.038853
0.0392664
0.0396616
0.0400283
0.0403629
0.0406491
0.0408812
0.0410413
0.0411166
0.0410875
0.0409425
0.0406707
0.0377872
0.0359862
0.0349076
0.0335783
0.0318968
0.0301826
0.0286626
0.0274113
0.0264922
0.0258652
0.025461
0.0253133
0.0254196
0.0258367
0.0252163
0.0261051
0.0250479
0.0256195
0.0250775
0.0253663
0.0251357
0.0251525
0.0249728
0.0249381
0.0249722
0.0250615
0.0252056
0.0255032
0.0258358
0.0263311
0.0267951
0.0273338
0.027836
0.0285975
0.0294847
0.0300619
0.0302262
0.029127
0.0273342
0.0252422
0.0242289
0.0237212
0.0236665
0.0233443
0.0232917
0.0236552
0.0244144
0.0252225
0.026729
0.0288037
0.0318315
0.0350962
0.0385718
0.0426299
0.0465958
0.0536483
0.0608999
0.0661521
0.0655968
0.0596083
0.0530399
0.0475038
0.0433692
0.0404269
0.0388134
0.0392063
0.042711
0.0470499
0.0528702
0.0584564
0.0643211
0.0695725
0.0762624
0.0855947
0.0955321
0.107
0.11604
0.125098
0.130596
0.136283
0.139397
0.142347
0.144188
0.146441
0.148167
0.0353976
0.0355759
0.0357324
0.0358696
0.0359783
0.0360627
0.0361177
0.0361396
0.0361162
0.0360455
0.0359179
0.0357234
0.0354461
0.0350708
0.03458
0.0339623
0.0324316
0.0296383
0.0280237
0.026477
0.0245941
0.022644
0.0210201
0.0197778
0.0190175
0.018653
0.0185869
0.0174832
0.0179498
0.0184123
0.018858
0.0193703
0.01993
0.0205999
0.021289
0.0217876
0.02214
0.0220603
0.0223028
0.0223816
0.022614
0.0227477
0.023104
0.0234083
0.0239818
0.0246238
0.0254942
0.0263782
0.0274012
0.0286033
0.0296243
0.0301396
0.0282865
0.0255442
0.0230039
0.0217298
0.0212633
0.0214851
0.0216966
0.0219913
0.0223908
0.0233203
0.0238754
0.0252173
0.0266642
0.0293117
0.0323953
0.0361462
0.040682
0.0461365
0.0535626
0.062703
0.0689713
0.0679809
0.0611858
0.0542132
0.0485462
0.0443845
0.0413644
0.0396379
0.0398144
0.0431761
0.0479
0.0546341
0.0619223
0.0701914
0.0774883
0.0860833
0.0973709
0.108542
0.119939
0.127577
0.134375
0.138113
0.142393
0.145525
0.148249
0.149649
0.150974
0.152393
0.0310516
0.0309799
0.0308795
0.0307583
0.0306112
0.0304411
0.0302431
0.0300164
0.0297559
0.0294624
0.0291305
0.0287586
0.0283378
0.0278608
0.0273133
0.0266813
0.0259476
0.0251026
0.0241467
0.0218638
0.019969
0.0179876
0.0160845
0.0145505
0.0134775
0.0128498
0.0126084
0.0113174
0.011707
0.0120795
0.0124334
0.0128596
0.0133128
0.0138745
0.0144513
0.0150952
0.0157721
0.0165101
0.0172944
0.0181529
0.0190883
0.0201287
0.0206338
0.0209364
0.0214861
0.022157
0.0231727
0.0243628
0.0259017
0.0277412
0.0296833
0.0324048
0.0320698
0.0279283
0.022944
0.0201023
0.0189297
0.0189787
0.0192449
0.0200105
0.0202417
0.0214604
0.021734
0.0231824
0.024198
0.0268613
0.0298309
0.0335965
0.0378695
0.0452926
0.0528463
0.0637089
0.0705877
0.0688236
0.0616028
0.0545908
0.049024
0.0449192
0.0419396
0.0400672
0.0397876
0.0423756
0.0475245
0.0549688
0.0639351
0.0748169
0.0856437
0.0966636
0.109305
0.121611
0.129054
0.133023
0.137076
0.141119
0.145053
0.148741
0.15202
0.15395
0.154689
0.155554
0.0254661
0.0252315
0.0249702
0.0246928
0.0243972
0.0240837
0.0237497
0.0233955
0.0230194
0.0226224
0.0222027
0.0217602
0.0212919
0.0207962
0.020267
0.0196979
0.0190768
0.0183901
0.017622
0.0167629
0.0158202
0.0148047
0.013479
0.0111379
0.00943172
0.00846349
0.00826039
0.00730586
0.00752621
0.00774878
0.00795036
0.00822041
0.00850541
0.00888164
0.00927064
0.00972533
0.0102085
0.0107533
0.0113341
0.0119862
0.0127049
0.0135248
0.0144467
0.0155015
0.0166939
0.018041
0.0195317
0.0209284
0.0225599
0.0244746
0.0262336
0.0277693
0.0287832
0.0254618
0.0197713
0.0176464
0.0171576
0.0173055
0.0177633
0.019229
0.0192853
0.0207563
0.0209031
0.0223476
0.022871
0.0249312
0.0268262
0.0301929
0.0341525
0.0405087
0.0501127
0.0582599
0.0646087
0.0631952
0.0580025
0.0523317
0.0478864
0.0444582
0.0417647
0.0398841
0.0393501
0.0417037
0.0464093
0.0532179
0.0627351
0.0741062
0.0874881
0.0952923
0.0989345
0.102936
0.107319
0.112105
0.117307
0.122913
0.128866
0.135074
0.141342
0.147345
0.152581
0.156372
0.0196245
0.01933
0.0190163
0.0186924
0.0183589
0.0180143
0.0176586
0.0172911
0.0169119
0.0165207
0.0161174
0.0157018
0.0152735
0.0148326
0.0143781
0.0139097
0.0134247
0.0129192
0.0123847
0.0118083
0.0111736
0.0104688
0.00969974
0.00887381
0.00735163
0.00587824
0.00546208
0.00512535
0.00517023
0.0052354
0.00529708
0.0054107
0.0055361
0.00572248
0.00591717
0.00616136
0.00642398
0.00673478
0.00706808
0.00745637
0.00788926
0.00839371
0.00898491
0.00968241
0.010496
0.0114408
0.0125163
0.0137155
0.0150064
0.0163421
0.0176416
0.0188366
0.019447
0.0198793
0.0203856
0.0211832
0.0188644
0.0172733
0.0170913
0.0190856
0.0185989
0.0204973
0.020427
0.0212729
0.0217456
0.022781
0.0257279
0.029791
0.0348482
0.0402154
0.0534667
0.0568021
0.0565168
0.0564345
0.0552677
0.0490674
0.0445178
0.041481
0.0392296
0.0376138
0.0363604
0.0364192
0.0390694
0.0450337
0.0544758
0.0605343
0.062789
0.0656888
0.0687375
0.0722295
0.0762278
0.080818
0.0860642
0.0921111
0.0990873
0.107189
0.116556
0.127251
0.138942
0.150368
0.0143739
0.0141082
0.0138315
0.0135491
0.0132642
0.0129734
0.0126789
0.0123787
0.0120741
0.0117638
0.0114488
0.0111283
0.0108027
0.010472
0.0101363
0.00979576
0.00945039
0.0090998
0.00874243
0.00837582
0.00799107
0.00757474
0.00711189
0.0066039
0.00605141
0.00493561
0.00384251
0.00403853
0.00405209
0.00402231
0.00399674
0.00400943
0.00403117
0.00408819
0.0041507
0.00424162
0.00434082
0.00446709
0.0046019
0.00476548
0.0049494
0.00517005
0.00543389
0.00576092
0.00615694
0.00663622
0.00720089
0.00785612
0.00858491
0.00936576
0.0101539
0.010913
0.0112649
0.0114578
0.011595
0.0118088
0.00946838
0.00959928
0.0147005
0.0206132
0.0225666
0.0255817
0.0264288
0.0280421
0.0290675
0.0290953
0.0308666
0.0292781
0.028787
0.0289261
0.0316521
0.0334643
0.0330736
0.0328268
0.0326492
0.0324684
0.0322728
0.0320552
0.0315153
0.0301562
0.0290853
0.0296073
0.0308564
0.0313193
0.0317294
0.0322984
0.0333939
0.0350794
0.0368734
0.0389901
0.0414667
0.0443942
0.0478317
0.0519972
0.0571063
0.0636071
0.0721157
0.0837676
0.100424
0.125293
0.0103887
0.0102092
0.0100249
0.00983717
0.00965048
0.00946046
0.00927037
0.00907708
0.00888284
0.00868547
0.00848639
0.00828406
0.00807908
0.00787032
0.00765789
0.00744147
0.00722161
0.00699923
0.00677527
0.00655018
0.00632315
0.00609118
0.00583876
0.00553632
0.00515636
0.00451202
0.00270575
0.00298456
0.00347697
0.00345342
0.00339593
0.00338097
0.00335791
0.00336396
0.00336464
0.00338405
0.00340102
0.00343003
0.00345573
0.00349189
0.00353202
0.00358764
0.00365879
0.00375326
0.00387458
0.00403187
0.00422861
0.00446618
0.00474146
0.00504139
0.00534685
0.00563553
0.00576289
0.00579738
0.00576182
0.00573181
0.00578231
0.00628958
0.00861143
0.010947
0.011477
0.0119758
0.0127212
0.013532
0.0141801
0.015059
0.0157902
0.016334
0.0168691
0.0167817
0.0153313
0.0156792
0.0154198
0.0147452
0.0143863
0.014075
0.0137924
0.0135799
0.0132701
0.0130256
0.0127614
0.0127778
0.01297
0.0130034
0.0128001
0.0126728
0.0129073
0.0133885
0.013862
0.0144561
0.0151923
0.016089
0.0171315
0.0184127
0.0199877
0.0220597
0.0249075
0.0292282
0.0366543
0.0539219
0.00750343
0.00740231
0.00729591
0.00718525
0.00707339
0.00695693
0.00683866
0.00671535
0.0065895
0.00645812
0.00632332
0.00618234
0.00603676
0.00588408
0.00572548
0.00555903
0.00538526
0.00520189
0.00500848
0.00480324
0.00458764
0.00436155
0.00412231
0.00385873
0.00354935
0.0031846
0.00275581
0.000638871
0.000618602
0.000613334
0.000606704
0.000607379
0.00060945
0.000614683
0.000620277
0.000626362
0.000632425
0.00063751
0.000641098
0.000642467
0.000642468
0.000641164
0.000639438
0.000638113
0.000638153
0.000640115
0.000644185
0.000651022
0.000660493
0.000672949
0.000687147
0.000699383
0.000704803
0.000705112
0.000701673
0.000695771
0.000683675
0.000649547
0.000672565
0.00073342
0.000780288
0.000824328
0.000858458
0.000891229
0.000918743
0.000946413
0.000971188
0.00100788
0.00104763
0.00109388
0.0011432
0.00118108
0.00121331
0.00123603
0.00124349
0.00124205
0.00123295
0.00121668
0.00119517
0.00117003
0.00114484
0.00113424
0.00112301
0.00110729
0.00108731
0.00106339
0.0010385
0.00101775
0.000999786
0.000984187
0.000969967
0.000956391
0.000941703
0.000925003
0.000904906
0.000880378
0.000850299
0.000813768
0.000769874
0.000717691
0.000376874
0.0196669
0.0223962
0.0224854
0.0224883
0.022488
0.0224875
0.0224869
0.0224863
0.0224858
0.0224854
0.0224854
0.0224856
0.0224861
0.0224867
0.0224872
0.0224877
0.0224881
0.0224884
0.0224887
0.000403021
0.0176242
0.022216
0.0224617
0.0224721
0.0224721
0.0224717
0.0224711
0.0224707
0.0224702
0.0224701
0.0224704
0.0224714
0.0224729
0.0224744
0.0224759
0.0224772
0.0224781
0.022479
0.0224795
0.000427819
0.0161198
0.0219891
0.0224322
0.0224558
0.0224567
0.0224564
0.0224559
0.0224556
0.0224552
0.0224553
0.0224561
0.0224578
0.0224604
0.0224629
0.0224653
0.0224674
0.022469
0.0224703
0.0224711
0.000451213
0.0149563
0.0217302
0.0223967
0.0224395
0.0224417
0.0224416
0.0224412
0.022441
0.0224407
0.022441
0.0224422
0.0224447
0.0224482
0.0224519
0.0224551
0.022458
0.0224602
0.022462
0.0224632
0.00047321
0.0140185
0.0214488
0.0223546
0.0224226
0.0224269
0.022427
0.0224268
0.0224266
0.0224266
0.022427
0.0224287
0.022432
0.0224365
0.0224412
0.0224454
0.022449
0.0224519
0.0224541
0.0224556
0.000493886
0.0132074
0.0211481
0.0223057
0.0224051
0.0224121
0.0224126
0.0224126
0.0224126
0.0224127
0.0224134
0.0224156
0.0224197
0.0224251
0.0224309
0.022436
0.0224404
0.022444
0.0224466
0.0224485
0.000513246
0.0124531
0.0208272
0.0222496
0.0223866
0.0223975
0.0223984
0.0223985
0.0223987
0.0223991
0.0224001
0.0224028
0.0224076
0.0224141
0.0224209
0.022427
0.0224322
0.0224364
0.0224396
0.0224417
0.000531396
0.0117425
0.0204879
0.0221863
0.022367
0.0223828
0.0223843
0.0223847
0.0223851
0.0223857
0.022387
0.0223903
0.022396
0.0224034
0.0224112
0.0224184
0.0224244
0.0224293
0.0224329
0.0224352
0.000548357
0.0110855
0.0201344
0.0221158
0.0223462
0.022368
0.0223703
0.0223711
0.0223717
0.0223726
0.0223743
0.0223781
0.0223847
0.0223931
0.022402
0.0224101
0.0224169
0.0224225
0.0224266
0.0224292
0.000564245
0.0104897
0.0197712
0.0220382
0.0223241
0.0223533
0.0223566
0.0223577
0.0223586
0.0223597
0.0223619
0.0223663
0.0223737
0.0223832
0.0223932
0.0224022
0.0224099
0.0224161
0.0224207
0.0224236
0.000579064
0.00995636
0.0194033
0.0219539
0.0223007
0.0223385
0.022343
0.0223445
0.0223458
0.0223473
0.0223498
0.0223549
0.0223632
0.0223737
0.0223848
0.0223948
0.0224034
0.0224102
0.0224153
0.0224185
0.000592926
0.00948182
0.0190352
0.0218632
0.0222759
0.0223237
0.0223297
0.0223317
0.0223333
0.0223352
0.0223382
0.0223439
0.022353
0.0223647
0.0223768
0.0223878
0.0223972
0.0224047
0.0224104
0.0224138
0.000605819
0.00906096
0.0186707
0.0217668
0.0222496
0.022309
0.0223167
0.0223191
0.0223211
0.0223235
0.022327
0.0223334
0.0223434
0.0223561
0.0223693
0.0223814
0.0223916
0.0223998
0.0224059
0.0224097
0.000617846
0.00868768
0.0183128
0.0216653
0.0222221
0.0222943
0.022304
0.022307
0.0223094
0.0223123
0.0223164
0.0223234
0.0223344
0.0223481
0.0223623
0.0223754
0.0223866
0.0223955
0.0224021
0.0224061
0.00062897
0.00835541
0.0179641
0.0215595
0.0221932
0.0222796
0.0222917
0.0222953
0.0222982
0.0223016
0.0223062
0.022314
0.0223259
0.0223407
0.022356
0.0223702
0.0223822
0.0223918
0.022399
0.0224032
0.000639222
0.0080546
0.0176262
0.0214501
0.0221631
0.0222652
0.0222799
0.0222842
0.0222876
0.0222915
0.0222968
0.0223053
0.0223181
0.022334
0.0223505
0.0223656
0.0223785
0.0223888
0.0223965
0.0224011
0.000648552
0.00778228
0.0173007
0.0213381
0.0221322
0.0222511
0.0222687
0.0222737
0.0222777
0.0222822
0.0222881
0.0222974
0.0223111
0.0223282
0.0223458
0.0223619
0.0223757
0.0223867
0.0223949
0.0223997
0.000657005
0.00753563
0.016989
0.0212245
0.0221004
0.0222375
0.0222582
0.022264
0.0222687
0.0222738
0.0222803
0.0222904
0.0223051
0.0223233
0.0223421
0.0223593
0.0223739
0.0223856
0.0223943
0.0223994
0.00066445
0.00731242
0.0166922
0.0211104
0.0220683
0.0222245
0.0222486
0.0222553
0.0222608
0.0222664
0.0222737
0.0222845
0.0223003
0.0223195
0.0223395
0.0223577
0.0223733
0.0223856
0.0223949
0.0224003
0.000671124
0.00711074
0.0164115
0.020997
0.0220363
0.0222124
0.02224
0.0222479
0.0222541
0.0222604
0.0222683
0.02228
0.0222967
0.0223171
0.0223382
0.0223575
0.022374
0.0223871
0.0223969
0.0224026
0.000676552
0.00692914
0.0161483
0.020886
0.0220048
0.0222016
0.0222329
0.0222422
0.022249
0.0222559
0.0222645
0.022277
0.0222947
0.0223162
0.0223385
0.0223589
0.0223762
0.02239
0.0224004
0.0224064
0.000681132
0.00676657
0.0159041
0.0207791
0.0219745
0.0221925
0.0222276
0.0222384
0.0222458
0.0222534
0.0222626
0.0222759
0.0222946
0.0223172
0.0223406
0.0223621
0.0223803
0.0223948
0.0224058
0.022412
0.000684666
0.00662212
0.0156803
0.0206782
0.0219459
0.0221856
0.0222248
0.022237
0.022245
0.0222532
0.022263
0.022277
0.0222967
0.0223204
0.0223449
0.0223674
0.0223866
0.0224018
0.0224132
0.0224198
0.000686675
0.00648863
0.015471
0.0205835
0.0219194
0.0221815
0.0222253
0.0222389
0.0222472
0.0222558
0.0222661
0.0222807
0.0223013
0.0223261
0.0223516
0.0223752
0.0223953
0.0224111
0.0224231
0.02243
0.000689629
0.00634956
0.0152565
0.0204903
0.0218947
0.0221813
0.0222298
0.0222446
0.022253
0.0222618
0.0222723
0.0222875
0.0223089
0.0223346
0.0223613
0.0223858
0.0224068
0.0224233
0.0224357
0.0224431
0.000696019
0.00620448
0.0150323
0.0201351