/*--------------------------------*- C++ -*----------------------------------*\
  =========                 |
  \\      /  F ield         | OpenFOAM: The Open Source CFD Toolbox
   \\    /   O peration     | Website:  https://openfoam.org
    \\  /    A nd           | Version:  7
     \\/     M anipulation  |
\*---------------------------------------------------------------------------*/
FoamFile
{
    version     2.0;
    format      ascii;
    class       volScalarField;
    location    "0.1025";
    object      nut;
}
// * * * * * * * * * * * * * * * * * * * * * * * * * * * * * * * * * * * * * //

dimensions      [0 2 -1 0 0 0 0];

internalField   nonuniform List<scalar> 
48560
(
0.0109737
0.0108591
0.0107428
0.0106293
0.0105199
0.0104152
0.0103164
0.0102242
0.0101392
0.0100622
0.00999376
0.00993445
0.00988481
0.00984534
0.00981655
0.00979891
0.00979293
0.00979909
0.00981794
0.00985001
0.00989589
0.00995622
0.0100317
0.0101231
0.0102312
0.010357
0.0105014
0.0106656
0.0109097
0.011187
0.0114957
0.0118335
0.0121954
0.0125761
0.0129685
0.0133742
0.0137934
0.014233
0.0147002
0.0152163
0.0158008
0.0164517
0.0171728
0.0179348
0.0186576
0.0190399
0.0182837
0.0159676
0.0125075
0.00882589
0.00272885
0.000930474
0.000976962
0.000968114
0.000996071
0.000993333
0.00103448
0.00104539
0.00111905
0.00117796
0.00133461
0.00141797
0.00147703
0.00134195
0.00147458
0.00116006
0.00117266
0.00122199
0.00130548
0.00140812
0.00153769
0.00167393
0.00182741
0.00197027
0.0021075
0.00220703
0.0022495
0.00218696
0.00202248
0.00182361
0.00160593
0.00163223
0.00174762
0.00175034
0.00173292
0.00166659
0.00160078
0.00153269
0.00148619
0.00144006
0.00141113
0.00138601
0.00136375
0.00133896
0.00131369
0.00128166
0.00124376
0.0011948
0.00113398
0.00105896
0.0104091
0.0103744
0.0103419
0.0103136
0.0102905
0.0102733
0.0102629
0.0102597
0.0102646
0.010278
0.0103004
0.0103324
0.0103745
0.0104271
0.0104907
0.0105659
0.0106532
0.0107528
0.0108653
0.0109906
0.0111293
0.0112816
0.0114477
0.0116277
0.0118218
0.0120299
0.0122516
0.0124871
0.012832
0.0131973
0.0135867
0.0139978
0.0144355
0.014903
0.0154153
0.0159906
0.0166401
0.017377
0.0182058
0.019126
0.020134
0.021161
0.0220253
0.0223329
0.0217185
0.0199047
0.0171451
0.0139664
0.0113517
0.00999881
0.0104304
0.016789
0.0167868
0.0166464
0.0166966
0.0165325
0.0155171
0.015302
0.013982
0.013917
0.0124222
0.0118381
0.010557
0.0111027
0.00970137
0.0096784
0.00942976
0.0094869
0.00922821
0.00919255
0.00917863
0.00931156
0.00947383
0.0097238
0.00999417
0.0101932
0.0101336
0.00967522
0.010505
0.0103687
0.0114339
0.0162505
0.0148503
0.0140152
0.0136373
0.0136112
0.0142586
0.0159081
0.0176915
0.0198597
0.0220432
0.0241474
0.0263964
0.0289674
0.0318087
0.0351617
0.0392933
0.0454352
0.0557386
0.0795714
0.0112002
0.0112295
0.0112663
0.0113097
0.011361
0.0114201
0.011488
0.0115643
0.0116498
0.0117441
0.0118481
0.0119613
0.0120846
0.0122177
0.0123611
0.0125146
0.0126786
0.0128528
0.0130375
0.013233
0.0134397
0.0136578
0.013888
0.0141308
0.0143871
0.0146576
0.0149435
0.0152475
0.0157159
0.0162311
0.0168027
0.0174365
0.0181418
0.0189255
0.0197988
0.020765
0.021823
0.0229502
0.0240795
0.0250318
0.0256201
0.0255091
0.0245739
0.0227741
0.0203055
0.0175607
0.015238
0.0137253
0.0134538
0.0146103
0.0178898
0.0263048
0.0259034
0.0254525
0.0240056
0.0247609
0.0224106
0.0236589
0.0202967
0.0210285
0.0181478
0.017271
0.0154707
0.0156268
0.0140942
0.0145021
0.0146369
0.0154654
0.0152142
0.0160481
0.0159416
0.0158821
0.0159223
0.0160211
0.0162259
0.0165007
0.0168834
0.0171807
0.0177248
0.0163661
0.0234447
0.0373359
0.0346863
0.0332347
0.0328947
0.0274275
0.0316574
0.0323295
0.0425925
0.0518709
0.062314
0.0684964
0.0749958
0.0825782
0.091528
0.102933
0.106044
0.0962003
0.089295
0.0874466
0.0136173
0.0136787
0.0137525
0.0138369
0.013933
0.0140402
0.0141593
0.0142895
0.0144314
0.0145848
0.0147504
0.0149282
0.0151192
0.0153235
0.015542
0.0157749
0.0160235
0.0162883
0.0165708
0.0168723
0.0171936
0.0175362
0.0179013
0.0182903
0.0187051
0.0191477
0.0196201
0.0201262
0.020895
0.0217336
0.0226448
0.0236271
0.0246716
0.0257531
0.0268252
0.0278008
0.0285471
0.028908
0.0287238
0.0279608
0.0265611
0.0246426
0.0224446
0.0202724
0.0183543
0.0170161
0.0165502
0.0171674
0.0189193
0.0219322
0.0272161
0.0334791
0.0342216
0.0346131
0.0317215
0.0327534
0.028925
0.0294116
0.02579
0.0257826
0.0227125
0.0213043
0.0197126
0.0196309
0.0194056
0.0194678
0.0207704
0.0222169
0.0227014
0.0230523
0.0234995
0.0240816
0.0247438
0.0255245
0.0259534
0.0237226
0.0202805
0.0202108
0.0232198
0.0274624
0.0476222
0.0700052
0.0670666
0.0658038
0.0532421
0.0492559
0.0537781
0.0500331
0.0538412
0.0542471
0.0603301
0.0647235
0.0726809
0.0790186
0.0868673
0.0931055
0.097326
0.0977888
0.0967482
0.0961931
0.0177783
0.0178718
0.0179882
0.018125
0.0182826
0.0184609
0.01866
0.0188801
0.0191215
0.0193846
0.0196701
0.0199784
0.0203103
0.0206663
0.0210473
0.0214537
0.0218864
0.0223456
0.022832
0.0233459
0.0238878
0.0244576
0.0250561
0.0256833
0.0263386
0.0270193
0.0277208
0.0284363
0.0293866
0.0303183
0.0311549
0.0318502
0.0323067
0.0324544
0.032257
0.0316659
0.030659
0.0292661
0.0275579
0.0257551
0.0239141
0.0222255
0.0208049
0.0198437
0.019522
0.0200296
0.0214605
0.0237976
0.0270606
0.0296544
0.0360646
0.0376667
0.0388589
0.0384145
0.0369935
0.03705
0.0343731
0.0342541
0.0313471
0.0309453
0.0283846
0.0268429
0.02547
0.0255597
0.0266853
0.0261879
0.0291696
0.0302675
0.0330639
0.0342478
0.0360682
0.0369097
0.0370514
0.0357788
0.0327116
0.0286881
0.025425
0.0256163
0.0263288
0.0347238
0.0534031
0.0654453
0.0693553
0.0465566
0.0433946
0.0444598
0.0465762
0.0467119
0.0523063
0.0547499
0.062505
0.0677415
0.0772267
0.0851348
0.0954183
0.101607
0.103965
0.105308
0.106898
0.10803
0.025078
0.0251881
0.0253442
0.0255388
0.025773
0.026043
0.02635
0.0266913
0.0270681
0.0274782
0.0279227
0.0283998
0.0289102
0.029452
0.0300248
0.0306253
0.0312506
0.0318931
0.0325442
0.0331943
0.0338302
0.034437
0.0349962
0.0354909
0.0359031
0.0362185
0.0364248
0.0365192
0.0364065
0.0360941
0.0355032
0.0346811
0.0335875
0.0322968
0.030865
0.0293684
0.0278435
0.0263766
0.025028
0.0238814
0.0230179
0.0225571
0.0226106
0.0233035
0.0247243
0.0269011
0.0297591
0.0332658
0.0326668
0.0349704
0.0395278
0.0408268
0.0425769
0.042853
0.0422888
0.0412483
0.0399839
0.0386581
0.0368358
0.0355085
0.033772
0.0321891
0.0316721
0.032449
0.0348339
0.0342305
0.0383858
0.0391556
0.0435122
0.0439156
0.0470508
0.0458749
0.0457182
0.0417835
0.0373015
0.0319931
0.0294646
0.0303148
0.0323705
0.0409915
0.0529833
0.0602892
0.0606649
0.0483412
0.049682
0.0489256
0.0509916
0.0516479
0.0560506
0.0590667
0.065766
0.0706941
0.0789452
0.0865638
0.0966386
0.105554
0.110598
0.113773
0.116131
0.117679
0.0366395
0.0366407
0.0367174
0.0368547
0.0370545
0.0373022
0.0375963
0.037922
0.038275
0.0386405
0.039013
0.0393769
0.039724
0.0400378
0.0403082
0.0405195
0.0406632
0.0407282
0.0407092
0.0405936
0.0403788
0.0400584
0.0396345
0.0391078
0.0384857
0.0377777
0.0369991
0.0361698
0.0350382
0.0338627
0.032645
0.0314319
0.030237
0.0291119
0.0280685
0.0271607
0.0264216
0.0259132
0.0256864
0.0258158
0.0263762
0.027441
0.0290651
0.0312697
0.0340318
0.0372626
0.040921
0.0401505
0.0381808
0.0408381
0.0430945
0.0437598
0.0455722
0.0460218
0.0453932
0.0442749
0.0431344
0.0417581
0.0401292
0.038797
0.0375497
0.0366813
0.0369687
0.0387611
0.0416364
0.041559
0.0457041
0.0467008
0.0509332
0.0515928
0.0545736
0.0529754
0.0521253
0.0469554
0.0418267
0.036526
0.0345859
0.034757
0.0373832
0.0451313
0.0515653
0.0557939
0.0536871
0.0491199
0.0515684
0.0516653
0.0541807
0.0557911
0.0602669
0.0640527
0.0707668
0.0772786
0.0868284
0.0964082
0.105904
0.113517
0.118266
0.122237
0.124853
0.126588
0.04939
0.0489478
0.0485355
0.0481657
0.047821
0.0474923
0.0471635
0.0468216
0.0464544
0.0460515
0.0456068
0.0451135
0.0445696
0.0439709
0.0433186
0.0426128
0.0418598
0.041066
0.0402442
0.0393957
0.0385313
0.0376552
0.0367779
0.0359051
0.0350463
0.0342075
0.0333963
0.0326186
0.0318271
0.031107
0.0304832
0.0299662
0.0295901
0.0293699
0.0293409
0.0295323
0.0299882
0.0307445
0.0318535
0.0333493
0.0352585
0.0375797
0.0402989
0.0433572
0.0467083
0.0503239
0.0494225
0.0443648
0.0435178
0.0453544
0.0457612
0.0460199
0.0481974
0.0488095
0.0478954
0.0467915
0.0455483
0.0440503
0.0424493
0.0409372
0.0401076
0.039794
0.0409944
0.0435509
0.0468254
0.0476737
0.0514126
0.0526874
0.0566339
0.0579714
0.0603713
0.0588785
0.0566936
0.0507443
0.0449814
0.0402556
0.0389461
0.0393035
0.0422551
0.047988
0.0517123
0.0557899
0.0542206
0.0536097
0.0553423
0.0563127
0.0583806
0.0607353
0.0647919
0.0693926
0.0760316
0.0835725
0.0931478
0.103502
0.113949
0.121914
0.127002
0.131215
0.134059
0.135943
0.0527414
0.0517354
0.0507179
0.0497451
0.0487871
0.0478586
0.0469385
0.0460355
0.0451376
0.0442523
0.0433751
0.0425135
0.0416671
0.0408416
0.0400386
0.0392627
0.0385165
0.0378035
0.0371264
0.0364917
0.0359047
0.0353725
0.0349028
0.0345046
0.0341881
0.0339652
0.0338505
0.0338612
0.0339491
0.0341605
0.0345245
0.0350371
0.0357197
0.0365718
0.0376396
0.0389374
0.0404842
0.0422912
0.0443651
0.0467023
0.0492814
0.0520758
0.0550517
0.0581876
0.0614854
0.0600585
0.0528337
0.0492178
0.0482697
0.0490787
0.0480506
0.0480705
0.0502955
0.0507622
0.0495461
0.0484003
0.0468865
0.0454088
0.0436283
0.042144
0.0415346
0.0417443
0.0434934
0.0465579
0.0502082
0.0520442
0.0550421
0.0565011
0.0601037
0.0618341
0.0636465
0.0624112
0.0594146
0.0537534
0.0483472
0.0445651
0.0433211
0.0435995
0.0461915
0.0497719
0.0519615
0.0557348
0.0553889
0.056753
0.0584132
0.0600306
0.0621885
0.0652835
0.069638
0.0751533
0.0823877
0.090945
0.101397
0.112126
0.122576
0.13058
0.13619
0.140434
0.143576
0.145575
0.0475774
0.0466749
0.0457879
0.0449567
0.0441633
0.0434161
0.0427028
0.0420309
0.0413943
0.0408006
0.0402482
0.0397446
0.0392907
0.0388929
0.0385537
0.0382798
0.0380762
0.0379512
0.0379133
0.0379742
0.0381464
0.0384459
0.0388904
0.0395015
0.0403042
0.0413284
0.0426092
0.0441798
0.0451932
0.0463078
0.0475431
0.0488807
0.0503108
0.0518232
0.0534808
0.0552881
0.057235
0.0593234
0.0615374
0.0638727
0.0663069
0.0688343
0.0714419
0.0741384
0.0708376
0.0625802
0.0568748
0.0534466
0.0521711
0.0519781
0.0499528
0.0497477
0.0517667
0.0520318
0.0505544
0.0493081
0.047531
0.0460281
0.0440382
0.0425602
0.0420806
0.0426261
0.0446751
0.04801
0.0520246
0.0546514
0.0569832
0.0585876
0.061909
0.0639237
0.065603
0.0647515
0.061621
0.0565436
0.0517502
0.0487564
0.0475352
0.0476451
0.0492285
0.0512572
0.0528921
0.0570962
0.0579379
0.0602938
0.0620338
0.0639804
0.0663925
0.069957
0.0748805
0.081022
0.089208
0.0985737
0.110124
0.121196
0.132125
0.139679
0.145742
0.149778
0.153302
0.155376
0.0435628
0.043131
0.0427333
0.0423857
0.0420839
0.0418297
0.0416223
0.041466
0.0413637
0.041322
0.0413467
0.0414458
0.0416265
0.0418974
0.0422676
0.0427482
0.0433512
0.0440912
0.0449845
0.04605
0.0473083
0.0487829
0.0504985
0.052483
0.0547649
0.0573743
0.0603414
0.0636693
0.0650618
0.0664498
0.0678731
0.0693009
0.070724
0.0721254
0.073601
0.0751449
0.076749
0.078407
0.0801093
0.0818507
0.0836292
0.0854483
0.0873126
0.0795911
0.0723383
0.0653615
0.0603928
0.0567812
0.0551908
0.0541218
0.0515104
0.0510615
0.0526648
0.0526705
0.0509299
0.0495257
0.0475416
0.0459833
0.0438147
0.0423598
0.0419347
0.0426512
0.0447436
0.048161
0.0523988
0.0555772
0.0575471
0.0593499
0.0623755
0.064758
0.0666473
0.0664824
0.0639113
0.0598419
0.0558319
0.0532248
0.0515445
0.0510859
0.0515828
0.0524838
0.0539217
0.0584694
0.0603637
0.0634622
0.0655931
0.0678666
0.0707201
0.0748059
0.0805539
0.0874111
0.0968405
0.106933
0.119707
0.130692
0.142122
0.149141
0.155623
0.159372
0.163268
0.165404
0.0448213
0.0448747
0.0449782
0.0451328
0.0453428
0.0456101
0.0459412
0.0463417
0.0468207
0.047387
0.0480517
0.0488254
0.0497202
0.0507459
0.0519144
0.0532379
0.0547316
0.0564094
0.0582879
0.060382
0.0627073
0.0652758
0.0681015
0.0711912
0.0745474
0.0781619
0.0820175
0.0860483
0.0871161
0.0880937
0.0890535
0.0899675
0.0908398
0.0916472
0.0924912
0.0933579
0.0942444
0.0951393
0.096042
0.0944628
0.0921671
0.0886881
0.0847414
0.0792506
0.0736554
0.0675564
0.0628331
0.0592758
0.0572298
0.0555262
0.0525745
0.0520315
0.0530176
0.052747
0.0507458
0.0491723
0.0470588
0.0454317
0.0431554
0.0417243
0.0413242
0.0420776
0.044055
0.0473862
0.051688
0.0552657
0.0573748
0.0594083
0.0622085
0.0651817
0.0675899
0.0684877
0.0668823
0.0639011
0.0604545
0.0577979
0.0553435
0.0540932
0.0535291
0.0537013
0.0551626
0.0601462
0.0629417
0.0667335
0.0693725
0.0719738
0.0752923
0.0799951
0.0866558
0.0943922
0.105131
0.115989
0.129892
0.140755
0.152421
0.158951
0.165686
0.169262
0.173401
0.175621
0.0514096
0.0519152
0.0524872
0.0531146
0.0538044
0.0545602
0.0553906
0.0563026
0.0573071
0.0584141
0.0596364
0.0609854
0.0624736
0.0641091
0.0658983
0.0678465
0.0699575
0.0722328
0.074675
0.0772808
0.0800452
0.0829572
0.0860006
0.0891432
0.092347
0.0955595
0.0987235
0.101761
0.102247
0.10187
0.0999073
0.0961636
0.0943103
0.0920111
0.0903949
0.0887351
0.0873384
0.0856875
0.0843512
0.0828533
0.0816537
0.0801211
0.0785441
0.0760321
0.0726231
0.0684836
0.0646327
0.0609483
0.0584934
0.0563064
0.0532079
0.0528089
0.0529643
0.0523515
0.0500579
0.0483149
0.0461421
0.0444604
0.0421479
0.0407548
0.0403808
0.0410982
0.0428634
0.045972
0.0501842
0.0541326
0.0567963
0.0590585
0.0617215
0.0654742
0.0686346
0.0710206
0.070745
0.0689241
0.0656646
0.0623838
0.0589686
0.0567687
0.055201
0.0548407
0.056316
0.0616577
0.0653171
0.0698695
0.0732296
0.0762799
0.08011
0.0856176
0.0932881
0.102155
0.114205
0.125902
0.140623
0.151412
0.162991
0.169096
0.17582
0.179324
0.183574
0.185896
0.0613997
0.0622916
0.0632577
0.0642725
0.0653414
0.0664658
0.0676509
0.0688999
0.0702184
0.0716119
0.0730878
0.0746532
0.0763155
0.078079
0.0799411
0.0818906
0.0839093
0.085979
0.0880762
0.0901738
0.0922385
0.0942305
0.0960979
0.0977837
0.0992259
0.100363
0.0982335
0.0945737
0.0941022
0.0885151
0.087675
0.0843171
0.0831423
0.0808744
0.0795198
0.0780352
0.076785
0.0756289
0.0743443
0.0732011
0.0720001
0.0708897
0.0698148
0.0687983
0.067864
0.0665094
0.0643403
0.0615763
0.0592421
0.0567413
0.0537824
0.0533889
0.0525887
0.0514977
0.0488898
0.0470058
0.044848
0.0431813
0.040941
0.0396259
0.0392754
0.0399105
0.0413956
0.044175
0.0481622
0.0524197
0.0558801
0.0584462
0.0610827
0.0657918
0.0699581
0.0742653
0.0756006
0.0747986
0.071161
0.0667401
0.062284
0.0590544
0.0566969
0.0558646
0.0573447
0.0629499
0.067392
0.0728444
0.0771724
0.0808038
0.0852157
0.0917262
0.100529
0.110771
0.124128
0.136776
0.152
0.16267
0.173831
0.179511
0.185938
0.18942
0.193656
0.196083
0.0715648
0.072649
0.0737951
0.0749669
0.0761654
0.0773872
0.0786315
0.0798931
0.081168
0.0824499
0.0837334
0.0850136
0.0862871
0.0875508
0.0888001
0.0900204
0.0911834
0.0922535
0.0931921
0.0939591
0.093242
0.0915328
0.0901227
0.0885925
0.0869032
0.0848646
0.0831765
0.0811606
0.0812139
0.0767938
0.0769136
0.074049
0.0737415
0.0719113
0.0712425
0.0702527
0.0693034
0.0687033
0.0676799
0.0668051
0.0658099
0.0649389
0.0640033
0.0632498
0.062576
0.0619546
0.0613463
0.0607768
0.0593346
0.0575348
0.0546656
0.0540563
0.0522749
0.0504253
0.0473354
0.0452479
0.0431304
0.0415296
0.0394109
0.038193
0.0379012
0.0384859
0.039715
0.0421581
0.0458359
0.0502431
0.0543728
0.0574302
0.0604888
0.065977
0.0715702
0.0780562
0.0813429
0.0812615
0.0766282
0.0707442
0.0651228
0.0609227
0.0579824
0.0567149
0.0581369
0.0638537
0.0690347
0.0755939
0.0810253
0.0856316
0.0908418
0.0984712
0.108635
0.120435
0.135131
0.148645
0.164043
0.174448
0.184941
0.190126
0.195959
0.199364
0.203476
0.205993
0.0784182
0.0793776
0.080364
0.0813418
0.0823088
0.0832589
0.0841867
0.0850829
0.0859366
0.0867333
0.0874564
0.0880874
0.0886089
0.0890066
0.0892706
0.089395
0.0880793
0.0852223
0.0818583
0.0786686
0.0758182
0.0735507
0.0718268
0.07057
0.0695406
0.0685586
0.0678984
0.0673958
0.0679231
0.0648347
0.0658427
0.0634157
0.0639908
0.0626618
0.0627313
0.0621874
0.0616796
0.0613973
0.0607919
0.0604959
0.0601433
0.0599581
0.0596926
0.059409
0.0589805
0.0585496
0.0583665
0.0583184
0.0581924
0.0578235
0.0556751
0.0545973
0.051704
0.0487659
0.0451667
0.0429426
0.0409781
0.0396093
0.0378224
0.0368041
0.0365878
0.0371124
0.0380471
0.0400856
0.0432546
0.0475213
0.0519371
0.0558539
0.0601269
0.0657241
0.0734179
0.0819708
0.0875574
0.0877077
0.081525
0.0741813
0.0675711
0.0626036
0.0591775
0.0575407
0.0588054
0.064536
0.0705213
0.0782743
0.084983
0.0912993
0.0976453
0.106394
0.118287
0.131694
0.147771
0.16172
0.176717
0.186423
0.196022
0.200697
0.205695
0.208841
0.212706
0.215285
0.0796601
0.0801989
0.0807198
0.0812016
0.0816408
0.0820325
0.0823718
0.0826505
0.0828579
0.0829805
0.0830014
0.0828989
0.0826476
0.0822222
0.0816008
0.0757834
0.0721618
0.0699983
0.0673627
0.0640584
0.0607351
0.0578486
0.0555525
0.0539729
0.0530279
0.0525683
0.0526531
0.0532444
0.05449
0.053513
0.0556699
0.0536473
0.0550174
0.053975
0.0546565
0.054195
0.05424
0.0538416
0.0537409
0.0537586
0.0538406
0.0539646
0.0543209
0.0546353
0.0551607
0.0554764
0.0558006
0.0559076
0.0563945
0.0569813
0.0568272
0.0557066
0.0523802
0.0479129
0.04308
0.0402044
0.0382534
0.0371109
0.0356783
0.0348138
0.0347011
0.0352806
0.0360153
0.0378163
0.0404577
0.0445038
0.0489412
0.0537623
0.0594021
0.0649845
0.0749706
0.0854437
0.0933404
0.0932572
0.0854848
0.0768107
0.0694866
0.0640724
0.0602799
0.0583587
0.0593648
0.0650317
0.0719114
0.0809814
0.0896236
0.0986361
0.106684
0.116882
0.131049
0.146034
0.163247
0.176659
0.190041
0.197997
0.206261
0.210676
0.214905
0.217522
0.220807
0.223363
0.0749538
0.0749438
0.0748813
0.0747658
0.0745943
0.074365
0.0740754
0.0737217
0.0732969
0.072793
0.072201
0.0715078
0.070695
0.0697404
0.068618
0.0673035
0.0642315
0.0586916
0.0554957
0.052456
0.0487872
0.0450256
0.0419567
0.0396926
0.0384407
0.0380306
0.0382622
0.0363313
0.0376106
0.0389098
0.0400804
0.0414114
0.0427444
0.0443057
0.0458499
0.0469596
0.047727
0.0475484
0.0480498
0.0481709
0.0485706
0.0486867
0.0491873
0.0494661
0.0501864
0.0509068
0.0519491
0.0528657
0.0539155
0.0551742
0.0559499
0.055612
0.0510496
0.0450493
0.0395849
0.0364089
0.0346429
0.0340328
0.0334871
0.0331852
0.033146
0.0339936
0.034368
0.0359411
0.0376904
0.0411924
0.0453516
0.0505433
0.0568626
0.0645167
0.0750142
0.0881169
0.0974149
0.0966727
0.0877046
0.0784081
0.0708614
0.065383
0.0614594
0.0593591
0.0600307
0.0654666
0.0729304
0.083396
0.0946443
0.107328
0.118493
0.131597
0.14874
0.165598
0.182692
0.193976
0.203941
0.209255
0.215418
0.219885
0.22379
0.225752
0.227643
0.229738
0.0656203
0.065133
0.0645807
0.0639812
0.0633327
0.0626356
0.0618877
0.0610874
0.060233
0.0593233
0.0583545
0.0573228
0.0562208
0.0550379
0.0537579
0.0523593
0.0508166
0.0491081
0.0472242
0.0427645
0.0390764
0.0352495
0.0316139
0.0287451
0.0268308
0.025846
0.0256755
0.0233412
0.0243673
0.0254426
0.026361
0.0274615
0.0285394
0.0298446
0.0311368
0.032553
0.0340172
0.0356016
0.03728
0.0390885
0.0410188
0.0430992
0.0439433
0.0442484
0.0449578
0.0457838
0.0471761
0.0487631
0.0508858
0.0534322
0.0560187
0.0598454
0.0580351
0.0495011
0.0397799
0.0340071
0.0311709
0.0303785
0.0299887
0.0304734
0.0302272
0.0315502
0.0315407
0.0332997
0.0344455
0.0379764
0.0419483
0.0471306
0.0530802
0.0634935
0.0741489
0.0896426
0.0997506
0.0978529
0.0882256
0.0788293
0.0713951
0.0659748
0.062094
0.0597649
0.0597412
0.0639898
0.072083
0.0836253
0.0974322
0.114094
0.130629
0.14742
0.166615
0.185199
0.196283
0.20202
0.207858
0.213679
0.219356
0.224694
0.229458
0.232233
0.233246
0.234508
0.0537418
0.0529745
0.0521488
0.0512925
0.0504042
0.0494848
0.0485324
0.0475475
0.0465298
0.0454806
0.0443988
0.0432843
0.0421347
0.0409476
0.0397173
0.0384351
0.0370865
0.0356517
0.0341061
0.0324263
0.0306106
0.0286628
0.0261435
0.0216886
0.0184986
0.0167893
0.016644
0.0149829
0.0155862
0.0162905
0.0168437
0.0175617
0.0182515
0.0191323
0.0200063
0.0210068
0.0220519
0.0232212
0.0244659
0.025843
0.0273356
0.0289931
0.0307994
0.0327916
0.0349552
0.0372958
0.039768
0.0418792
0.0442974
0.0471143
0.0495072
0.0513736
0.0523222
0.0454786
0.0346436
0.0302399
0.0286542
0.0280903
0.0280493
0.0296637
0.0291389
0.0308602
0.0306478
0.0324057
0.0328231
0.0354883
0.0379072
0.0424934
0.0479744
0.0569069
0.0704143
0.0820364
0.0913034
0.0897938
0.082958
0.0754127
0.0695464
0.0650775
0.0615947
0.059238
0.0588198
0.0626953
0.0701146
0.0806918
0.0953364
0.112734
0.133137
0.145019
0.150518
0.156501
0.163005
0.17007
0.177735
0.186001
0.194796
0.203997
0.213314
0.222261
0.23007
0.235744
0.0413984
0.0405714
0.0397011
0.0388171
0.0379178
0.0370047
0.0360762
0.035134
0.0341775
0.033208
0.0322246
0.0312285
0.0302188
0.0291962
0.0281597
0.0271092
0.0260419
0.0249532
0.023832
0.0226602
0.0214126
0.0200638
0.0186076
0.0170633
0.0142191
0.011505
0.0109088
0.0105058
0.0106927
0.011018
0.0112432
0.0115892
0.011916
0.0123676
0.0128119
0.0133523
0.01392
0.0145857
0.0152987
0.0161184
0.0170137
0.0180356
0.019196
0.0205234
0.0220164
0.0236886
0.0255163
0.0274712
0.029481
0.0314638
0.0332905
0.0348473
0.0353701
0.0355941
0.035923
0.0366457
0.03191
0.0284279
0.0272959
0.0297426
0.0283717
0.0307588
0.0302106
0.0311193
0.0314684
0.0326869
0.0365952
0.0421148
0.0490709
0.056602
0.0752289
0.0800313
0.0798662
0.0801343
0.0789531
0.0705847
0.06451
0.0605552
0.0576749
0.0556751
0.0541598
0.0545659
0.0588203
0.0680754
0.0825822
0.0919064
0.095379
0.0997968
0.104418
0.109674
0.115654
0.122495
0.130303
0.139309
0.149718
0.161835
0.175875
0.19193
0.209495
0.226687
0.0303843
0.0296738
0.0289358
0.0281958
0.0274522
0.0267067
0.0259577
0.025207
0.0244534
0.0236985
0.0229409
0.0221822
0.0214212
0.0206591
0.0198952
0.0191309
0.0183656
0.0176001
0.0168326
0.0160601
0.0152728
0.0144529
0.0135769
0.012632
0.0116263
0.00958215
0.00762632
0.00832903
0.0084061
0.00850966
0.00854331
0.00865132
0.00874487
0.00890224
0.00905448
0.00925751
0.00947078
0.00973649
0.0100211
0.0103625
0.0107359
0.0111705
0.0116728
0.0122732
0.012977
0.0138007
0.014738
0.0157897
0.0169163
0.0180793
0.0192089
0.0202571
0.020602
0.020703
0.0207501
0.0208929
0.0164424
0.0162001
0.0240154
0.0328397
0.0351325
0.0391163
0.0397674
0.0416754
0.0426486
0.0422233
0.0442639
0.0415802
0.0406003
0.0407118
0.0445391
0.0471141
0.0466663
0.0465097
0.0465086
0.0465531
0.0465927
0.0466072
0.046138
0.0444396
0.0431202
0.0441377
0.0462535
0.0471922
0.0480031
0.0489809
0.0506838
0.0532521
0.055972
0.0591642
0.0628774
0.0672546
0.0723855
0.0786091
0.086254
0.0960039
0.108788
0.126318
0.151393
0.188861
0.0221708
0.0216802
0.021174
0.0206699
0.0201667
0.0196655
0.019165
0.0186663
0.0181679
0.0176713
0.0171746
0.0166791
0.0161827
0.0156865
0.0151889
0.0146917
0.0141941
0.0136985
0.0132043
0.0127132
0.0122224
0.0117284
0.0112073
0.0106164
0.00991138
0.00872249
0.00534297
0.00625012
0.00730642
0.00739836
0.00736098
0.00739662
0.00738505
0.00742463
0.00743502
0.00747824
0.00750647
0.00755892
0.00760176
0.00766591
0.0077318
0.00782004
0.00792092
0.00805663
0.00822363
0.00844051
0.00870693
0.00902683
0.00938989
0.00977547
0.0101522
0.0104844
0.0105454
0.0104711
0.0103014
0.0101339
0.010063
0.0106928
0.0142099
0.0175778
0.0179771
0.0184354
0.0192697
0.0202531
0.0209661
0.0220393
0.0228509
0.0233919
0.0238991
0.0236737
0.0216248
0.0221236
0.0218065
0.0209337
0.0205319
0.0202122
0.0199377
0.0197615
0.0194349
0.0191964
0.0189197
0.0190584
0.0194444
0.0195905
0.0193645
0.0192294
0.0196063
0.0203409
0.0210565
0.0219502
0.0230493
0.0243856
0.0259353
0.0278435
0.0301933
0.0332951
0.0375688
0.0440668
0.0552452
0.0812582
0.0165797
0.0162792
0.0159648
0.015647
0.0153267
0.0150028
0.0146758
0.0143447
0.0140097
0.0136697
0.0133244
0.0129727
0.0126142
0.0122479
0.0118728
0.0114877
0.0110901
0.0106776
0.0102471
0.00979682
0.00932619
0.00883584
0.00832214
0.00777129
0.00715668
0.00644457
0.00564136
0.00136635
0.00133186
0.00134949
0.00135183
0.00136904
0.00138008
0.00139943
0.0014123
0.00142809
0.00143819
0.00144856
0.00145178
0.0014525
0.00144609
0.00143759
0.00142324
0.00140827
0.00139098
0.00137434
0.00135868
0.00134599
0.0013372
0.0013331
0.00133296
0.00132949
0.00131632
0.00129846
0.00128123
0.00126936
0.00124563
0.00117906
0.00117231
0.0012155
0.00125864
0.00130212
0.00133373
0.00136414
0.00138789
0.00141132
0.00142663
0.00145677
0.0014884
0.00154432
0.00161663
0.00166885
0.00171853
0.00175956
0.00178073
0.00178984
0.0017889
0.001777
0.00175673
0.00173073
0.00170301
0.00169629
0.00168843
0.00167367
0.00165309
0.00162449
0.00158921
0.00155717
0.00152871
0.00150332
0.0014792
0.00145638
0.00143179
0.00140412
0.0013715
0.0013324
0.00128522
0.00122861
0.00116124
0.00108165
0.00130255
0.0679658
0.0773994
0.0777068
0.0777171
0.0777157
0.077714
0.0777117
0.0777096
0.0777077
0.0777064
0.0777062
0.0777069
0.0777087
0.0777106
0.0777124
0.0777141
0.0777152
0.0777164
0.0777173
0.001393
0.0609074
0.0767771
0.0776252
0.0776614
0.0776612
0.0776596
0.0776574
0.0776555
0.0776536
0.077653
0.0776539
0.0776572
0.0776624
0.0776677
0.0776727
0.077677
0.0776802
0.0776831
0.0776849
0.00147883
0.0557099
0.0759945
0.0775245
0.0776061
0.0776086
0.077607
0.0776049
0.0776031
0.0776013
0.0776013
0.0776035
0.0776093
0.0776177
0.0776264
0.0776345
0.0776415
0.0776469
0.0776513
0.0776542
0.00155981
0.0516901
0.075101
0.0774029
0.0775505
0.0775574
0.0775562
0.0775541
0.0775523
0.0775508
0.0775511
0.0775547
0.0775629
0.0775745
0.0775867
0.0775978
0.0776073
0.0776149
0.0776209
0.0776249
0.00163599
0.0484503
0.07413
0.0772589
0.0774934
0.077507
0.0775064
0.0775043
0.0775026
0.0775013
0.077502
0.0775071
0.0775176
0.0775324
0.0775481
0.0775622
0.0775742
0.077584
0.0775913
0.0775965
0.00170763
0.0456488
0.0730926
0.0770915
0.0774341
0.077457
0.0774572
0.0774552
0.0774536
0.0774525
0.0774538
0.0774603
0.0774731
0.077491
0.0775101
0.0775273
0.077542
0.0775537
0.0775626
0.0775687
0.00177475
0.0430439
0.0719862
0.0768999
0.0773719
0.0774074
0.0774085
0.0774067
0.0774053
0.0774046
0.0774064
0.0774142
0.0774294
0.0774504
0.0774727
0.077493
0.0775102
0.0775241
0.0775346
0.0775414
0.00183772
0.04059
0.0708164
0.0766837
0.0773062
0.0773581
0.0773604
0.077359
0.0773577
0.0773573
0.0773597
0.0773687
0.0773864
0.0774105
0.077436
0.0774594
0.0774791
0.0774952
0.0775073
0.0775149
0.00189661
0.0383214
0.0695981
0.0764432
0.0772367
0.0773088
0.0773131
0.077312
0.0773108
0.0773107
0.0773137
0.0773241
0.0773443
0.0773714
0.0774002
0.0774264
0.0774488
0.0774669
0.0774806
0.0774891
0.00195183
0.0362648
0.0683466
0.0761787
0.0771631
0.0772596
0.0772665
0.0772657
0.0772647
0.0772648
0.0772685
0.0772803
0.077303
0.0773331
0.0773651
0.0773943
0.0774193
0.0774395
0.0774546
0.077464
0.00200338
0.034424
0.0670796
0.0758914
0.0770853
0.0772106
0.0772206
0.0772202
0.0772194
0.0772199
0.0772243
0.0772376
0.0772625
0.0772956
0.0773309
0.0773632
0.0773907
0.0774129
0.0774296
0.0774399
0.00205167
0.0327866
0.0658123
0.0755828
0.0770031
0.0771618
0.0771757
0.0771756
0.0771751
0.0771761
0.0771811
0.0771959
0.077223
0.0772591
0.0772976
0.0773329
0.077363
0.0773872
0.0774055
0.0774167
0.00209663
0.0313348
0.0645578
0.0752548
0.0769163
0.0771132
0.0771317
0.0771321
0.0771318
0.0771333
0.0771391
0.0771553
0.0771847
0.0772238
0.0772653
0.0773035
0.0773362
0.0773626
0.0773825
0.0773946
0.00213865
0.0300478
0.0633267
0.0749096
0.0768252
0.0770649
0.0770887
0.0770897
0.0770897
0.0770917
0.0770984
0.0771159
0.0771476
0.0771896
0.0772342
0.0772755
0.0773108
0.0773391
0.0773608
0.0773737
0.00217759
0.0289027
0.0621278
0.07455
0.0767299
0.0770169
0.077047
0.0770488
0.077049
0.0770514
0.0770589
0.077078
0.0771119
0.0771569
0.0772045
0.0772488
0.0772867
0.0773171
0.0773404
0.0773541
0.00221358
0.0278666
0.0609672
0.0741788
0.076631
0.0769696
0.0770069
0.0770094
0.07701
0.0770128
0.0770211
0.0770416
0.0770778
0.0771257
0.0771765
0.0772237
0.0772642
0.0772967
0.0773216
0.0773361
0.00224645
0.0269293
0.0598502
0.0737991
0.0765291
0.0769234
0.0769686
0.0769718
0.076973
0.0769761
0.0769852
0.0770072
0.0770456
0.0770964
0.0771505
0.0772006
0.0772437
0.0772782
0.0773046
0.0773201
0.0022764
0.0260811
0.0587813
0.0734143
0.0764249
0.0768788
0.0769325
0.0769367
0.0769383
0.0769418
0.0769517
0.076975
0.0770158
0.0770695
0.0771267
0.0771797
0.0772254
0.077262
0.0772899
0.0773063
0.00230295
0.0253143
0.057765
0.0730284
0.0763196
0.0768361
0.076899
0.0769044
0.0769063
0.0769104
0.076921
0.0769457
0.0769886
0.0770452
0.0771055
0.0771616
0.0772098
0.0772484
0.0772781
0.0772953
0.002327
0.0246225
0.0568055
0.0726455
0.0762146
0.0767962
0.0768688
0.0768759
0.0768779
0.0768822
0.0768936
0.0769197
0.0769647
0.0770242
0.0770876
0.0771466
0.0771974
0.0772381
0.0772695
0.0772875
0.00234687
0.0240006
0.0559077
0.0722707
0.0761115
0.07676
0.076843
0.0768519
0.0768538
0.0768582
0.0768702
0.0768975
0.0769448
0.0770069
0.0770734
0.0771355
0.0771888
0.0772316
0.0772648
0.0772836
0.00236416
0.0234451
0.0550771
0.0719097
0.076012
0.076729
0.0768227
0.0768334
0.076835
0.0768393
0.0768516
0.07688
0.0769295
0.0769943
0.0770638
0.0771289
0.0771848
0.0772297
0.0772644
0.0772842
0.00237819
0.0229526
0.0543188
0.0715689
0.0759182
0.0767047
0.0768098
0.0768221
0.0768228
0.0768267
0.076839
0.0768683
0.0769198
0.0769873
0.0770597
0.0771277
0.0771862
0.0772331
0.0772694
0.0772902
0.00238741
0.022498
0.0536124
0.0712479
0.0758309
0.0766894
0.0768065
0.0768196
0.0768187
0.0768217
0.0768335
0.0768634
0.0769166
0.0769867
0.077062
0.0771328
0.077194
0.0772428
0.0772808
0.0773027
0.00240077
0.0220232
0.0528892
0.0709302
0.075749
0.0766859
0.0768154
0.0768282
0.0768247
0.0768258
0.0768366
0.0768667
0.0769211
0.0769936
0.0770718
0.0771454
0.077209
0.0772598
0.0772995
0.0773225
0.00242592
0.0215262
0.0521315
0.0697027
0.0756753
0.0766979
0.0768395
0.0768504
0.0768428
0.0768409
0.0768498
0.0768793
0.0769345
0.0770092
0.0770901
0.0771664
0.0772325
0.0772854
0.0773266
0.0773509
0.00245681
0.0209749
0.0513287
0.063072
0.0756182
0.0767291
0.0768818
0.0768892
0.0768753
0.0768691
0.0768748
0.0769029
0.0769584
0.0770348
0.0771183
0.0771972
0.0772656
0.0773204
0.0773633
0.0773889
0.002488
0.0204025
0.0503528
0.0590124
0.0736162
0.0750776
0.0769448
0.0769473
0.0769252
0.0769125
0.0769135
0.0769392
0.0769943
0.077072
0.0771578
0.077239
0.0773097
0.0773662