/*--------------------------------*- C++ -*----------------------------------*\
  =========                 |
  \\      /  F ield         | OpenFOAM: The Open Source CFD Toolbox
   \\    /   O peration     | Website:  https://openfoam.org
    \\  /    A nd           | Version:  7
     \\/     M anipulation  |
\*---------------------------------------------------------------------------*/
FoamFile
{
    version     2.0;
    format      ascii;
    class       surfaceScalarField;
    location    "0.1025";
    object      phi;
}
// * * * * * * * * * * * * * * * * * * * * * * * * * * * * * * * * * * * * * //

dimensions      [1 0 -1 0 0 0 0];

internalField   nonuniform List<scalar> 
96484
(
-0.00143595
-0.0014142
-0.00139336
-0.00137344
-0.00135434
-0.00133601
-0.00131835
-0.00130132
-0.00128484
-0.00126888
-0.00125341
-0.00123839
-0.00122378
-0.00120954
-0.00119561
-0.00118195
-0.00116851
-0.00115524
-0.0011421
-0.00112904
-0.00111605
-0.00110308
-0.00109012
-0.00107711
-0.00106403
-0.00105086
-0.00103759
-0.00103258
-0.00102654
-0.00101922
-0.00101023
-0.000999034
-0.000984993
-0.000967865
-0.000947686
-0.00092449
-0.000899235
-0.00087273
-0.000847587
-0.000824174
-0.000800837
-0.000777619
-0.000753533
-0.000731158
-0.000714193
-0.000721284
-0.000771224
-0.000863292
-0.000997976
-0.00121566
-0.0016475
-0.00154509
-0.00142836
-0.00138104
-0.00130641
-0.00124785
-0.00116709
-0.00108331
-0.000994343
-0.000901585
-0.000788821
-0.00065783
-0.000572666
-0.000548869
-0.000463559
-0.000478947
-0.000516776
-0.000538111
-0.000569277
-0.000607692
-0.000654807
-0.000707477
-0.000767337
-0.000831992
-0.000901419
-0.000976397
-0.00105579
-0.00113009
-0.00120497
-0.00145101
-0.0019222
-0.00163042
-0.00151396
-0.00146335
-0.00145717
-0.00150283
-0.00159733
-0.00165963
-0.00170834
-0.00173316
-0.00174215
-0.0017459
-0.00174918
-0.00175103
-0.00175367
-0.00175621
-0.00175928
-0.00175964
-0.0017492
0.000140351
0.000150684
-0.00148859
0.000156435
-0.00146857
0.000161794
-0.00144939
0.000166714
-0.00143106
0.000171256
-0.00141344
0.000175424
-0.00139651
0.000179279
-0.00138016
0.000182863
-0.0013644
0.000186233
-0.00134918
0.000189438
-0.00133453
0.000192499
-0.00132039
0.000195457
-0.00130677
0.00019832
-0.0012936
0.000201124
-0.00128083
0.000203867
-0.00126834
0.000206583
-0.00125605
0.00020927
-0.00124388
0.000211966
-0.00123173
0.000214674
-0.00121954
0.000217425
-0.00120726
0.000220215
-0.00119485
0.000223056
-0.0011823
0.000225948
-0.00116957
0.000228898
-0.0011566
0.000231906
-0.00114331
0.000234805
-0.00112957
0.000337731
-0.00111526
0.000342625
-0.00110075
0.000346525
-0.00108391
0.000349693
-0.0010649
0.000351737
-0.00104354
0.000352751
-0.00102009
0.000352889
-0.000994951
0.000352063
-0.000969985
0.000349807
-0.000945758
0.000346692
-0.000923406
0.000342271
-0.000902021
0.000338302
-0.000881253
0.000334468
-0.000861578
0.000326489
-0.000842538
0.000317978
-0.000828194
0.000304439
-0.000822114
0.000290781
-0.00083188
0.000280295
-0.000867549
0.000276247
-0.000936289
0.000270317
-0.00102515
0.00025846
-0.00112303
0.000263987
-0.00122516
0.000309782
-0.00134289
0.000530791
-0.00150772
-0.000102418
-0.00167139
-0.000116727
-0.00159265
-4.73216e-05
-0.00154073
-7.46276e-05
-0.00149445
-5.85555e-05
-0.00144657
-8.07673e-05
-0.00139876
-8.37789e-05
-0.00134043
-8.89644e-05
-0.00127853
-9.2758e-05
-0.00122007
-0.000112764
-0.00116984
-0.000130991
-0.0011061
-8.51643e-05
-0.00102951
-2.37971e-05
-0.000983228
-8.531e-05
-0.000972772
1.53877e-05
-0.000907372
3.78294e-05
-0.000949916
2.1335e-05
-0.000999903
3.11659e-05
-0.00103322
3.84156e-05
-0.00108244
4.71145e-05
-0.00112606
5.26703e-05
-0.00117203
5.98594e-05
-0.00121406
6.46553e-05
-0.00125563
6.94269e-05
-0.00129445
7.49779e-05
-0.00133137
7.93918e-05
-0.00136378
7.42999e-05
-0.00138897
7.48835e-05
-0.00141528
0.000246033
-0.00148139
0.000471194
-0.00161438
-0.00029178
-0.00164571
-0.000116461
-0.00164446
-5.06112e-05
-0.00160676
-6.17357e-06
-0.00159326
4.5652e-05
-0.0016148
9.45015e-05
-0.00165906
6.23e-05
-0.00168681
4.87118e-05
-0.00171719
2.48202e-05
-0.00173319
8.9949e-06
-0.0017413
3.74345e-06
-0.00175091
3.28743e-06
-0.00175376
1.84052e-06
-0.00175477
2.64509e-06
-0.00175347
2.5412e-06
-0.00175159
3.0695e-06
-0.00174788
3.62069e-07
-0.0017417
-1.0445e-05
-0.00173171
-2.55789e-05
-0.00171751
0.000120015
0.000130667
-0.00157443
0.000137251
-0.00155741
0.000143471
-0.00154102
0.000149091
-0.00152528
0.000154329
-0.00151007
0.000159066
-0.00149537
0.000163523
-0.00148108
0.000167644
-0.00146722
0.00017158
-0.00145379
0.000175299
-0.00144083
0.000178884
-0.00142827
0.000182285
-0.00141607
0.000185544
-0.0014041
0.000188632
-0.00139233
0.000191585
-0.00138064
0.000194403
-0.00136898
0.000197125
-0.00135726
0.000199771
-0.00134543
0.000202393
-0.00133342
0.000205015
-0.00132118
0.000207669
-0.00130859
0.000210331
-0.00129562
0.000212978
-0.00128205
0.000215602
-0.001268
0.000218164
-0.00125343
0.000220497
-0.00123847
0.000323226
-0.0012232
0.000325784
-0.00119781
0.000327512
-0.00117213
0.000328333
-0.00114645
0.000328289
-0.00112095
0.000327609
-0.00109531
0.000327923
-0.00106899
0.000327836
-0.00104399
0.000327455
-0.00102008
0.000325307
-0.000997615
0.000321504
-0.000978921
0.000318627
-0.000965789
0.000315427
-0.000961444
0.000312145
-0.000970912
0.000311897
-0.000999848
0.000314205
-0.00105195
0.00032645
-0.00112534
0.000349035
-0.0012069
0.000365108
-0.00127613
0.000368199
-0.00132721
0.000360585
-0.00137316
0.000381717
-0.00142558
0.000474619
-0.00149888
0.000694462
-0.00158818
-0.000181167
-0.00164612
-0.000168638
-0.00160773
-9.36083e-05
-0.0015817
-0.000122502
-0.00154542
-0.000106371
-0.00150618
-0.000139096
-0.0014682
-0.000145674
-0.00141915
-0.000147429
-0.00137024
-0.000142984
-0.0013268
-0.000176503
-0.00129606
-0.000207581
-0.00125536
-0.000131451
-0.00120966
-3.42538e-05
-0.00118415
-0.000150709
-0.00117354
5.79313e-05
-0.00114267
8.78165e-05
-0.00118982
5.46489e-05
-0.00122212
8.03873e-05
-0.00125928
8.20411e-05
-0.00130273
9.30784e-05
-0.00133985
9.46998e-05
-0.0013735
0.000101428
-0.00139805
0.000103476
-0.00141917
0.000106349
-0.00143391
0.000107388
-0.00144475
0.000104587
-0.00145043
0.000100612
-0.00145459
0.000140985
-0.00147534
0.000379031
-0.00154905
0.000502524
-0.00164234
-0.000293039
-0.00162536
-0.000154159
-0.00161757
-6.41043e-05
-0.00159582
1.53615e-05
-0.00159296
8.99167e-05
-0.00162485
0.000122244
-0.00165976
9.26802e-05
-0.00167737
6.47176e-05
-0.00169807
3.29289e-05
-0.00170883
1.86072e-05
-0.00171677
6.59376e-06
-0.00171885
4.29447e-06
-0.00172103
5.35643e-07
-0.0017207
7.72009e-07
-0.0017213
-1.16596e-06
-0.00172048
-3.1177e-06
-0.0017179
-9.62401e-06
-0.00171103
-2.46455e-05
-0.00169949
-4.19952e-05
-0.00168657
0.000102786
0.000113649
-0.00163001
0.000120854
-0.00161502
0.000127738
-0.00160014
0.000133875
-0.0015857
0.000139633
-0.00157145
0.000144772
-0.00155766
0.000149667
-0.00154421
0.000154208
-0.00153127
0.000158626
-0.00151868
0.000162736
-0.00150649
0.00016668
-0.00149454
0.00017032
-0.0014829
0.000173771
-0.0014715
0.000176941
-0.00146042
0.000179928
-0.00144964
0.000182683
-0.00143924
0.000185295
-0.00142919
0.000187765
-0.00141951
0.000190148
-0.00141008
0.000192426
-0.00140081
0.000194698
-0.00139155
0.000196764
-0.00138224
0.00019893
-0.00137287
0.000201027
-0.00136332
0.000203205
-0.0013536
0.000205231
-0.00134373
0.000297833
-0.00133378
0.000300098
-0.00130688
0.000301841
-0.00127964
0.000302826
-0.00125257
0.000302654
-0.0012262
0.000301288
-0.001202
0.000302918
-0.0011807
0.000303934
-0.00116326
0.000304986
-0.00115213
0.000306613
-0.00115088
0.000308372
-0.00116191
0.000314281
-0.00118876
0.000324896
-0.00123018
0.000341081
-0.00128155
0.000364
-0.00134084
0.000387593
-0.00139326
0.000408017
-0.00143308
0.000418257
-0.00145797
0.000416195
-0.00147087
0.000414146
-0.00148124
0.000413004
-0.00149086
0.000455021
-0.00152206
0.000563911
-0.00156874
0.000752404
-0.0016158
-0.000219552
-0.00162481
-0.000194669
-0.00160274
-0.00012989
-0.00159226
-0.000161745
-0.00156018
-0.000144353
-0.00153661
-0.000188144
-0.00150195
-0.000194578
-0.0014668
-0.000190878
-0.00142427
-0.000173718
-0.00139573
-0.000217205
-0.00137657
-0.000253275
-0.00135407
-0.000156968
-0.00132685
-4.48627e-05
-0.0013104
-0.000181574
-0.00129319
0.000105074
-0.00128852
0.000120117
-0.00132665
9.18168e-05
-0.00134327
0.000123831
-0.00138003
0.000119161
-0.00141163
0.000126731
-0.00144369
0.000119245
-0.00146787
0.000122555
-0.00148493
0.000118216
-0.001497
0.000117187
-0.00150342
0.000113062
-0.0015062
0.000108748
-0.00150526
0.000121368
-0.00150822
0.000214696
-0.00153167
0.000472319
-0.00158588
0.000485538
-0.00161869
-0.00030082
-0.00159645
-0.000175912
-0.00160598
-6.6965e-05
-0.00161003
4.72489e-05
-0.00162814
0.000124829
-0.00164764
0.000139854
-0.00166219
0.000113383
-0.00167033
7.54785e-05
-0.00167868
4.08666e-05
-0.00168283
2.06904e-05
-0.00168802
8.76727e-06
-0.00169036
3.96892e-06
-0.00169144
1.13299e-06
-0.00169056
-4.99775e-08
-0.00168864
-3.74148e-06
-0.00168522
-9.99259e-06
-0.00168089
-2.1159e-05
-0.00167427
-3.75624e-05
-0.00166537
-5.40665e-05
-0.00165597
8.7946e-05
9.8662e-05
-0.00164896
0.000105972
-0.00163679
0.000113294
-0.00162516
0.000119626
-0.00161392
0.00012585
-0.00160333
0.000131314
-0.00159331
0.000136735
-0.00158396
0.00014162
-0.00157518
0.000146431
-0.00156692
0.000150787
-0.00155913
0.00015504
-0.00155175
0.000158918
-0.00154477
0.00016269
-0.0015381
0.00016616
-0.00153173
0.000169527
-0.00152559
0.000172637
-0.00151968
0.000175616
-0.00151397
0.000178333
-0.00150848
0.000180876
-0.00150318
0.000183166
-0.0014981
0.000185394
-0.00149328
0.000187395
-0.00148872
0.000189377
-0.00148461
0.00019131
-0.00148108
0.000193329
-0.00147848
0.000195286
-0.001477
0.000270927
-0.00147709
0.000272862
-0.00145711
0.000274769
-0.00143991
0.000276459
-0.00142724
0.000278446
-0.00141961
0.000279993
-0.00141868
0.000285479
-0.00142594
0.000292796
-0.00144279
0.000303739
-0.00146841
0.000317648
-0.00150067
0.000335219
-0.00153661
0.000355699
-0.00157141
0.000376268
-0.00159954
0.000400375
-0.00162456
0.000416414
-0.00163496
0.000427417
-0.00163496
0.000432907
-0.00162545
0.000431151
-0.0016099
0.000426573
-0.00159424
0.000423759
-0.00158022
0.00044421
-0.00157973
0.000501698
-0.0015916
0.000610971
-0.00161157
0.000761417
-0.00162322
-0.000241625
-0.00160438
-0.000205146
-0.0015983
-0.000161972
-0.00159206
-0.000185318
-0.00157015
-0.000179007
-0.00155087
-0.000223295
-0.00152314
-0.000237111
-0.00149392
-0.000219422
-0.00145812
-0.000192873
-0.00143699
-0.000239712
-0.00142514
-0.000280491
-0.00141208
-0.000173417
-0.00139759
-6.20745e-05
-0.00138699
-0.000186239
-0.00137564
0.000143198
-0.00138283
0.00013674
-0.00140473
0.000128574
-0.00141731
0.000155435
-0.00144823
0.000151218
-0.00147239
0.000150907
-0.00149975
0.000136304
-0.0015167
0.000134633
-0.00152853
0.000124634
-0.00153402
0.000119972
-0.00153496
0.000112112
-0.00153189
0.000111711
-0.00152769
0.000144821
-0.00153173
0.000268905
-0.00155852
0.000505129
-0.00159905
0.000463296
-0.00159999
-0.000291284
-0.00157209
-0.000171864
-0.00159133
-4.88576e-05
-0.00160423
6.67486e-05
-0.00162877
0.000139381
-0.00164397
0.000147988
-0.00164912
0.000121735
-0.00165108
7.96281e-05
-0.00165392
4.60632e-05
-0.00165496
2.30232e-05
-0.00165632
9.84774e-06
-0.00165614
3.08788e-06
-0.00165677
-7.83766e-07
-0.00165628
-3.47492e-06
-0.00165571
-8.07124e-06
-0.00165256
-1.66119e-05
-0.00164741
-3.00508e-05
-0.00164021
-4.69686e-05
-0.0016327
-6.27757e-05
-0.00162583
7.596e-05
8.6494e-05
-0.00168817
9.43351e-05
-0.00167944
0.000102056
-0.00167123
0.000109038
-0.00166348
0.000115833
-0.00165645
0.000121959
-0.00165001
0.000127952
-0.00164422
0.000133361
-0.00163896
0.000138641
-0.00163431
0.000143414
-0.00163022
0.000148051
-0.00162679
0.00015225
-0.001624
0.000156318
-0.00162195
0.000160024
-0.00162066
0.00016362
-0.00162022
0.000166927
-0.00162072
0.000170122
-0.00162241
0.000173027
-0.00162564
0.000175804
-0.00163073
0.000178343
-0.00163813
0.000180833
-0.00164829
0.00018328
-0.00166164
0.00018585
-0.00167853
0.000188713
-0.00169916
0.000191845
-0.00172356
0.000195374
-0.00175198
0.000250953
-0.0017844
0.000255654
-0.00179242
0.000262102
-0.0018032
0.00026883
-0.00181804
0.000277517
-0.00183485
0.000287255
-0.0018532
0.00030233
-0.0018699
0.00031841
-0.00188426
0.000336004
-0.00189433
0.000353581
-0.00189851
0.000370026
-0.00189548
0.00038383
-0.00188744
0.000401281
-0.00187459
0.000410774
-0.00185065
0.000416422
-0.0018203
0.000417899
-0.00178581
0.000417358
-0.00175006
0.000415496
-0.00171519
0.000412548
-0.00168133
0.000423268
-0.00165827
0.000456083
-0.00164521
0.000521666
-0.00164044
0.000622621
-0.00163654
0.000742579
-0.00162085
-0.000247706
-0.00158218
-0.000211383
-0.0015856
-0.000183879
-0.00158213
-0.000204607
-0.00156732
-0.000206731
-0.00155328
-0.000252517
-0.00153006
-0.00027291
-0.00150665
-0.000240557
-0.00147508
-0.000204717
-0.00146003
-0.000252778
-0.00145262
-0.000294975
-0.00144656
-0.000184016
-0.00143972
-7.34307e-05
-0.0014339
-0.00017904
-0.00142805
0.000165097
-0.00143894
0.000149319
-0.00144807
0.000159489
-0.00146041
0.000179596
-0.00148351
0.000178576
-0.00150361
0.000167855
-0.00152689
0.000148138
-0.00154
0.000140127
-0.0015494
0.000125571
-0.00155187
0.000116904
-0.00155102
0.000107909
-0.00154648
0.000115753
-0.0015439
0.000171604
-0.00155111
0.000309436
-0.00157336
0.000506078
-0.0015937
0.000435387
-0.00157893
-0.000272043
-0.00155361
-0.000158963
-0.00157988
-2.43184e-05
-0.00160061
8.19496e-05
-0.00162121
0.00014453
-0.00162765
0.00014995
-0.00162796
0.000124576
-0.00162555
8.06676e-05
-0.00162376
4.74238e-05
-0.00162267
2.28459e-05
-0.00162293
1.04717e-05
-0.00162271
2.60494e-06
-0.00162302
-1.35716e-06
-0.00162178
-6.62126e-06
-0.00161994
-1.32231e-05
-0.00161682
-2.38102e-05
-0.00161241
-3.75688e-05
-0.00160666
-5.38358e-05
-0.00160099
-6.87425e-05
-0.00159621
6.72292e-05
7.77663e-05
-0.00175926
8.61163e-05
-0.0017534
9.43088e-05
-0.00174806
0.000102012
-0.00174371
0.000109387
-0.00174052
0.000116175
-0.00173884
0.00012269
-0.00173886
0.000128712
-0.00174062
0.000134548
-0.00174417
0.00013998
-0.00174956
0.000145265
-0.00175701
0.000150203
-0.00176676
0.000155024
-0.00177914
0.00015958
-0.00179446
0.00016412
-0.00181309
0.00016862
-0.00183526
0.000173354
-0.00186112
0.000178116
-0.00189063
0.000183207
-0.00192382
0.000188498
-0.00196057
0.000194191
-0.00200076
0.000200163
-0.00204414
0.000206479
-0.00209045
0.000213117
-0.00213941
0.000220264
-0.00219064
0.000227791
-0.00224358
0.00025898
-0.00229741
0.000266433
-0.00230363
0.000276939
-0.0023059
0.000285638
-0.00230356
0.000295872
-0.00229516
0.000303954
-0.00228057
0.000316685
-0.00225937
0.000328482
-0.00223427
0.000340182
-0.00220443
0.000350558
-0.00217013
0.000361978
-0.00213127
0.000370984
-0.00208824
0.000377343
-0.00204129
0.000380417
-0.0019914
0.000381936
-0.00194065
0.000382149
-0.00189052
0.000382488
-0.00184069
0.000381637
-0.00179338
0.000389482
-0.00175389
0.000410213
-0.00172153
0.000451312
-0.00169608
0.000517761
-0.00167438
0.00060694
-0.00164971
0.000703909
-0.00161341
-0.000244286
-0.00156064
-0.000214851
-0.00156957
-0.000198692
-0.00156915
-0.000218645
-0.00156038
-0.000229952
-0.00154967
-0.000275931
-0.00153142
-0.000304477
-0.00151152
-0.00025561
-0.0014843
-0.000212124
-0.00147265
-0.000258838
-0.00146886
-0.000301819
-0.00146708
-0.000189834
-0.00146607
-7.92832e-05
-0.00146397
-0.000168152
-0.00146225
0.000174228
-0.00147395
0.00016166
-0.00147646
0.000182589
-0.00148752
0.000199694
-0.00150427
0.000201858
-0.00152201
0.000180973
-0.00154133
0.00015753
-0.00155176
0.000142598
-0.00155834
0.000124727
-0.00155816
0.000112362
-0.00155524
0.000105323
-0.00154955
0.000122969
-0.00154829
0.000193848
-0.00155727
0.000329783
-0.00157411
0.000491308
-0.00157946
0.000410067
-0.00155724
-0.00024577
-0.00153494
-0.000138234
-0.00156382
-3.7233e-06
-0.00158735
8.83892e-05
-0.00160332
0.000144841
-0.00160599
0.000147537
-0.00160288
0.000122786
-0.00159696
7.95843e-05
-0.00159284
4.76848e-05
-0.00159013
2.26254e-05
-0.00158919
1.07828e-05
-0.00158862
1.36167e-06
-0.00158819
-3.19906e-06
-0.00158732
-9.74066e-06
-0.00158559
-1.76363e-05
-0.00158228
-2.95506e-05
-0.00157834
-4.32416e-05
-0.00157391
-5.86149e-05
-0.00156996
-7.25529e-05
-0.00156694
6.11383e-05
7.19073e-05
-0.00192984
8.07671e-05
-0.00193271
8.99609e-05
-0.00193745
9.8822e-05
-0.00194439
0.000107713
-0.00195385
0.000116188
-0.00196598
0.000124458
-0.00198092
0.000132257
-0.00199871
0.000139938
-0.00201951
0.000147431
-0.00204323
0.000155009
-0.00206987
0.000162585
-0.00209932
0.000170351
-0.0021315
0.000178207
-0.00216621
0.000186286
-0.00220326
0.00019448
-0.0022423
0.000202868
-0.002283
0.000211302
-0.00232498
0.000219959
-0.00236809
0.000228683
-0.00241188
0.000237577
-0.00245607
0.000246471
-0.00250023
0.000255439
-0.0025441
0.000264344
-0.00258732
0.000273206
-0.00262971
0.000281618
-0.00267106
0.000265199
-0.00271133
0.000268709
-0.00268344
0.0002746
-0.00265185
0.000277235
-0.00261619
0.000281285
-0.00257723
0.000282756
-0.00253319
0.000291579
-0.00248548
0.000298644
-0.00243409
0.000305886
-0.00238065
0.000311693
-0.00232454
0.000318949
-0.00226734
0.00032403
-0.00220702
0.000327462
-0.00214593
0.000329664
-0.00208473
0.000331806
-0.00202453
0.000332313
-0.00196502
0.000335181
-0.00190929
0.000342151
-0.00185753
0.000357122
-0.00181092
0.000384765
-0.00176946
0.000429609
-0.00173209
0.000493092
-0.0016953
0.000570641
-0.00165368
0.000651138
-0.00160209
-0.000235357
-0.00153888
-0.000215276
-0.00155049
-0.000207456
-0.0015531
-0.000229352
-0.0015495
-0.000248202
-0.00154209
-0.000295839
-0.00152825
-0.000331696
-0.00151165
-0.000267254
-0.00148815
-0.000215919
-0.00147944
-0.00026062
-0.00147855
-0.00030283
-0.00148021
-0.000191931
-0.0014833
-8.09973e-05
-0.00148395
-0.000156453
-0.0014838
0.000176736
-0.00149479
0.000172715
-0.00149428
0.00019934
-0.00150313
0.000217442
-0.00151516
0.000221173
-0.00153072
0.000191407
-0.00154624
0.000164107
-0.00155441
0.000142419
-0.00155839
0.000121806
-0.00155654
0.000106674
-0.00155284
0.000104065
-0.00154804
0.000131941
-0.00154893
0.00021069
-0.00155746
0.000335134
-0.00156618
0.000469087
-0.00156146
0.00038777
-0.00153732
-0.000216895
-0.00151787
-0.000114697
-0.0015475
1.22443e-05
-0.0015704
9.10606e-05
-0.00158094
0.000141728
-0.00158108
0.000141618
-0.00157524
0.000118668
-0.00156736
7.68683e-05
-0.00156141
4.67532e-05
-0.00155759
2.20479e-05
-0.00155572
1.03587e-05
-0.00155469
4.86423e-07
-0.00155399
-4.93091e-06
-0.00155278
-1.30413e-05
-0.001551
-2.15779e-05
-0.00154827
-3.39851e-05
-0.00154508
-4.71874e-05
-0.00154191
-6.16378e-05
-0.00153943
-7.46027e-05
-0.0015379
6.26219e-05
7.47797e-05
-0.00220499
8.55066e-05
-0.00222015
9.6897e-05
-0.00223669
0.000108285
-0.00225482
0.000119845
-0.00227472
0.000131124
-0.00229647
0.000142255
-0.00232009
0.000153048
-0.00234556
0.000163661
-0.00237271
0.000174073
-0.00240135
0.000184458
-0.00243117
0.000194768
-0.00246187
0.000205062
-0.0024932
0.000215251
-0.00252495
0.000225325
-0.00255693
0.000235184
-0.00258903
0.000244846
-0.00262117
0.000254418
-0.00265327
0.000263742
-0.00268508
0.000272879
-0.0027165
0.000281731
-0.00274736
0.00029034
-0.00277758
0.000298662
-0.00280704
0.000306735
-0.0028357
0.000314555
-0.0028635
0.000321884
-0.00289042
0.000237309
-0.00291644
0.000237124
-0.00286757
0.000238935
-0.00281648
0.000238273
-0.00276288
0.00023725
-0.00270723
0.000235045
-0.002649
0.000240187
-0.00258892
0.000245204
-0.0025277
0.000249779
-0.00246578
0.000254492
-0.00240278
0.000258632
-0.00233916
0.000262937
-0.00227476
0.000266257
-0.00220995
0.000269472
-0.00214512
0.000272294
-0.00208124
0.000276583
-0.0020191
0.000283422
-0.00195959
0.000295537
-0.00190322
0.000315664
-0.00185052
0.00034739
-0.00180109
0.000392826
-0.0017534
0.000451469
-0.00170419
0.000519056
-0.0016499
0.000587928
-0.00158736
-0.000223756
-0.00151651
-0.000212661
-0.00153001
-0.000211061
-0.00153575
-0.000236755
-0.00153636
-0.000262047
-0.00153229
-0.000312443
-0.00152246
-0.000355195
-0.00150887
-0.000275965
-0.00148882
-0.000216803
-0.00148251
-0.00025896
-0.00148434
-0.000299744
-0.00148883
-0.000191279
-0.00149535
-8.11493e-05
-0.00149801
-0.000145456
-0.00149855
0.000176219
-0.00150862
0.000181567
-0.00150603
0.000211367
-0.00151195
0.000233002
-0.00152043
0.000236697
-0.00153359
0.000199574
-0.0015458
0.000168091
-0.00155191
0.000140571
-0.0015536
0.0001181
-0.00155059
0.000101876
-0.00154641
0.000104957
-0.00154256
0.000140473
-0.00154448
0.000219412
-0.00155091
0.00033041
-0.00155319
0.000444952
-0.00154241
0.000368312
-0.00151797
-0.000187261
-0.00149977
-9.17968e-05
-0.00152833
2.27867e-05
-0.00154898
9.11942e-05
-0.0015566
0.000135895
-0.00155488
0.00013373
-0.00154676
0.000112719
-0.00153741
7.30498e-05
-0.00153
4.48806e-05
-0.00152532
2.1018e-05
-0.00152267
9.66467e-06
-0.00152125
-7.2888e-07
-0.00152015
-6.70581e-06
-0.0015189
-1.57753e-05
-0.00151708
-2.47627e-05
-0.00151485
-3.71623e-05
-0.00151249
-4.96686e-05
-0.00151049
-6.31634e-05
-0.00150928
-7.51674e-05
-0.00150904
7.63432e-05
8.99476e-05
-0.00246105
0.00010204
-0.00248161
0.000115031
-0.00250164
0.000128182
-0.0025214
0.000141595
-0.00254101
0.000154747
-0.00256069
0.000167717
-0.00258048
0.000180199
-0.00260053
0.000192302
-0.0026208
0.000203892
-0.00264131
0.000215163
-0.00266196
0.000226102
-0.00268265
0.000236805
-0.00270324
0.000247235
-0.0027237
0.000257422
-0.00274398
0.000267326
-0.00276406
0.000276943
-0.00278393
0.000286229
-0.00280359
0.000295162
-0.00282303
0.00030374
-0.00284229
0.000311946
-0.00286136
0.000319806
-0.00288031
0.000327321
-0.00289916
0.000334537
-0.00291795
0.000341473
-0.00293672
0.000347907
-0.00295549
0.000188436
-0.00297431
0.000186032
-0.00291958
0.00018533
-0.0028633
0.000182627
-0.00280594
0.000179025
-0.00274668
0.000174958
-0.00268635
0.000178969
-0.00262391
0.000183286
-0.00256134
0.000186773
-0.00249782
0.000190872
-0.00243423
0.000194232
-0.00236982
0.000198129
-0.00230538
0.000201433
-0.00224045
0.000205588
-0.00217589
0.000210154
-0.00211168
0.000217071
-0.00204876
0.000227051
-0.00198737
0.000242841
-0.00192816
0.000266229
-0.00187109
0.000299706
-0.00181556
0.000343618
-0.00175984
0.000397178
-0.00170175
0.000456511
-0.00163885
0.000517078
-0.00156919
-0.000210257
-0.0014933
-0.000206918
-0.00150835
-0.000210449
-0.00151721
-0.000240822
-0.00152149
-0.000271881
-0.00152087
-0.000326037
-0.00151473
-0.00037524
-0.00150416
-0.000282278
-0.00148729
-0.000214974
-0.00148328
-0.000254471
-0.00148763
-0.000293221
-0.00149467
-0.000188621
-0.00150403
-8.06117e-05
-0.00150823
-0.000135384
-0.00150903
0.000173625
-0.00151813
0.000187496
-0.00151336
0.000219844
-0.00151611
0.000246159
-0.00152176
0.00024891
-0.00153229
0.000205684
-0.00154161
0.000169778
-0.00154573
0.000137559
-0.00154553
0.000113923
-0.00154184
9.80226e-05
-0.00153777
0.000106879
-0.00153503
0.0001469
-0.00153701
0.000221691
-0.00153999
0.000319634
-0.0015371
0.00042051
-0.00152304
0.000350109
-0.00149861
-0.000158697
-0.00148075
-7.1144e-05
-0.00150726
3.03998e-05
-0.00152518
8.94781e-05
-0.00153029
0.000127775
-0.001527
0.000124379
-0.00151731
0.000105312
-0.00150697
6.83725e-05
-0.0014985
4.22268e-05
-0.00149316
1.95947e-05
-0.00148985
8.57152e-06
-0.00148807
-1.98187e-06
-0.00148668
-8.52264e-06
-0.00148537
-1.80104e-05
-0.00148373
-2.71187e-05
-0.00148206
-3.91584e-05
-0.00148052
-5.08859e-05
-0.00147959
-6.33977e-05
-0.00147946
-7.44629e-05
-0.00148034
9.68967e-05
0.000110498
-0.00261611
0.000122073
-0.00263522
0.000134793
-0.00265232
0.00014779
-0.00266759
0.000161272
-0.00268127
0.000174545
-0.00269371
0.000187767
-0.00270519
0.000200463
-0.00271603
0.000212813
-0.00272644
0.00022454
-0.00273665
0.00023585
-0.00274674
0.000246693
-0.00275681
0.00025727
-0.00276678
0.000267509
-0.00277671
0.000277507
-0.00278672
0.000287193
-0.00279703
0.000296599
-0.00280753
0.000305675
-0.00281843
0.000314418
-0.0028297
0.000322816
-0.00284141
0.000330888
-0.00285347
0.000338657
-0.00286619
0.000346109
-0.00287944
0.000353306
-0.00289339
0.000360243
-0.00290794
0.000366731
-0.00292318
0.000133711
-0.00293906
0.000129745
-0.00288611
0.00012797
-0.00283186
0.000123372
-0.00277696
0.000118693
-0.0027205
0.000112518
-0.00266313
0.000116398
-0.00260391
0.000119769
-0.00254447
0.000123178
-0.00248414
0.000126462
-0.00242353
0.000129793
-0.00236214
0.000133201
-0.00230052
0.000136871
-0.00223834
0.000141379
-0.00217616
0.000147234
-0.0021139
0.000155684
-0.0020522
0.000167834
-0.00199114
0.000185775
-0.00193119
0.000210699
-0.00187176
0.000243988
-0.00181237
0.000285528
-0.00175166
0.000334271
-0.00168835
0.000386859
-0.00162068
0.000441185
-0.00154752
-0.000195206
-0.00146932
-0.000198063
-0.0014858
-0.000206164
-0.00149767
-0.000241448
-0.00150531
-0.000278012
-0.00150822
-0.000336616
-0.00150561
-0.000392102
-0.00149808
-0.000286294
-0.00148424
-0.000210623
-0.00148248
-0.000247427
-0.00148926
-0.000283865
-0.00149871
-0.000184421
-0.00151059
-7.9806e-05
-0.0015161
-0.000126285
-0.00151708
0.00016885
-0.00152512
0.000190245
-0.0015181
0.000225495
-0.00151746
0.00025669
-0.00152058
0.000258234
-0.00152832
0.0002098
-0.00153508
0.000169578
-0.00153723
0.000133866
-0.00153544
0.000109856
-0.00153124
9.52873e-05
-0.0015273
0.00010886
-0.00152516
0.000149874
-0.00152633
0.000218808
-0.00152583
0.00030557
-0.00151903
0.000396077
-0.00150303
0.000332247
-0.00147833
-0.000132187
-0.00145998
-5.32206e-05
-0.00148407
3.5508e-05
-0.00149952
8.61934e-05
-0.00150289
0.000118081
-0.0014983
0.000114042
-0.00148747
9.6838e-05
-0.00147634
6.30373e-05
-0.00146707
3.8913e-05
-0.00146119
1.78186e-05
-0.00145735
7.17589e-06
-0.00145526
-3.2887e-06
-0.00145364
-1.01627e-05
-0.00145234
-1.96771e-05
-0.00145095
-2.86658e-05
-0.00144987
-4.009e-05
-0.00144908
-5.1012e-05
-0.00144909
-6.25179e-05
-0.00144992
-7.26701e-05
-0.00145176
0.00011747
0.000129614
-0.00265777
0.000139166
-0.00267369
0.000150062
-0.00268685
0.000161476
-0.00269732
0.000173711
-0.00270537
0.000186021
-0.00271134
0.000198608
-0.00271568
0.000210875
-0.00271886
0.00022302
-0.00272133
0.000234632
-0.00272346
0.000245918
-0.00272557
0.000256661
-0.00272789
0.000267204
-0.00273052
0.000277516
-0.00273347
0.000287815
-0.00273687
0.000297692
-0.00274057
0.000307505
-0.00274477
0.00031694
-0.00274958
0.000326128
-0.00275512
0.00033488
-0.00276148
0.000343605
-0.00276872
0.000351911
-0.00277695
0.000360057
-0.00278625
0.000367856
-0.0027966
0.000375482
-0.00280799
0.00038261
-0.00282041
8.0767e-05
-0.00283381
7.54865e-05
-0.00278572
7.30754e-05
-0.00273663
6.69123e-05
-0.00268724
6.13162e-05
-0.00263673
5.33023e-05
-0.0025854
5.69544e-05
-0.0025328
5.94428e-05
-0.00247959
6.25667e-05
-0.00242553
6.50737e-05
-0.00237085
6.81746e-05
-0.00231537
7.10156e-05
-0.00225932
7.46947e-05
-0.00220254
7.91182e-05
-0.00214533
8.55364e-05
-0.0020875
9.46155e-05
-0.00202937
0.000107887
-0.00197078
0.000126344
-0.00191194
0.00015131
-0.0018524
0.000183283
-0.00179188
0.000222215
-0.00172948
0.000266598
-0.00166438
0.000313705
-0.00159555
0.000362977
-0.00152231
-0.000178726
-0.00144451
-0.000186192
-0.00146228
-0.000198521
-0.00147706
-0.000238534
-0.00148791
-0.000280631
-0.00149446
-0.00034414
-0.0014953
-0.000405948
-0.00149091
-0.000288051
-0.00147999
-0.000203839
-0.00148052
-0.000237981
-0.00148964
-0.000271988
-0.00150138
-0.000178905
-0.00151557
-7.88277e-05
-0.00152235
-0.000118244
-0.0015235
0.000161827
-0.00153026
0.000189602
-0.00152059
0.000228616
-0.0015167
0.000264433
-0.00151738
0.000264995
-0.00152228
0.000211946
-0.00152663
0.000167789
-0.00152682
0.000129668
-0.00152369
0.000105913
-0.00151912
9.31495e-05
-0.00151529
0.000110033
-0.00151327
0.00014937
-0.00151304
0.000212007
-0.00150915
0.000289575
-0.00149953
0.000371379
-0.00148218
0.000313895
-0.00145689
-0.000108099
-0.00143766
-3.7764e-05
-0.00145918
3.88758e-05
-0.00147238
8.16061e-05
-0.00147436
0.000107245
-0.00146876
0.00010291
-0.00145716
8.75717e-05
-0.00144546
5.71608e-05
-0.00143566
3.50685e-05
-0.00142935
1.57309e-05
-0.00142511
5.55227e-06
-0.00142276
-4.58873e-06
-0.001421
-1.15506e-05
-0.00141981
-2.07601e-05
-0.00141874
-2.94497e-05
-0.00141822
-4.00847e-05
-0.00141814
-5.01834e-05
-0.00141897
-6.06725e-05
-0.00142063
-6.99381e-05
-0.0014233
0.000135562
0.000145533
-0.0026171
0.000152329
-0.00263024
0.000160529
-0.00264063
0.000169524
-0.00264813
0.000179678
-0.00265287
0.000190367
-0.00265502
0.000201784
-0.00265498
0.000213341
-0.00265321
0.000225153
-0.00265024
0.000236742
-0.0026466
0.000248241
-0.00264277
0.000259289
-0.00263911
0.00027015
-0.00263597
0.000280916
-0.00263332
0.000291517
-0.00263105
0.000301898
-0.00262902
0.000312316
-0.00262756
0.000322475
-0.00262662
0.000332486
-0.00262654
0.000342125
-0.00262746
0.000351835
-0.00262978
0.000361208
-0.00263334
0.000370409
-0.00263835
0.000379247
-0.00264471
0.000387898
-0.00265251
0.000396012
-0.00266164
3.26707e-05
-0.0026721
2.64044e-05
-0.00263081
2.36807e-05
-0.00258848
1.63999e-05
-0.00254652
9.98789e-06
-0.0025035
7.00709e-07
-0.00245995
3.74471e-06
-0.00241482
5.38794e-06
-0.00236972
7.88695e-06
-0.00232403
9.58585e-06
-0.00227774
1.21266e-05
-0.00223058
1.42416e-05
-0.00218268
1.74766e-05
-0.00213376
2.12977e-05
-0.00208384
2.73979e-05
-0.00203262
3.6031e-05
-0.00198012
4.90444e-05
-0.00192616
6.6801e-05
-0.00187111
9.07916e-05
-0.00181439
0.000120887
-0.0017555
0.000157111
-0.00169432
0.000197767
-0.00163061
0.000240471
-0.00156378
0.000285168
-0.0014936
-0.000160947
-0.00141889
-0.000171415
-0.00143778
-0.000187676
-0.00145528
-0.00023198
-0.00146926
-0.000279788
-0.00147954
-0.000348531
-0.00148393
-0.000416869
-0.00148277
-0.000287526
-0.00147476
-0.000194712
-0.00147757
-0.000226242
-0.00148893
-0.000257801
-0.00150284
-0.000172126
-0.00151921
-7.76773e-05
-0.00152731
-0.000111484
-0.00152881
0.000152158
-0.00153428
0.000185715
-0.00152169
0.000229297
-0.00151444
0.000269325
-0.00151258
0.00026935
-0.0015146
0.000212139
-0.0015166
0.000164656
-0.00151489
0.000125096
-0.00151058
0.000102086
-0.00150563
9.11312e-05
-0.0015017