/*--------------------------------*- C++ -*----------------------------------*\
  =========                 |
  \\      /  F ield         | OpenFOAM: The Open Source CFD Toolbox
   \\    /   O peration     | Website:  https://openfoam.org
    \\  /    A nd           | Version:  7
     \\/     M anipulation  |
\*---------------------------------------------------------------------------*/
FoamFile
{
    version     2.0;
    format      ascii;
    class       volVectorField;
    location    "0.1025";
    object      U;
}
// * * * * * * * * * * * * * * * * * * * * * * * * * * * * * * * * * * * * * //

dimensions      [0 1 -1 0 0 0 0];

internalField   nonuniform List<vector> 
48560
(
(221.94 -5.36803 -4.91453e-11)
(221.749 -6.19721 -5.89835e-11)
(221.579 -7.02857 -7.82392e-11)
(221.432 -7.84057 -1.00148e-10)
(221.299 -8.63348 -1.31213e-10)
(221.18 -9.40144 -1.65841e-10)
(221.068 -10.1473 -2.09011e-10)
(220.962 -10.8667 -2.55598e-10)
(220.861 -11.5641 -3.09165e-10)
(220.76 -12.2368 -3.65268e-10)
(220.661 -12.8904 -4.2574e-10)
(220.56 -13.5233 -4.86944e-10)
(220.457 -14.1408 -5.49203e-10)
(220.35 -14.7412 -6.09486e-10)
(220.238 -15.3284 -6.65895e-10)
(220.119 -15.9006 -7.1664e-10)
(219.991 -16.4604 -7.58446e-10)
(219.851 -17.0062 -7.89398e-10)
(219.699 -17.54 -8.06357e-10)
(219.53 -18.0609 -8.07375e-10)
(219.341 -18.5706 -7.89555e-10)
(219.129 -19.0684 -7.50807e-10)
(218.89 -19.555 -6.89432e-10)
(218.616 -20.0297 -6.0266e-10)
(218.308 -20.4915 -4.92802e-10)
(217.954 -20.9396 -3.56795e-10)
(217.554 -21.3725 -1.98196e-10)
(217.036 -21.8649 1.67117e-11)
(216.282 -22.4139 3.11024e-10)
(215.389 -22.9121 5.95433e-10)
(214.303 -23.3847 8.81391e-10)
(212.959 -23.8069 1.15899e-09)
(211.278 -24.1919 1.37717e-09)
(209.078 -24.5154 1.53761e-09)
(206.055 -24.7618 1.44194e-09)
(202.49 -24.8967 1.19373e-09)
(198.251 -24.8761 5.65074e-10)
(193.601 -24.7465 -1.399e-10)
(188.787 -24.4537 -1.37685e-09)
(184.853 -24.051 -2.53897e-09)
(180.809 -23.2561 -4.16281e-09)
(176.732 -22.6205 -4.54748e-09)
(172.875 -21.4539 -5.9098e-09)
(169.145 -20.0229 -6.40098e-09)
(165.801 -18.7139 -7.02323e-09)
(165.078 -16.0981 -9.4991e-09)
(171.764 -12.2487 -1.25157e-08)
(191.381 -6.88551 -1.71078e-08)
(221.303 -4.08145 -2.21697e-08)
(250.05 -7.78936 -2.61467e-08)
(271.683 -31.4677 -2.92452e-08)
(263.862 -74.1605 -3.08464e-08)
(229.269 -57.6493 -2.97111e-08)
(214.68 -60.7856 -2.97974e-08)
(195.662 -51.6232 -2.91921e-08)
(183.877 -51.0945 -2.92315e-08)
(165.482 -43.5363 -2.86292e-08)
(153.749 -41.3576 -2.86437e-08)
(133.697 -34.343 -2.79865e-08)
(121.443 -31.2415 -2.80246e-08)
(99.324 -24.124 -2.7296e-08)
(85.683 -20.417 -2.72917e-08)
(66.077 -11.0085 -2.64093e-08)
(66.3465 -8.54304 -2.67437e-08)
(55.7824 -5.57987 -2.62722e-08)
(52.6465 1.12776 -2.60587e-08)
(56.5758 2.22475 -2.63026e-08)
(58.824 4.44246 -2.65203e-08)
(60.5578 6.50887 -2.67259e-08)
(63.5766 8.64382 -2.70101e-08)
(67.9245 11.4709 -2.74196e-08)
(73.4454 14.9747 -2.78684e-08)
(80.3093 19.241 -2.83717e-08)
(88.7302 24.4695 -2.89123e-08)
(98.9293 30.8338 -2.94951e-08)
(111.36 38.4929 -3.0105e-08)
(127.427 48.2365 -3.07804e-08)
(149.438 61.6845 -3.14915e-08)
(182.284 78.986 -3.22045e-08)
(220.44 84.7193 -3.28529e-08)
(259.688 66.4917 -3.37562e-08)
(254.785 60.447 -3.40037e-08)
(246.367 53.3833 -3.43691e-08)
(251.802 56.0631 -3.43781e-08)
(256.21 56.6903 -3.46225e-08)
(267.565 53.7091 -3.53679e-08)
(271.758 43.0844 -3.55377e-08)
(275.781 36.6796 -3.59056e-08)
(275.789 26.9354 -3.60733e-08)
(275.429 19.8337 -3.63583e-08)
(273.262 14.3846 -3.64588e-08)
(270.016 8.4432 -3.66361e-08)
(266.52 3.74695 -3.6785e-08)
(263.135 -0.00115613 -3.69252e-08)
(260.007 -3.0481 -3.70317e-08)
(257.304 -5.51269 -3.71369e-08)
(255.074 -7.47892 -3.72169e-08)
(253.41 -8.90353 -3.72803e-08)
(252.352 -9.71774 -3.7326e-08)
(252.112 -9.95821 -3.73497e-08)
(221.185 -5.08822 -5.89447e-10)
(221.003 -5.94603 -6.17658e-10)
(220.835 -6.80055 -6.46543e-10)
(220.7 -7.64532 -6.73096e-10)
(220.571 -8.46279 -6.98703e-10)
(220.461 -9.2604 -7.18257e-10)
(220.35 -10.0285 -7.35404e-10)
(220.245 -10.775 -7.42692e-10)
(220.135 -11.4974 -7.45286e-10)
(220.021 -12.2045 -7.3419e-10)
(219.902 -12.8959 -7.18165e-10)
(219.777 -13.5731 -6.87471e-10)
(219.641 -14.2351 -6.47322e-10)
(219.493 -14.8799 -5.90045e-10)
(219.329 -15.5071 -5.19687e-10)
(219.149 -16.1142 -4.31243e-10)
(218.947 -16.7022 -3.28259e-10)
(218.723 -17.2694 -2.08844e-10)
(218.472 -17.8193 -7.70533e-11)
(218.192 -18.3517 6.57729e-11)
(217.877 -18.8699 2.218e-10)
(217.524 -19.3713 3.85398e-10)
(217.122 -19.8553 5.59259e-10)
(216.666 -20.3193 7.34684e-10)
(216.142 -20.7629 9.16566e-10)
(215.533 -21.1842 1.08959e-09)
(214.822 -21.5816 1.25642e-09)
(213.844 -22.0216 1.4137e-09)
(212.231 -22.4907 1.51186e-09)
(210.275 -22.9016 1.40386e-09)
(208.016 -23.2596 1.20246e-09)
(205.365 -23.5392 6.84622e-10)
(202.468 -23.7669 1.11577e-10)
(199.343 -23.909 -9.00616e-10)
(196.469 -23.9692 -1.93496e-09)
(193.653 -23.8489 -3.33924e-09)
(191.143 -23.7683 -3.7927e-09)
(188.654 -23.5231 -5.07018e-09)
(186.649 -23.2641 -5.89431e-09)
(184.842 -22.7274 -6.76587e-09)
(183.403 -22.2542 -7.20243e-09)
(183.037 -21.7391 -8.14961e-09)
(184.911 -20.8179 -1.09343e-08)
(190.62 -20.8881 -1.25564e-08)
(204.538 -21.4825 -1.69058e-08)
(229.827 -22.8109 -2.20476e-08)
(255.629 -23.8677 -2.63331e-08)
(277.802 -24.7607 -2.96084e-08)
(288.94 -26.5153 -3.09822e-08)
(295.838 -34.6635 -3.23744e-08)
(287.448 -53.5422 -3.27355e-08)
(275.129 -72.0732 -3.3227e-08)
(246.996 -67.1275 -3.26661e-08)
(235.293 -67.3317 -3.25829e-08)
(216.33 -61.4722 -3.22178e-08)
(206.915 -58.3936 -3.20812e-08)
(189.502 -52.6492 -3.17693e-08)
(179.974 -48.5888 -3.15644e-08)
(162.665 -42.4784 -3.12789e-08)
(152.775 -37.7518 -3.10186e-08)
(136.166 -31.2764 -3.07608e-08)
(125.728 -26.0561 -3.03765e-08)
(113.384 -16.8048 -3.00534e-08)
(111.847 -12.2644 -2.98339e-08)
(107.958 -6.6828 -2.9839e-08)
(105.469 1.30448 -2.93552e-08)
(111.121 3.4916 -2.98039e-08)
(113.938 8.65584 -2.98851e-08)
(116.836 11.7533 -3.01326e-08)
(121.023 15.52 -3.0308e-08)
(124.798 18.9557 -3.06117e-08)
(130.436 23.1843 -3.08586e-08)
(135.909 27.5027 -3.12124e-08)
(143.594 32.9526 -3.15239e-08)
(151.845 39.1091 -3.19297e-08)
(163.024 46.951 -3.23096e-08)
(176.867 56.9036 -3.27886e-08)
(197.308 71.4786 -3.32588e-08)
(221.3 90.2728 -3.38354e-08)
(241.907 94.6578 -3.44398e-08)
(258.386 73.9815 -3.50105e-08)
(263.72 63.9363 -3.5488e-08)
(266.056 61.5183 -3.56862e-08)
(270.262 62.6653 -3.61423e-08)
(272.856 63.4657 -3.59238e-08)
(275.838 59.6063 -3.69216e-08)
(277.532 51.0349 -3.64934e-08)
(279.533 43.4009 -3.72196e-08)
(278.85 33.3396 -3.68333e-08)
(278.003 24.7953 -3.75526e-08)
(274.97 16.7011 -3.71326e-08)
(272.277 10.8449 -3.76757e-08)
(268.295 5.71672 -3.73474e-08)
(265.214 1.98539 -3.77406e-08)
(261.551 -1.19582 -3.74707e-08)
(258.96 -3.59792 -3.77439e-08)
(256.276 -5.67088 -3.75302e-08)
(254.711 -7.14222 -3.76904e-08)
(253.724 -7.74745 -3.75816e-08)
(253.358 -7.93813 -3.76039e-08)
(219.982 -4.79988 -1.82428e-10)
(219.787 -5.71153 -1.57325e-10)
(219.571 -6.62121 -1.04215e-10)
(219.419 -7.52549 -6.30702e-11)
(219.241 -8.39312 3.5204e-12)
(219.102 -9.2422 6.13753e-11)
(218.933 -10.0545 1.41379e-10)
(218.783 -10.8542 2.1602e-10)
(218.599 -11.6305 3.08776e-10)
(218.419 -12.3961 3.9839e-10)
(218.202 -13.1357 5.03986e-10)
(217.976 -13.8556 6.09889e-10)
(217.712 -14.5415 7.25749e-10)
(217.425 -15.1991 8.40204e-10)
(217.089 -15.8193 9.55828e-10)
(216.709 -16.4097 1.06376e-09)
(216.258 -16.9674 1.15904e-09)
(215.728 -17.5022 1.23196e-09)
(215.083 -18.0151 1.26515e-09)
(214.393 -18.512 1.28183e-09)
(213.607 -18.9921 1.25149e-09)
(212.766 -19.4576 1.18826e-09)
(211.83 -19.9048 1.06196e-09)
(210.826 -20.3308 9.19767e-10)
(209.726 -20.7368 6.76137e-10)
(208.557 -21.1168 4.13832e-10)
(207.313 -21.4734 2.75731e-11)
(205.83 -21.8561 -4.54526e-10)
(203.89 -22.2599 -1.32027e-09)
(202.306 -22.6015 -2.15482e-09)
(200.517 -22.8641 -3.26987e-09)
(199.021 -23.0904 -3.59587e-09)
(197.411 -23.2617 -4.62031e-09)
(196.134 -23.3991 -5.19442e-09)
(194.942 -23.4178 -5.94771e-09)
(193.885 -23.3383 -6.42286e-09)
(193.269 -23.1713 -7.12398e-09)
(193.112 -22.9859 -8.0709e-09)
(194.525 -22.8289 -1.0055e-08)
(197.548 -23.0411 -1.1215e-08)
(204.148 -23.6033 -1.3752e-08)
(215.874 -24.7031 -1.69481e-08)
(233.736 -26.1256 -2.12445e-08)
(253.348 -27.666 -2.46636e-08)
(273.405 -28.0503 -2.86134e-08)
(287.78 -27.1192 -3.03189e-08)
(299.468 -26.4203 -3.21622e-08)
(305.304 -27.0872 -3.2657e-08)
(307.591 -31.1729 -3.31975e-08)
(303.597 -41.4134 -3.32634e-08)
(292.416 -57.7445 -3.3228e-08)
(276.517 -68.0657 -3.30675e-08)
(256.591 -61.9595 -3.28902e-08)
(244.506 -65.3501 -3.26364e-08)
(227.862 -57.5579 -3.24782e-08)
(217.675 -57.0996 -3.21901e-08)
(202.676 -49.8135 -3.20691e-08)
(192.626 -47.5256 -3.17581e-08)
(178.162 -40.712 -3.1675e-08)
(168.183 -37.24 -3.13424e-08)
(155.111 -30.7833 -3.1293e-08)
(145.973 -26.3743 -3.09416e-08)
(137.71 -18.2056 -3.09009e-08)
(136.059 -13.8375 -3.06299e-08)
(135.386 -5.90482 -3.07242e-08)
(132.909 0.995015 -3.04294e-08)
(138.64 4.57934 -3.07802e-08)
(139.529 10.9696 -3.07223e-08)
(143.233 14.6249 -3.10093e-08)
(145.455 19.6313 -3.1053e-08)
(149.132 23.9292 -3.13638e-08)
(152.45 28.994 -3.14923e-08)
(156.904 34.1491 -3.18346e-08)
(162.028 40.1001 -3.20465e-08)
(168.645 46.7089 -3.24371e-08)
(177.393 54.5427 -3.27433e-08)
(189.892 64.2624 -3.32133e-08)
(208.609 76.2668 -3.36436e-08)
(232.074 84.8539 -3.41974e-08)
(250.995 79.6587 -3.46505e-08)
(260.316 67.71 -3.50006e-08)
(265.185 63.5582 -3.52695e-08)
(267.592 61.0893 -3.55655e-08)
(272.029 59.6337 -3.60855e-08)
(274.945 55.1725 -3.59085e-08)
(277.791 48.5678 -3.67337e-08)
(278.732 41.195 -3.62377e-08)
(280.055 33.9934 -3.69488e-08)
(278.898 26.4905 -3.65586e-08)
(277.592 20.1403 -3.70821e-08)
(274.455 14.266 -3.68117e-08)
(271.703 9.30765 -3.71771e-08)
(267.974 5.10044 -3.69621e-08)
(264.961 1.73823 -3.72191e-08)
(261.556 -1.00203 -3.70398e-08)
(258.987 -3.07318 -3.72135e-08)
(256.461 -4.57346 -3.70638e-08)
(254.88 -5.4751 -3.71668e-08)
(253.925 -5.77578 -3.70917e-08)
(253.569 -5.88513 -3.7104e-08)
(216.938 -4.51641 6.05133e-10)
(216.662 -5.45285 6.61732e-10)
(216.266 -6.37402 6.71957e-10)
(216.007 -7.29317 7.05042e-10)
(215.627 -8.16758 7.03098e-10)
(215.338 -9.02777 7.06775e-10)
(214.924 -9.84981 6.84624e-10)
(214.564 -10.6655 6.51989e-10)
(214.088 -11.456 5.99069e-10)
(213.653 -12.236 5.20854e-10)
(213.12 -12.9856 4.23345e-10)
(212.614 -13.7175 2.87587e-10)
(212.024 -14.4181 1.30003e-10)
(211.45 -15.0986 -7.59097e-11)
(210.807 -15.7501 -3.07568e-10)
(210.176 -16.3817 -5.93111e-10)
(209.501 -16.9861 -9.04682e-10)
(208.855 -17.5688 -1.26557e-09)
(208.219 -18.1221 -1.63866e-09)
(207.58 -18.6478 -2.07015e-09)
(206.947 -19.1416 -2.52411e-09)
(206.335 -19.6071 -3.02937e-09)
(205.709 -20.0198 -3.16159e-09)
(205.099 -20.4337 -3.63875e-09)
(204.489 -20.8074 -3.87407e-09)
(203.905 -21.1735 -4.33457e-09)
(203.339 -21.5011 -4.63585e-09)
(202.733 -21.86 -5.14297e-09)
(202.04 -22.218 -5.64982e-09)
(201.51 -22.5041 -6.11344e-09)
(200.988 -22.6715 -6.39853e-09)
(200.714 -22.7679 -6.93821e-09)
(200.616 -22.8611 -7.69519e-09)
(201.33 -23.0653 -9.15909e-09)
(202.712 -23.2561 -9.88431e-09)
(205.354 -23.7415 -1.14511e-08)
(209.948 -24.5069 -1.31823e-08)
(217.051 -25.7163 -1.55734e-08)
(229.12 -27.4873 -1.87294e-08)
(242.025 -29.375 -2.15247e-08)
(258.037 -31.3144 -2.50786e-08)
(272.294 -32.6026 -2.75396e-08)
(285.713 -33.2325 -2.99779e-08)
(296.947 -33.4727 -3.14195e-08)
(305.75 -33.1021 -3.28097e-08)
(311.076 -32.9141 -3.30142e-08)
(314.256 -33.5234 -3.36019e-08)
(315.306 -35.9821 -3.33994e-08)
(312.887 -41.2712 -3.35792e-08)
(306.174 -50.7485 -3.32136e-08)
(294.204 -61.8916 -3.30962e-08)
(279.334 -67.2207 -3.25798e-08)
(262.274 -65.1721 -3.27928e-08)
(249.867 -65.1663 -3.22464e-08)
(235.469 -59.8277 -3.23922e-08)
(224.748 -57.4533 -3.18957e-08)
(211.732 -51.4211 -3.20147e-08)
(201.411 -47.8926 -3.15756e-08)
(189.023 -41.7755 -3.16901e-08)
(179.179 -37.4837 -3.12821e-08)
(168.459 -31.2253 -3.13856e-08)
(160.276 -25.9414 -3.10333e-08)
(154.009 -18.3003 -3.11426e-08)
(152.301 -12.96 -3.08523e-08)
(152.212 -5.0377 -3.10034e-08)
(150.306 0.596211 -3.0808e-08)
(154.921 5.91017 -3.1044e-08)
(154.343 11.8018 -3.09641e-08)
(158.262 16.0943 -3.12213e-08)
(158.94 21.0267 -3.12299e-08)
(162.825 25.4656 -3.15128e-08)
(164.794 30.3338 -3.16052e-08)
(169.395 35.4427 -3.19201e-08)
(173.53 41.0822 -3.20995e-08)
(180.515 47.6158 -3.24629e-08)
(189.029 55.3922 -3.27409e-08)
(202.266 65.3121 -3.31772e-08)
(219.258 76.2529 -3.35609e-08)
(237.753 81.7571 -3.40601e-08)
(252.197 74.5072 -3.44021e-08)
(260.428 66.6993 -3.46044e-08)
(265.765 64.3269 -3.48053e-08)
(269.159 61.9002 -3.53152e-08)
(272.982 59.81 -3.53929e-08)
(274.783 54.656 -3.56239e-08)
(276.835 47.8171 -3.59619e-08)
(277.627 41.2824 -3.58784e-08)
(278.354 34.4166 -3.61936e-08)
(277.296 27.5109 -3.6108e-08)
(275.952 21.1935 -3.63572e-08)
(273.186 15.3352 -3.62282e-08)
(270.51 10.5055 -3.64803e-08)
(267.076 6.35559 -3.63396e-08)
(264.133 3.06836 -3.65139e-08)
(260.948 0.376973 -3.63889e-08)
(258.488 -1.65742 -3.65067e-08)
(256.192 -3.03841 -3.63978e-08)
(254.762 -3.74218 -3.6463e-08)
(253.938 -3.90567 -3.64032e-08)
(253.624 -3.94776 -3.6418e-08)
(212.153 -3.92011 -2.46419e-09)
(211.782 -4.85716 -2.47304e-09)
(211.38 -5.76219 -2.7596e-09)
(211.087 -6.73384 -2.68373e-09)
(210.747 -7.63257 -2.94713e-09)
(210.483 -8.56953 -2.94721e-09)
(210.154 -9.44541 -3.20164e-09)
(209.883 -10.347 -3.26645e-09)
(209.555 -11.1988 -3.52148e-09)
(209.288 -12.0656 -3.64144e-09)
(208.979 -12.8888 -3.90296e-09)
(208.728 -13.716 -4.06851e-09)
(208.445 -14.5011 -4.33696e-09)
(208.216 -15.2778 -4.53657e-09)
(207.963 -16.0087 -4.80718e-09)
(207.761 -16.7156 -5.02538e-09)
(207.541 -17.3662 -5.28679e-09)
(207.365 -17.9737 -5.50352e-09)
(207.172 -18.5131 -5.73892e-09)
(207.004 -19.0002 -5.93088e-09)
(206.817 -19.4233 -6.1145e-09)
(206.635 -19.8031 -6.24504e-09)
(206.51 -20.1637 -6.73216e-09)
(206.481 -20.4883 -7.04271e-09)
(206.548 -20.7979 -7.50729e-09)
(206.751 -21.0913 -7.93834e-09)
(207.096 -21.3868 -8.42888e-09)
(207.711 -21.7478 -9.03937e-09)
(208.708 -22.1505 -9.80537e-09)
(210.377 -22.6405 -1.07244e-08)
(212.685 -23.2255 -1.18299e-08)
(216.156 -24.0193 -1.32772e-08)
(220.877 -25.0409 -1.49439e-08)
(227.905 -26.407 -1.70781e-08)
(236.372 -28.0214 -1.91925e-08)
(246.39 -29.9166 -2.17984e-08)
(257.461 -31.8509 -2.4142e-08)
(268.772 -33.6123 -2.65873e-08)
(278.796 -34.7609 -2.83371e-08)
(289.189 -35.8193 -3.02138e-08)
(298.05 -36.4032 -3.156e-08)
(305.606 -36.7814 -3.25645e-08)
(311.611 -36.7866 -3.32954e-08)
(315.954 -36.6589 -3.35811e-08)
(318.795 -36.5527 -3.38346e-08)
(320.294 -37.0872 -3.36703e-08)
(320.668 -38.5045 -3.37535e-08)
(319.099 -41.5334 -3.33791e-08)
(314.897 -47.3947 -3.33717e-08)
(307.005 -55.6097 -3.28639e-08)
(295.351 -63.4395 -3.26747e-08)
(281.7 -66.2217 -3.20045e-08)
(266.446 -64.8272 -3.237e-08)
(254.172 -64.14 -3.17286e-08)
(241.132 -59.1635 -3.1994e-08)
(230.154 -56.7096 -3.14428e-08)
(218.416 -50.6663 -3.16526e-08)
(207.93 -47.1978 -3.12038e-08)
(196.803 -40.9442 -3.13896e-08)
(187.068 -36.6866 -3.09936e-08)
(177.685 -30.2192 -3.11413e-08)
(170.217 -24.9366 -3.08426e-08)
(165.121 -17.4567 -3.10011e-08)
(163.386 -11.6319 -3.07435e-08)
(163.21 -4.12559 -3.08959e-08)
(162.016 1.0101 -3.07829e-08)
(165.116 7.60497 -3.08902e-08)
(164.316 12.9174 -3.08589e-08)
(167.5 18.063 -3.10218e-08)
(167.695 23.0784 -3.10529e-08)
(171.111 27.9678 -3.12622e-08)
(172.538 33.0226 -3.1367e-08)
(176.899 38.3655 -3.16325e-08)
(180.616 44.1487 -3.18211e-08)
(187.629 50.8064 -3.21504e-08)
(196.041 58.4526 -3.24321e-08)
(209.38 67.3722 -3.2842e-08)
(225.222 75.0108 -3.32163e-08)
(241.656 76.2747 -3.36322e-08)
(252.95 70.3993 -3.38791e-08)
(260.63 65.5227 -3.40004e-08)
(266.072 62.6765 -3.40734e-08)
(269.842 59.9255 -3.49458e-08)
(273.193 55.7457 -3.47154e-08)
(274.782 49.9369 -3.51788e-08)
(276.233 43.6946 -3.53484e-08)
(276.768 37.6641 -3.5343e-08)
(276.969 31.1404 -3.54181e-08)
(275.794 25.2207 -3.54659e-08)
(274.214 19.5076 -3.55812e-08)
(271.655 14.5162 -3.55037e-08)
(269.065 10.0867 -3.56815e-08)
(265.978 6.44386 -3.55973e-08)
(263.177 3.43753 -3.57168e-08)
(260.286 1.14875 -3.56281e-08)
(257.947 -0.526139 -3.56979e-08)
(255.908 -1.57926 -3.56183e-08)
(254.633 -2.11047 -3.56583e-08)
(253.924 -2.2235 -3.56146e-08)
(253.651 -2.2517 -3.5631e-08)
(212.217 -3.32359 -5.77072e-09)
(211.789 -4.31029 -5.80583e-09)
(211.468 -5.33839 -5.79638e-09)
(211.191 -6.35682 -5.96655e-09)
(210.98 -7.37049 -6.04873e-09)
(210.797 -8.36696 -6.2091e-09)
(210.642 -9.33773 -6.35861e-09)
(210.514 -10.2989 -6.52964e-09)
(210.408 -11.2229 -6.7323e-09)
(210.355 -12.1293 -6.92746e-09)
(210.334 -12.9862 -7.17522e-09)
(210.389 -13.8158 -7.404e-09)
(210.488 -14.5887 -7.69394e-09)
(210.681 -15.33 -7.96468e-09)
(210.937 -16.018 -8.29885e-09)
(211.306 -16.6801 -8.62069e-09)
(211.758 -17.3021 -9.00693e-09)
(212.345 -17.9087 -9.39348e-09)
(213.041 -18.4858 -9.84956e-09)
(213.915 -19.0599 -1.03332e-08)
(214.964 -19.6273 -1.09072e-08)
(216.287 -20.2149 -1.1554e-08)
(217.888 -20.8259 -1.23097e-08)
(219.851 -21.4756 -1.30729e-08)
(222.262 -22.1797 -1.39993e-08)
(225.247 -22.9599 -1.49806e-08)
(228.949 -23.8491 -1.61673e-08)
(234.318 -25.0544 -1.77002e-08)
(239.467 -26.2798 -1.91755e-08)
(246.596 -27.8675 -2.10303e-08)
(253.432 -29.4132 -2.27398e-08)
(261.415 -31.1288 -2.46026e-08)
(268.997 -32.7204 -2.62452e-08)
(276.473 -34.1686 -2.7765e-08)
(283.805 -35.4975 -2.91444e-08)
(291.064 -36.6869 -3.04678e-08)
(297.83 -37.6768 -3.15166e-08)
(303.974 -38.4629 -3.24668e-08)
(309.347 -39.0643 -3.30834e-08)
(314.002 -39.4965 -3.36683e-08)
(317.649 -39.7212 -3.38861e-08)
(320.566 -39.7993 -3.40974e-08)
(322.6 -39.8216 -3.40481e-08)
(323.956 -39.9851 -3.3992e-08)
(324.642 -40.4563 -3.38232e-08)
(324.61 -41.5104 -3.36139e-08)
(323.561 -43.4865 -3.34239e-08)
(320.756 -47.1885 -3.30945e-08)
(315.55 -52.7777 -3.28833e-08)
(307.169 -59.4738 -3.23917e-08)
(296.054 -64.9363 -3.20847e-08)
(283.195 -66.6852 -3.13994e-08)
(269.205 -65.3299 -3.17823e-08)
(257.356 -63.9533 -3.11523e-08)
(245.12 -59.4788 -3.14304e-08)
(234.334 -56.3246 -3.09043e-08)
(223.217 -50.6289 -3.11269e-08)
(212.947 -46.5936 -3.07237e-08)
(202.441 -40.4926 -3.09217e-08)
(193.062 -35.7298 -3.05655e-08)
(184.39 -29.138 -3.07155e-08)
(177.554 -23.4468 -3.04738e-08)
(173.002 -16.1441 -3.06479e-08)
(171.225 -10.0297 -3.04328e-08)
(170.78 -3.05357 -3.05766e-08)
(170.086 1.94694 -3.05176e-08)
(171.929 8.8614 -3.05347e-08)
(171.41 13.8274 -3.05531e-08)
(173.662 19.3879 -3.06324e-08)
(174.019 24.2364 -3.06967e-08)
(176.893 29.286 -3.084e-08)
(178.493 34.2403 -3.09719e-08)
(182.679 39.573 -3.11923e-08)
(186.688 45.274 -3.13988e-08)
(193.905 51.8486 -3.16959e-08)
(202.676 59.2859 -3.19883e-08)
(215.655 67.3318 -3.23632e-08)
(229.616 72.9245 -3.27234e-08)
(243.462 72.4294 -3.3079e-08)
(253.074 67.8681 -3.32738e-08)
(260.508 64.4318 -3.3367e-08)
(265.841 61.2141 -3.33634e-08)
(269.455 58.3605 -3.41336e-08)
(271.888 53.321 -3.41577e-08)
(273.241 47.8193 -3.43899e-08)
(274.315 41.8414 -3.46386e-08)
(274.809 36.1821 -3.44801e-08)
(274.785 30.1199 -3.46184e-08)
(273.787 24.6457 -3.46411e-08)
(272.262 19.2628 -3.47587e-08)
(270.005 14.7101 -3.4714e-08)
(267.548 10.5605 -3.48233e-08)
(264.763 7.19849 -3.47834e-08)
(262.125 4.35519 -3.48596e-08)
(259.548 2.23242 -3.48002e-08)
(257.419 0.699579 -3.48381e-08)
(255.656 -0.170942 -3.47806e-08)
(254.529 -0.600797 -3.48024e-08)
(253.913 -0.688063 -3.47722e-08)
(253.672 -0.711071 -3.47798e-08)
(218.375 -2.39137 -1.01295e-08)
(217.824 -3.40218 -1.01113e-08)
(217.739 -4.42442 -1.02987e-08)
(217.557 -5.50761 -1.0396e-08)
(217.722 -6.56686 -1.06246e-08)
(217.834 -7.64808 -1.08171e-08)
(218.193 -8.69294 -1.11027e-08)
(218.556 -9.73742 -1.13789e-08)
(219.146 -10.7429 -1.17319e-08)
(219.818 -11.7529 -1.20919e-08)
(220.723 -12.7417 -1.2527e-08)
(221.785 -13.7445 -1.29841e-08)
(223.11 -14.7413 -1.35245e-08)
(224.678 -15.7624 -1.41068e-08)
(226.579 -16.794 -1.47897e-08)
(228.848 -17.8654 -1.5544e-08)
(231.593 -18.973 -1.64291e-08)
(234.834 -20.1428 -1.74073e-08)
(238.326 -21.3339 -1.84422e-08)
(242.272 -22.5853 -1.95502e-08)
(246.491 -23.8589 -2.07092e-08)
(251.096 -25.171 -2.19114e-08)
(255.918 -26.4827 -2.31338e-08)
(261.008 -27.7992 -2.43589e-08)
(266.193 -29.09 -2.55764e-08)
(271.427 -30.3491 -2.67364e-08)
(276.492 -31.5358 -2.78309e-08)
(281.87 -32.7975 -2.89131e-08)
(285.995 -33.853 -2.97161e-08)
(291.78 -35.1754 -3.07885e-08)
(295.871 -36.1751 -3.14718e-08)
(301.1 -37.3518 -3.2333e-08)
(304.79 -38.231 -3.28333e-08)
(309.206 -39.2081 -3.34484e-08)
(312.464 -39.936 -3.37852e-08)
(316.084 -40.6622 -3.41767e-08)
(318.645 -41.1465 -3.43173e-08)
(321.343 -41.6151 -3.44958e-08)
(323.152 -41.9234 -3.44597e-08)
(324.984 -42.2222 -3.44706e-08)
(326.058 -42.3785 -3.42893e-08)
(327.085 -42.6002 -3.41911e-08)
(327.594 -42.872 -3.39173e-08)
(327.883 -43.3569 -3.37521e-08)
(327.662 -44.1666 -3.3446e-08)
(326.851 -45.5845 -3.32268e-08)
(324.904 -48.0611 -3.2908e-08)
(321.354 -51.8984 -3.26096e-08)
(315.522 -56.9778 -3.22585e-08)
(307.16 -62.2506 -3.18182e-08)
(296.62 -66.1267 -3.13901e-08)
(284.466 -67.1611 -3.07652e-08)
(271.435 -65.654 -3.10938e-08)
(260.08 -63.7117 -3.05281e-08)
(248.426 -59.3752 -3.07679e-08)
(237.904 -55.8015 -3.03039e-08)
(227.219 -50.1568 -3.05039e-08)
(217.161 -45.7939 -3.01643e-08)
(207.084 -39.6351 -3.03545e-08)
(197.994 -34.5528 -3.00455e-08)
(189.819 -27.767 -3.01839e-08)
(183.399 -21.8493 -2.99944e-08)
(179.156 -14.5954 -3.01684e-08)
(177.254 -8.41467 -2.99938e-08)
(176.594 -1.71461 -3.01245e-08)
(176.13 3.37491 -3.01003e-08)
(177.208 10.2514 -3.00634e-08)
(176.89 15.167 -3.01076e-08)
(178.457 20.9976 -3.0131e-08)
(179.007 25.8186 -3.02116e-08)
(181.384 31.0637 -3.03054e-08)
(183.2 36.0228 -3.04534e-08)
(187.104 41.428 -3.06371e-08)
(191.373 47.1252 -3.08577e-08)
(198.512 53.5572 -3.11276e-08)
(207.437 60.4397 -3.14305e-08)
(219.772 66.9484 -3.1776e-08)
(232.429 70.3367 -3.21159e-08)
(244.362 69.0947 -3.24022e-08)
(252.934 65.7131 -3.25553e-08)
(260.125 62.6197 -3.26182e-08)
(265.225 58.8996 -3.27688e-08)
(268.566 55.6922 -3.32833e-08)
(270.582 50.1869 -3.35408e-08)
(271.735 45.2234 -3.35964e-08)
(272.609 39.4471 -3.38132e-08)
(273.039 34.2719 -3.36771e-08)
(272.882 28.5951 -3.38383e-08)
(271.969 23.6548 -3.37787e-08)
(270.49 18.6671 -3.3928e-08)
(268.446 14.5368 -3.38667e-08)
(266.143 10.6729 -3.39658e-08)
(263.631 7.64463 -3.39357e-08)
(261.203 5.06235 -3.3991e-08)
(258.895 3.23522 -3.39471e-08)
(256.975 1.89502 -3.39677e-08)
(255.441 1.17733 -3.39259e-08)
(254.444 0.809611 -3.39332e-08)
(253.9 0.740286 -3.39132e-08)
(253.685 0.720384 -3.39154e-08)
(237.343 -1.02053 -1.73382e-08)
(237.216 -2.14068 -1.74599e-08)
(237.788 -3.32712 -1.77857e-08)
(238.312 -4.6339 -1.80465e-08)
(239.448 -5.97176 -1.84869e-08)
(240.612 -7.38496 -1.88941e-08)
(242.31 -8.80172 -1.9457e-08)
(244.094 -10.2527 -2.00104e-08)
(246.344 -11.701 -2.06953e-08)
(248.724 -13.1876 -2.13825e-08)
(251.523 -14.6958 -2.21759e-08)
(254.483 -16.253 -2.2974e-08)
(257.802 -17.8368 -2.38512e-08)
(261.267 -19.4561 -2.47238e-08)
(264.991 -21.0809 -2.56408e-08)
(268.776 -22.7055 -2.65282e-08)
(272.644 -24.2947 -2.74116e-08)
(276.443 -25.8435 -2.82361e-08)
(280.43 -27.3628 -2.90891e-08)
(284.339 -28.8283 -2.98805e-08)
(288.313 -30.2405 -3.06682e-08)
(292.171 -31.5863 -3.13876e-08)
(295.991 -32.8641 -3.20783e-08)
(299.651 -34.0702 -3.26946e-08)
(303.188 -35.2032 -3.32661e-08)
(306.526 -36.2654 -3.37594e-08)
(309.688 -37.255 -3.42012e-08)
(313.009 -38.3087 -3.46144e-08)
(314.428 -38.9685 -3.46942e-08)
(317.499 -39.9331 -3.50209e-08)
(318.996 -40.6046 -3.50336e-08)
(321.394 -41.3662 -3.52191e-08)
(322.614 -41.9442 -3.5134e-08)
(324.489 -42.553 -3.5208e-08)
(325.481 -43.0424 -3.50461e-08)
(326.903 -43.5125 -3.50293e-08)
(327.64 -43.9006 -3.47987e-08)
(328.64 -44.2421 -3.47102e-08)
(329.137 -44.5514 -3.4424e-08)
(329.774 -44.8112 -3.42874e-08)
(330.04 -45.1162 -3.39574e-08)
(330.352 -45.4453 -3.37867e-08)
(330.275 -45.917 -3.34413e-08)
(330.099 -46.6011 -3.3242e-08)
(329.314 -47.7141 -3.28876e-08)
(327.961 -49.5095 -3.26558e-08)
(325.393 -52.2428 -3.22811e-08)
(321.343 -56.0131 -3.19852e-08)
(315.23 -60.4106 -3.15613e-08)
(307.107 -64.5994 -3.11518e-08)
(297.088 -67.4306 -3.06494e-08)
(285.513 -68.0527 -3.00983e-08)
(273.313 -66.1855 -3.03541e-08)
(262.446 -63.8997 -2.98604e-08)
(251.303 -59.4768 -3.00486e-08)
(241.081 -55.5222 -2.96527e-08)
(230.744 -49.8382 -2.98212e-08)
(220.923 -45.0869 -2.95474e-08)
(211.178 -38.8391 -2.97248e-08)
(202.372 -33.3331 -2.94593e-08)
(194.561 -26.36 -2.95838e-08)
(188.421 -20.1497 -2.94373e-08)
(184.308 -12.9556 -2.96094e-08)
(182.245 -6.74026 -2.9466e-08)
(181.403 -0.235407 -2.95864e-08)
(181.002 4.92905 -2.95851e-08)
(181.619 11.6001 -2.95174e-08)
(181.381 16.5628 -2.95721e-08)
(182.499 22.4551 -2.95614e-08)
(183.138 27.2373 -2.96451e-08)
(185.175 32.5479 -2.97062e-08)
(187.154 37.4159 -2.98612e-08)
(190.904 42.7937 -3.00209e-08)
(195.46 48.3362 -3.02514e-08)
(202.597 54.5003 -3.05031e-08)
(211.553 60.71 -3.08099e-08)
(222.992 65.9065 -3.11272e-08)
(234.305 67.8765 -3.14407e-08)
(244.773 66.5142 -3.1679e-08)
(252.776 63.8004 -3.18219e-08)
(259.641 60.7029 -3.18808e-08)
(264.42 56.7393 -3.20493e-08)
(267.369 53.3141 -3.26047e-08)
(269.121 47.8471 -3.25744e-08)
(270.098 43.2519 -3.29953e-08)
(270.897 37.7108 -3.27344e-08)
(271.243 32.923 -3.30221e-08)
(271.06 27.5762 -3.29319e-08)
(270.208 23.0284 -3.2999e-08)
(268.832 18.3665 -3.30717e-08)
(266.969 14.5701 -3.30395e-08)
(264.859 10.9693 -3.3112e-08)
(262.582 8.2168 -3.30927e-08)
(260.377 5.83523 -3.31323e-08)
(258.313 4.22167 -3.30998e-08)
(256.6 3.04658 -3.31006e-08)
(255.254 2.44728 -3.30774e-08)
(254.369 2.12522 -3.30706e-08)
(253.885 2.06956 -3.30606e-08)
(253.693 2.05185 -3.30571e-08)
(268.088 -0.223727 -2.62391e-08)
(268.879 -1.59387 -2.65756e-08)
(270.049 -3.10223 -2.69829e-08)
(271.405 -4.76383 -2.73975e-08)
(273.113 -6.49647 -2.78787e-08)
(274.968 -8.31362 -2.83603e-08)
(277.126 -10.1495 -2.89011e-08)
(279.374 -12.0134 -2.9432e-08)
(281.854 -13.8602 -3.00079e-08)
(284.363 -15.7026 -3.05618e-08)
(287.038 -17.521 -3.11436e-08)
(289.705 -19.3381 -3.16914e-08)
(292.486 -21.1363 -3.2251e-08)
(295.225 -22.9271 -3.27661e-08)
(298.027 -24.6919 -3.32785e-08)
(300.752 -26.4352 -3.37384e-08)
(303.493 -28.1382 -3.41841e-08)
(306.134 -29.7993 -3.4575e-08)
(308.756 -31.3965 -3.49456e-08)
(311.239 -32.925 -3.52551e-08)
(313.665 -34.3718 -3.55389e-08)
(315.926 -35.7329 -3.57596e-08)
(318.098 -37.0021 -3.59524e-08)
(320.091 -38.1784 -3.60829e-08)
(321.975 -39.2608 -3.61849e-08)
(323.677 -40.2507 -3.62302e-08)
(325.255 -41.1504 -3.62479e-08)
(326.794 -42.0698 -3.62084e-08)
(327.008 -42.5531 -3.60386e-08)
(328.312 -43.2844 -3.59709e-08)
(328.764 -43.8574 -3.57261e-08)
(329.643 -44.3272 -3.56315e-08)
(329.966 -44.8196 -3.53416e-08)
(330.643 -45.1956 -3.52192e-08)
(330.879 -45.6454 -3.49011e-08)
(331.43 -45.9867 -3.47539e-08)
(331.586 -46.3987 -3.44165e-08)
(332.006 -46.6981 -3.42508e-08)
(332.076 -47.0678 -3.38971e-08)
(332.34 -47.3552 -3.37129e-08)
(332.257 -47.7483 -3.3356e-08)
(332.275 -48.1714 -3.31541e-08)
(331.872 -48.8194 -3.27956e-08)
(331.352 -49.7342 -3.2575e-08)
(330.158 -51.1378 -3.22107e-08)
(328.383 -53.1818 -3.19583e-08)
(325.362 -56.0314 -3.15679e-08)
(321.017 -59.5412 -3.12604e-08)
(314.861 -63.3279 -3.08165e-08)
(307.045 -66.7145 -3.0417e-08)
(297.525 -68.854 -2.98925e-08)
(286.488 -69.1641 -2.9397e-08)
(275.047 -66.8607 -2.95912e-08)
(264.639 -64.2934 -2.91547e-08)
(253.979 -59.6652 -2.92978e-08)
(244.06 -55.3762 -2.89582e-08)
(234.041 -49.5431 -2.90993e-08)
(224.45 -44.4373 -2.88826e-08)
(214.999 -38.0171 -2.90504e-08)
(206.454 -32.119 -2.88214e-08)
(198.935 -24.9274 -2.89343e-08)
(192.979 -18.444 -2.88211e-08)
(188.897 -11.2325 -2.89897e-08)
(186.642 -4.95889 -2.8874e-08)
(185.605 1.45404 -2.89855e-08)
(185.162 6.63187 -2.90014e-08)
(185.494 13.1276 -2.89151e-08)
(185.249 18.1802 -2.89737e-08)
(186.056 24.0662 -2.89416e-08)
(186.696 28.8656 -2.90226e-08)
(188.503 34.2122 -2.90629e-08)
(190.567 39.0195 -2.92215e-08)
(194.232 44.3622 -2.93667e-08)
(198.96 49.7068 -2.96037e-08)
(206.019 55.4743 -2.98443e-08)
(214.782 60.7951 -3.01524e-08)
(225.355 64.6671 -3.04443e-08)
(235.623 65.6195 -3.07382e-08)
(245.022 64.3443 -3.09515e-08)
(252.601 61.8377 -3.10906e-08)
(259.062 58.5643 -3.11486e-08)
(263.508 54.3916 -3.13104e-08)
(266.147 50.8361 -3.18263e-08)
(267.723 45.575 -3.1668e-08)
(268.564 41.2757 -3.23751e-08)
(269.302 36.0338 -3.17687e-08)
(269.563 31.586 -3.23181e-08)
(269.388 26.5825 -3.19521e-08)
(268.573 22.3919 -3.23174e-08)
(267.319 18.0625 -3.21324e-08)
(265.605 14.5821 -3.23027e-08)
(263.691 11.263 -3.2233e-08)
(261.622 8.76869 -3.23008e-08)
(259.639 6.61221 -3.22642e-08)
(257.794 5.19044 -3.22866e-08)
(256.274 4.15092 -3.22462e-08)
(255.088 3.64014 -3.22495e-08)
(254.301 3.3539 -3.22341e-08)
(253.868 3.30823 -3.22273e-08)
(253.695 3.29227 -3.22243e-08)
(296.211 0.0223461 -3.31054e-08)
(297.104 -1.45682 -3.34236e-08)
(297.945 -3.11063 -3.37037e-08)
(299.157 -4.93893 -3.40278e-08)
(300.364 -6.86542 -3.4322e-08)
(301.843 -8.89033 -3.46414e-08)
(303.328 -10.9471 -3.49366e-08)
(304.98 -13.0327 -3.52394e-08)
(306.617 -15.0992 -3.55194e-08)
(308.323 -17.1505 -3.57919e-08)
(309.987 -19.1593 -3.60406e-08)
(311.657 -21.1454 -3.62698e-08)
(313.292 -23.0986 -3.64742e-08)
(314.906 -25.0274 -3.66512e-08)
(316.49 -26.9165 -3.68024e-08)
(318.031 -28.7663 -3.69202e-08)
(319.54 -30.5599 -3.70138e-08)
(320.988 -32.2952 -3.70701e-08)
(322.399 -33.956 -3.71022e-08)
(323.73 -35.5409 -3.70971e-08)
(325.017 -37.0369 -3.70694e-08)
(326.212 -38.4441 -3.70058e-08)
(327.356 -39.7527 -3.69211e-08)
(328.402 -40.9664 -3.68031e-08)
(329.392 -42.0787 -3.6668e-08)
(330.282 -43.0968 -3.65005e-08)
(331.11 -44.0168 -3.63203e-08)
(331.867 -44.9476 -3.6086e-08)
(331.878 -45.3691 -3.58841e-08)
(332.529 -46.0992 -3.56499e-08)
(332.638 -46.5745 -3.53579e-08)
(333.069 -47.0428 -3.51474e-08)
(333.11 -47.4287 -3.48314e-08)
(333.431 -47.7898 -3.46161e-08)
(333.432 -48.133 -3.42931e-08)