/*--------------------------------*- C++ -*----------------------------------*\
  =========                 |
  \\      /  F ield         | OpenFOAM: The Open Source CFD Toolbox
   \\    /   O peration     | Website:  https://openfoam.org
    \\  /    A nd           | Version:  7
     \\/     M anipulation  |
\*---------------------------------------------------------------------------*/
FoamFile
{
    version     2.0;
    format      ascii;
    class       scalarField;
    location    "0.7/lagrangian/reactingCloud1";
    object      age;
}
// * * * * * * * * * * * * * * * * * * * * * * * * * * * * * * * * * * * * * //


2457
(
0.004115
0.00401
0.003905
0.0038
0.003695
0.00359
0.003485
0.00338
0.003275
0.00317
0.003065
0.00296
0.002855
0.00275
0.002645
0.00254
0.002435
0.00233
0.002225
0.00212
0.002015
0.00191
0.001805
0.0017
0.001595
0.00149
0.001385
0.00128
0.001175
0.00107
0.000965
0.00096125
0.00086
0.000755
0.00065
0.000545
0.00044
0.000335
0.00023
0.000125
2e-05
0.188345
0.0712412
0.020715
0.01483
0.010525
0.0105212
0.010315
0.01021
0.010105
0.01
0.00999625
0.0099
0.0098
0.0097
0.0095
0.0096
0.0094
0.0093
0.0092
0.0091
0.0089
0.009
0.0088
0.0087
0.0086
0.0085
0.0084
0.0083
0.0082
0.0081
0.008
0.0079
0.0078
0.0077
0.0076
0.0075
0.0074
0.0073
0.0071
0.0072
0.0069
0.007
0.0068
0.0067
0.0066
0.0065
0.0064
0.0063
0.0061
0.0062
0.006
0.005795
0.0059
0.00569
0.00548
0.005585
0.005375
0.00527
0.005165
0.00506
0.004955
0.00485
0.004745
0.00464
0.004535
0.00443
0.004325
0.00422
0.012415
0.012205
0.013045
0.01273
0.012625
0.0118862
0.0121
0.011785
0.011995
0.01252
0.013885
0.01147
0.01189
0.0112562
0.011155
0.01126
0.011575
0.010945
0.01168
0.01105
0.011365
0.01084
0.0111512
0.010735
0.01042
0.01063
0.01357
0.013255
0.01336
0.013465
0.013675
0.01294
0.01378
0.012835
0.01315
0.01231
0.01668
0.015565
0.014935
0.0151412
0.015355
0.01598
0.014725
0.01588
0.01462
0.0142
0.014095
0.014305
0.014515
0.01399
0.01441
0.049325
0.01688
0.01708
0.01718
0.01898
0.01658
0.01648
0.01678
0.01608
0.01638
0.01868
0.01628
0.01698
0.015775
0.01567
0.01525
0.01618
0.015145
0.01546
0.01504
0.02271
0.01988
0.01998
0.020085
0.01978
0.02166
0.021555
0.01908
0.01928
0.01948
0.01958
0.01888
0.022395
0.01848
0.01878
0.01858
0.01828
0.01838
0.01798
0.01938
0.01788
0.01968
0.01918
0.01818
0.01728
0.01748
0.01768
0.01758
0.027859
0.01778
0.01738
0.01808
0.0248236
0.03059
0.025755
0.024495
0.02565
0.0240712
0.025335
0.023865
0.02376
0.02439
0.02418
0.024705
0.023445
0.02355
0.024075
0.024285
0.023655
0.02334
0.022815
0.023235
0.02616
0.02313
0.023025
0.0225
0.022185
0.021975
0.021765
0.02208
0.02292
0.02145
0.021135
0.02229
0.02124
0.021345
0.02061
0.02103
0.020925
0.02187
0.02082
0.020505
0.020295
0.02019
0.02666
0.0204
0.022605
0.0286352
0.0259365
0.02966
0.02956
0.02946
0.030695
0.02976
0.030275
0.02886
0.0327912
0.02986
0.0312162
0.02906
0.02846
0.02866
0.02916
0.02806
0.02876
0.02776
0.02826
0.02796
0.02856
0.037945
0.02816
0.02926
0.02726
0.02746
0.02696
0.02706
0.02766
0.02686
0.02676
0.02836
0.02636
0.02626
0.02656
0.02606
0.02596
0.02736
0.02586
0.025125
0.025545
0.02646
0.02502
0.02523
0.02936
0.024915
0.02716
0.02756
0.02481
0.02996
0.02544
0.02896
0.0246
0.02397
0.0407351
0.0378603
0.0342539
0.0428781
0.0405903
0.0318994
0.0641921
0.0326926
0.0358729
0.0363631
0.0329681
0.0335199
0.04519
0.0672847
0.038145
0.037845
0.037445
0.039145
0.036445
0.038345
0.036745
0.036645
0.038045
0.036945
0.040045
0.035945
0.037045
0.03584
0.035735
0.036545
0.036845
0.037345
0.036345
0.03542
0.03521
0.035315
0.03563
0.037145
0.034895
0.035
0.034685
0.03479
0.0321044
0.035525
0.036145
0.034055
0.036245
0.035105
0.03416
0.04162
0.03395
0.03458
0.03374
0.03332
0.033215
0.03353
0.034265
0.034475
0.033005
0.03437
0.0329
0.036045
0.033425
0.03269
0.033845
0.03227
0.03164
0.03311
0.032585
0.032165
0.031535
0.031745
0.032795
0.03122
0.031325
0.03143
0.03185
0.0316362
0.03206
0.03101
0.030905
0.0308
0.031955
0.031115
0.03038
0.033635
0.03248
0.03017
0.032375
0.030065
0.030485
0.0437558
0.0431946
0.0417581
0.0434763
0.0414627
0.0436082
0.0416679
0.042021
0.0430728
0.0404742
0.0433129
0.040614
0.0424529
0.0436815
0.0390917
0.0432879
0.0403306
0.0417812
0.0413605
0.0471033
0.0428144
0.0437628
0.0396419
0.0395122
0.0406406
0.0428241
0.0420151
0.0787658
0.0383097
0.0407435
0.0418978
0.038105
0.0381623
0.040898
0.05097
0.051075
0.048025
0.048725
0.047725
0.0446612
0.047525
0.04498
0.0454
0.044455
0.046825
0.046025
0.043825
0.045925
0.04414
0.044875
0.049825
0.045295
0.04435
0.043195
0.044665
0.04393
0.043615
0.046625
0.044245
0.045505
0.04267
0.0433
0.0456062
0.044035
0.04372
0.042775
0.05286
0.047925
0.042145
0.041725
0.04456
0.04246
0.0415112
0.042355
0.04309
0.041935
0.043405
0.042565
0.04099
0.04288
0.041095
0.04078
0.04225
0.0448712
0.040885
0.042985
0.0414205
0.04015
0.04036
0.04057
0.040255
0.039945
0.039445
0.051495
0.04204
0.04183
0.039245
0.041305
0.039045
0.038845
0.038645
0.0412
0.038745
0.04351
0.040465
0.046125
0.038445
0.038245
0.039545
0.039345
0.038945
0.040675
0.039845
0.038545
0.039645
0.037645
0.037745
0.039745
0.037245
0.037545
0.0545841
0.0537148
0.0555593
0.052837
0.0501654
0.0482862
0.0535232
0.0481824
0.052567
0.0473211
0.0536274
0.051093
0.05043
0.0476949
0.0542548
0.0533986
0.0464853
0.047364
0.0503782
0.049427
0.0502418
0.0511098
0.0551544
0.0571174
0.054443
0.053755
0.0502047
0.0555918
0.0559977
0.0488698
0.0484388
0.0540294
0.050108
0.0511802
0.0475441
0.0573493
0.0488236
0.0520331
0.0525229
0.0561638
0.047291
0.0520902
0.053074
0.0480111
0.0581636
0.0517117
0.0464973
0.0538895
0.0478169
0.0495357
0.0501427
0.0454413
0.0525151
0.0582718
0.0462728
0.0498873
0.0457783
0.0475925
0.0559916
0.0557092
0.0465833
0.0540212
0.0526741
0.0460066
0.0569754
0.0571923
0.0564498
0.056036
0.054059
0.0462551
0.0520607
0.0488485
0.0441637
0.0540646
0.0464415
0.0504943
0.045039
0.050759
0.055448
0.0446123
0.068385
0.0528542
0.067585
0.066885
0.06158
0.0522397
0.061265
0.06431
0.055421
0.06095
0.059305
0.059705
0.061055
0.062315
0.056405
0.056905
0.058305
0.057205
0.058505
0.058405
0.056105
0.069085
0.055485
0.063995
0.060215
0.058005
0.0547375
0.056805
0.055695
0.05475
0.05517
0.0558
0.06452
0.05559
0.05391
0.056705
0.059405
0.0539836
0.056605
0.055065
0.067985
0.05412
0.06389
0.05433
0.055905
0.053175
0.057805
0.05307
0.052965
0.0548512
0.056205
0.05265
0.052545
0.053595
0.051915
0.054645
0.055275
0.0537
0.05202
0.05328
0.058105
0.051705
0.0516
0.0521212
0.05181
0.052755
0.050756
0.05139
0.05454
0.049925
0.048267
0.050655
0.056505
0.05118
0.050865
0.052125
0.049525
0.05055
0.052335
0.053385
0.050025
0.05244
0.048925
0.051285
0.049125
0.05223
0.058605
0.049625
0.064415
0.055286
0.048825
0.047825
0.048625
0.048225
0.049225
0.048425
0.048325
0.048125
0.054855
0.054015
0.0503557
0.047025
0.047125
0.049025
0.047225
0.046925
0.05013
0.049725
0.046425
0.046225
0.047425
0.049425
0.046325
0.046725
0.050235
0.047325
0.047625
0.054435
0.0452626
0.045085
0.0449762
0.04561
0.04582
0.046525
0.04477
0.045715
0.0437162
0.048525
0.0605984
0.0626828
0.0630454
0.0661581
0.0611638
0.0681675
0.0603437
0.0643055
0.0640779
0.0628291
0.0647697
0.0698599
0.0629229
0.0740868
0.0641101
0.0658913
0.0774776
0.0651987
0.0622757
0.0610356
0.0699963
0.0635095
0.0680823
0.0748282
0.0701585
0.0611613
0.0632587
0.0621155
0.0688304
0.0608446
0.0586304
0.0648701
0.0655179
0.0584032
0.0729023
0.0683024
0.0620381
0.0708183
0.0645111
0.0682945
0.0689693
0.0670134
0.0698024
0.0654792
0.0703487
0.0662468
0.0694428
0.0606782
0.0587451
0.0622197
0.0600036
0.0668286
0.0684284
0.0696762
0.0720548
0.0597233
0.0625293
0.0743533
0.0629256
0.0674001
0.0664759
0.0616794
0.0637587
0.0591777
0.0623453
0.0674852
0.0641262
0.0666754
0.0720863
0.0586919
0.0678858
0.070777
0.0585598
0.0577845
0.0660264
0.0589256
0.0715326
0.0681708
0.0643083
0.0667192
0.0624656
0.0711596
0.0641979
0.0586787
0.0583381
0.0654073
0.0646431
0.0621119
0.0665208
0.0574638
0.0736629
0.0730459
0.062187
0.0711872
0.0581767
0.0688554
0.0587191
0.061195
0.0649328
0.0590721
0.0667934
0.066342
0.0707385
0.0635907
0.0608897
0.0571945
0.0659589
0.0710901
0.0641232
0.0633474
0.0611977
0.068501
0.0617335
0.0574037
0.0606867
0.0661943
0.0600948
0.0668772
0.0680851
0.0674994
0.0601551
0.0580101
0.0676817
0.059938
0.0598351
0.0644169
0.0643925
0.0566426
0.0663657
0.0711134
0.0629768
0.0699224
0.0656673
0.0648707
0.0673626
0.0630557
0.0650989
0.0616961
0.058377
0.0622473
0.0655126
0.0636462
0.0676543
0.0619835
0.0741773
0.0605159
0.0565061
0.0568929
0.0564403
0.0647697
0.0618137
0.0628842
0.0605584
0.069093
0.0576675
0.0639301
0.0564765
0.0593248
0.0602073
0.0615352
0.0658337
0.0663171
0.0693638
0.0648153
0.066226
0.0593887
0.0627906
0.0641538
0.0637991
0.065161
0.058251
0.0668835
0.0663642
0.0651383
0.0613503
0.0703378
0.0559093
0.0609419
0.0621032
0.071956
0.0607225
0.0595524
0.0761206
0.0570506
0.0607095
0.0591827
0.0641484
0.0683729
0.0642084
0.0663834
0.0612138
0.0708705
0.0611186
0.0562959
0.0583694
0.0660267
0.0599946
0.0588728
0.0658084
0.0567579
0.08038
0.0640279
0.0668029
0.0553852
0.0640206
0.078965
0.0589734
0.076865
0.077465
0.077165
0.077365
0.073345
0.0694843
0.074815
0.069985
0.071875
0.072505
0.069185
0.07555
0.077565
0.073555
0.068685
0.069585
0.069885
0.07576
0.0708212
0.069285
0.072085
0.07198
0.071665
0.070615
0.074605
0.08206
0.068285
0.0712446
0.081745
0.0669431
0.07114
0.074395
0.068885
0.07492
0.082165
0.072295
0.070825
0.066985
0.07345
0.07093
0.067785
0.0703
0.0671683
0.068785
0.066685
0.065569
0.07051
0.069685
0.068185
0.068485
0.065985
0.06595
0.067485
0.08017
0.0836343
0.064835
0.076165
0.0553137
0.065675
0.066585
0.0713462
0.070405
0.067085
0.066485
0.064205
0.06536
0.068085
0.063998
0.07387
0.067685
0.065255
0.067885
0.06347
0.065045
0.07156
0.068985
0.06494
0.065465
0.0636762
0.085
0.066285
0.07135
0.068585
0.06473
0.063365
0.06578
0.06515
0.066385
0.061895
0.065885
0.06242
0.063155
0.0609228
0.06326
0.062
0.06284
0.071455
0.06179
0.063785
0.0613662
0.0554605
0.062105
0.061475
0.060425
0.07009
0.0606156
0.06032
0.066085
0.06221
0.06011
0.073765
0.059905
0.062735
0.058905
0.064625
0.069385
0.058205
0.06263
0.070195
0.059505
0.059605
0.057605
0.057505
0.06368
0.062525
0.06137
0.060005
0.057305
0.0615762
0.058705
0.062945
0.057005
0.0560541
0.06305
0.059005
0.057905
0.061685
0.059205
0.0562163
0.057705
0.057105
0.0557605
0.058805
0.059105
0.0758085
0.0758444
0.0802339
0.0821754
0.0751928
0.0782537
0.0880049
0.0875738
0.0792329
0.0758263
0.075501
0.088075
0.0783106
0.0794777
0.0745422
0.0816619
0.0769622
0.079169
0.0846117
0.0802751
0.0727766
0.0740012
0.0782385
0.0769897
0.0809186
0.0802926
0.0780423
0.081164
0.0775427
0.0791675
0.0838295
0.0766384
0.0789786
0.0862537
0.0796724
0.0845098
0.084487
0.0775353
0.0762111
0.086173
0.0731179
0.0782677
0.0874186
0.0774387
0.0872597
0.0846397
0.0720652
0.085119
0.076038
0.0833004
0.0795315
0.083891
0.0776531
0.0826507
0.0752342
0.0804059
0.0862732
0.0820246
0.0874049
0.0787159
0.0893092
0.0777496
0.0832436
0.0902054
0.0814548
0.0751118
0.079097
0.0821884
0.0725326
0.0769398
0.0745728
0.073863
0.0731945
0.0756249
0.0753551
0.0832451
0.0809731
0.0748587
0.0735187
0.07779
0.0867955
0.0764665
0.0821901
0.0873548
0.07794
0.0799013
0.0768464
0.0810117
0.0837246
0.0762672
0.0736259
0.0784734
0.0853271
0.0772787
0.0732201
0.0727578
0.105948
0.0843179
0.0714037
0.0857905
0.0790447
0.07181
0.0766671
0.0797043
0.0742696
0.0882083
0.0719664
0.0814123
0.0861177
0.0830138
0.0755048
0.0833284
0.0753269
0.0714737
0.0851684
0.0868136
0.0858145
0.0709754
0.0825394
0.0827537
0.0853368
0.0831918
0.0765797
0.0839147
0.0719388
0.0813909
0.0717822
0.0720278
0.0768073
0.161429
0.0835325
0.0876147
0.0791893
0.0722978
0.0802817
0.0790727
0.073248
0.0779036
0.0769715
0.0741817
0.0814261
0.0833621
0.07795
0.0731792
0.0769646
0.0761361
0.0845103
0.0735817
0.0750515
0.0844161
0.0772659
0.0859646
0.0729319
0.0720785
0.0863344
0.0832045
0.0776539
0.072139
0.075487
0.0777436
0.0724638
0.0717363
0.087145
0.0824556
0.08507
0.0742565
0.0800278
0.080769
0.0782844
0.0787969
0.0702412
0.0838096
0.0808488
0.0769674
0.0889558
0.0741903
0.084342
0.0723407
0.0777858
0.0735936
0.0785254
0.0779652
0.0785456
0.0730588
0.0761686
0.0731434
0.082679
0.0799085
0.079483
0.0739656
0.0847962
0.0811467
0.0757325
0.0840372
0.0759035
0.0917161
0.0700185
0.0703935
0.0702473
0.0808635
0.079058
0.0749093
0.0724845
0.0728431
0.0819253
0.0752181
0.0704928
0.0788852
0.0798589
0.083171
0.0794379
0.0713231
0.079636
0.0770363
0.0833173
0.0864793
0.0706703
0.095715
0.106005
0.074936
0.099925
0.09015
0.174395
0.10055
0.0735466
0.09225
0.093195
0.09183
0.0814415
0.0912
0.0894641
0.086645
0.089745
0.087045
0.084475
0.085315
0.085186
0.086245
0.086345
0.086745
0.096125
0.089345
0.088745
0.091725
0.0846514
0.086545
0.09036
0.084685
0.094455
0.087845
0.098725
0.08374
0.08458
0.0734832
0.0780907
0.08563
0.0770507
0.090885
0.088145
0.091935
0.08227
0.089245
0.089445
0.094245
0.087745
0.09351
0.0829
0.087345
0.088045
0.100655
0.08521
0.08395
0.0847862
0.088645
0.08332
0.086045
0.081535
0.0836071
0.079765
0.080478
0.08059
0.087645
0.078955
0.079165
0.087445
0.08479
0.08248
0.079465
0.09414
0.08143
0.0787781
0.078765
0.082375
0.086945
0.078165
0.08311
0.08101
0.078665
0.078365
0.079265
0.0854356
0.088545
0.085105
0.083215
0.080275
0.0808
0.081115
0.083425
0.078065
0.080905
0.087145
0.0797612
0.078265
0.080485
0.076065
0.0774419
0.078565
0.0716652
0.0748029
0.079565
0.075965
0.076665
0.0765151
0.08269
0.075445
0.078465
0.08164
0.076565
0.0745
0.097925
0.077265
0.0746429
0.077765
0.07429
0.0739922
0.085945
0.076265
0.079665
0.076465
0.08185
0.0724697
0.084265
0.076365
0.07282
0.0724
0.072925
0.07303
0.073975
0.0803762
0.07219
0.0730254
0.0734462
0.079365
0.071035
0.075235
0.077065
0.07513
0.074185
0.07261
0.077865
0.0699935
0.069785
0.0929554
0.104881
0.100829
0.101829
0.0982445
0.0944857
0.105165
0.0918955
0.0927916
0.110996
0.095831
0.0900123
0.0956832
0.114639
0.0968
0.0942384
0.108672
0.0913602
0.107536
0.0972307
0.107061
0.107854
0.110538
0.118813
0.0932796
0.100583
0.0967405
0.106132
0.100608
0.10291
0.0974109
0.106308
0.0932794
0.0951701
0.0982305
0.101581
0.107285
0.11203
0.104635
0.0978198
0.101621
0.105853
0.0915179
0.097499
0.0964788
0.106846
0.112072
0.106042
0.0932318
0.096331
0.0993441
0.0885711
0.113521
0.111384
0.110796
0.100217
0.100343
0.114957
0.109096
0.100417
0.156099
0.0989798
0.108938
0.0902963
0.10792
0.0985448
0.109915
0.104859
0.0915828
0.0960535
0.0952956
0.0968447
0.110436
0.0884548
0.0949222
0.105169
0.105299
0.115796
0.102415
0.0905473
0.0997765
0.106015
0.0908061
0.0957781
0.100372
0.0948312
0.0981799
0.0993534
0.0883849
0.102152
0.0997431
0.101191
0.0992735
0.0973227
0.0900985
0.111398
0.103186
0.11238
0.0993219
0.107736
0.0911357
0.0945517
0.0989819
0.0872281
0.101738
0.102422
0.0940711
0.101326
0.114477
0.0985466
0.109589
0.106284
0.0887714
0.106973
0.104519
0.0979908
0.098389
0.0940082
0.0863029
0.115631
0.100874
0.093738
0.0882338
0.0896839
0.0952636
0.108643
0.104275
0.0916561
0.0978794
0.0916396
0.097257
0.0971668
0.107052
0.08853
0.0972317
0.107752
0.088898
0.0873081
0.0888613
0.110612
0.0970459
0.0954383
0.0957346
0.108669
0.09886
0.0900454
0.0909926
0.108389
0.101037
0.101226
0.0871542
0.0988061
0.0916473
0.109892
0.157304
0.10001
0.105193
0.103575
0.103559
0.0893955
0.100965
0.0913381
0.110396
0.0890703
0.098495
0.0931171
0.0894436
0.106027
0.100378
0.111731
0.0987908
0.0988654
0.110528
0.095404
0.0990523
0.111658
0.0894338
0.0965412
0.11517
0.102059
0.0996633
0.104791
0.0908424
0.0888146
0.111451
0.0919372
0.0860306
0.101853
0.101349
0.10513
0.0855623
0.091903
0.11034
0.127665
0.101094
0.114411
0.11389
0.12408
0.111895
0.109605
0.127865
0.110635
0.108405
0.124395
0.12009
0.11032
0.110735
0.118785
0.107205
0.128665
0.12177
0.106305
0.106505
0.107905
0.106705
0.122085
0.108005
0.0946297
0.120195
0.106205
0.113365
0.108605
0.111265
0.0897436
0.105338
0.107705
0.105485
0.105695
0.116285
0.101556
0.10568
0.113155
0.108805
0.125445
0.110425
0.106512
0.112945
0.129465
0.119385
0.104435
0.115045
0.10391
0.10517
0.106951
0.12555
0.107105
0.108905
0.104542
0.103276
0.10264
0.106105
0.11305
0.120821
0.11053
0.13185
0.109705
0.112735
0.10139
0.106405
0.102755
0.108105
0.110005
0.113785
0.0991481
0.109305
0.11074
0.10339
0.104645
0.0925314
0.101075
0.114205
0.103385
0.10169
0.10307
0.121035
0.104536
0.103595
0.10496
0.108505
0.100209
0.117285
0.112525
0.0993337
0.105905
0.0989286
0.100932
0.111278
0.10097
0.101993
0.102546
0.111685
0.11116
0.103175
0.101887
0.0997678
0.104015
0.10433
0.103171
0.099625
0.106805
0.120615
0.1016
0.102545
0.097425
0.099825
0.10013
0.10181
0.10538
0.102566
0.101705
0.11263
0.0973891
0.097825
0.096825
0.108205
0.09561
0.096691
0.097325
0.100445
0.098374
0.101285
0.099525
0.0950813
0.098425
0.0889771
0.109805
0.096525
0.109505
0.099325
0.093615
0.096725
0.097725
0.098225
0.096225
0.09393
0.09519
0.098625
0.10202
0.099125
0.0924587
0.112315
0.086857
0.094035
0.092985
0.10034
0.0924233
0.0933143
0.095505
0.0974311
0.097025
0.105065
0.09099
0.093825
0.0926753
0.090675
0.098925
0.094875
0.09727
0.098525
0.0909941
0.09498
0.088945
0.091305
0.089545
0.100235
0.09057
0.116144
0.090045
0.09246
0.101739
0.098325
0.090255
0.096425
0.098125
0.098825
0.0926586
0.089145
0.100865
0.0889799
0.096925
0.092355
0.089945
0.089542
0.093202
0.088445
0.0881383
0.0870346
0.096625
0.089045
0.104225
0.099725
0.0962284
0.09456
0.091515
0.10244
0.087945
0.09309
0.109105
0.085735
0.09204
0.119459
0.111443
0.116782
0.127543
0.144925
0.123385
0.126065
0.126909
0.123879
0.136042
0.125598
0.138356
0.116293
0.127083
0.137439
0.138131
0.121189
0.125734
0.15102
0.148803
0.117221
0.114026
0.154868
0.12725
0.157636
0.134701
0.1502
0.127983
0.130135
0.122532
0.135025
0.130429
0.148813
0.151578
0.1227
0.140615
0.14718
0.135834
0.156595
0.124544
0.139948
0.142609
0.122599
0.164981
0.119939
0.113402
0.135568
0.155388
0.137795
0.156275
0.125037
0.154081
0.136463
0.12177
0.171213
0.125002
0.156554
0.131511
0.115507
0.150712
0.114622
0.12229
0.138024
0.122356
0.119916
0.13873
0.154886
0.123836
0.116085
0.161978
0.153108
0.16621
0.113455
0.130553
0.139849
0.14762
0.147054
0.14705
0.17444
0.124092
0.135446
0.125686
0.11206
0.132956
0.166141
0.166763
0.117455
0.164312
0.11275
0.143498
0.164746
0.119109
0.158437
0.126873
0.159633
0.129181
0.132919
0.159687
0.134175
0.151397
0.113709
0.12173
0.118864
0.143529
0.133269
0.131462
0.113877
0.156057
0.150396
0.148956
0.11474
0.128299
0.118596
0.156998
0.130838
0.118779
0.125841
0.134417
0.108834
0.142215
0.12226
0.11066
0.133305
0.155083
0.152562
0.137009
0.161988
0.148244
0.139386
0.144774
0.132426
0.13302
0.117033
0.146381
0.116198
0.115216
0.127756
0.130203
0.147485
0.109889
0.108334
0.142678
0.122205
0.131128
0.133837
0.134579
0.202069
0.120625
0.140984
0.161892
0.140775
0.140539
0.126705
0.149195
0.117191
0.112999
0.146643
0.150296
0.138137
0.123788
0.129236
0.120455
0.15433
0.117751
0.117529
0.123051
0.135647
0.150065
0.117925
0.143126
0.155229
0.162239
0.121424
0.114213
0.165518
0.155559
0.134142
0.169574
0.145425
0.120851
0.186345
0.178065
0.1703
0.203425
0.176565
0.182165
0.183425
0.170195
0.1745
0.17072
0.168085
0.162
0.152034
0.142348
0.166485
0.132391
0.166385
0.149741
0.176465
0.175025
0.161685
0.16347
0.186245
0.16305
0.160549
0.158182
0.16284
0.167785
0.159405
0.11154
0.168985
0.162945
0.16095
0.169191
0.167185
0.172925
0.16515
0.16263
0.160425
0.158605
0.158305
0.157909
0.156779
0.16452
0.157305
0.163333
0.16557
0.16494
0.16137
0.161265
0.133173
0.178465
0.158906
0.160005
0.159305
0.158105
0.189045
0.159205
0.17177
0.164625
0.160959
0.155485
0.162315
0.16618
0.155554
0.15517
0.156685
0.154645
0.157905
0.155135
0.158711
0.153813
0.18059
0.160754
0.156501
0.156566
0.157205
0.167085
0.141892
0.154015
0.150819
0.154435
0.158014
0.119056
0.156405
0.145333
0.154759
0.141505
0.16221
0.168485
0.245975
0.15475
0.165255
0.159805
0.156505
0.152545
0.150866
0.155695
0.151609
0.15433
0.150105
0.151495
0.150667
0.158405
0.161895
0.124832
0.156105
0.148196
0.108978
0.166685
0.159105
0.153805
0.14817
0.15412
0.150655
0.158286
0.149025
0.158705
0.15305
0.154444
0.150235
0.16326
0.162735
0.147269
0.15504
0.157005
0.146925
0.149325
0.153385
0.158905
0.149331
0.178965
0.151285
0.148025
0.15559
0.162105
0.152965
0.15496
0.15538
0.148725
0.146325
0.150865
0.16011
0.152125
0.145715
0.147625
0.163785
0.1516
0.15118
0.149225
0.160526
0.147525
0.144455
0.169185
0.148325
0.14278
0.144245
0.145169
0.143627
0.15013
0.146331
0.16032
0.147825
0.14426
0.159905
0.152335
0.118784
0.132949
0.143931
0.150346
0.135006
0.155065
0.157505
0.150025
0.149725
0.1537
0.14477
0.142683
0.146025
0.141518
0.153595
0.165045
0.152226
0.143733
0.117222
0.159705
0.148525
0.154225
0.14078
0.139945
0.141603
0.149125
0.141429
0.14162
0.168585
0.146225
0.14561
0.139045
0.142985
0.147125
0.166585
0.14267
0.16116
0.14351
0.137245
0.142565
0.138402
0.146725
0.13741
0.141095
0.136145
0.115282
0.136644
0.14099
0.14246
0.147325
0.16578
0.139145
0.134449
0.149625
0.140251
0.137845
0.140838
0.17114
0.138545
0.14288
0.136616
0.168285
0.111889
0.136097
0.145505
0.145295
0.134342
0.15097
0.13584
0.13353
0.143405
0.137645
0.142245
0.134963
0.132689
0.14456
0.131972
0.135948
0.137545
0.147225
0.134055
0.139345
0.13127
0.131745
0.138345
0.140045
0.147725
0.13269
0.133635
0.13416
0.13395
0.13143
0.13206
0.139645
0.136245
0.141725
0.135315
0.132275
0.132654
0.135
0.15055
0.134265
0.129134
0.139445
0.132828
0.13542
0.1412
0.1433
0.133215
0.13479
0.129165
0.136348
0.127965
0.128865
0.148225
0.133845
0.130275
0.139845
0.1308
0.130905
0.111831
0.135525
0.131535
0.138061
0.112287
0.131955
0.129665
0.128165
0.126665
0.13374
0.126965
0.137345
0.127674
0.128065
0.145925
0.121501
0.134895
0.122508
0.130469
0.122912
0.127365
0.135945
0.126979
0.12492
0.133425
0.124757
0.13311
0.135105
0.12445
0.127265
0.126865
0.13038
0.122295
0.126765
0.132165
0.127383
0.123463
0.122923
0.125874
0.119539
0.118421
0.129965
0.131115
0.12282
0.128265
0.143615
0.12156
0.128565
0.14414
0.126465
0.129229
0.116245
0.134685
0.127165
0.129172
0.127565
0.122505
0.122164
0.13164
0.131325
0.124185
0.118263
0.148825
0.123343
0.126363
0.108414
0.138245
0.133005
0.127645
0.126565
0.118685
0.115672
0.12072
0.12576
0.119659
0.129065
0.115881
0.119485
0.116783
0.118485
0.130485
0.135101
0.130065
0.116585
0.118093
0.124815
0.12135
0.119647
0.119185
0.12513
0.121665
0.123765
0.12366
0.128765
0.12093
0.12534
0.118285
0.116185
0.117679
0.135735
0.115985
0.119085
0.13122
0.113337
0.11452
0.11284
0.118885
0.11347
0.12324
0.115223
0.12051
0.13101
0.114415
0.117385
0.115039
0.130901
0.12387
0.114625
0.112941
0.119785
0.106693
0.181745
0.1141
0.117085
0.12429
0.116685
0.115108
0.116985
0.113995
0.11326
0.11473
0.11221
0.108305
0.112
0.11011
0.109405
0.111786
0.142355
0.121891
0.11149
0.125235
0.109905
0.12261
0.129765
0.116085
0.11494
0.11095
)


// ************************************************************************* //
