/*--------------------------------*- C++ -*----------------------------------*\
  =========                 |
  \\      /  F ield         | OpenFOAM: The Open Source CFD Toolbox
   \\    /   O peration     | Website:  https://openfoam.org
    \\  /    A nd           | Version:  7
     \\/     M anipulation  |
\*---------------------------------------------------------------------------*/
FoamFile
{
    version     2.0;
    format      ascii;
    class       labelField;
    location    "0.7/lagrangian/reactingCloud1";
    object      cellId;
}
// * * * * * * * * * * * * * * * * * * * * * * * * * * * * * * * * * * * * * //


2457
(
2886
2812
2672
2626
2581
2457
2388
2359
2259
2179
2091
1986
1937
1861
1778
1717
1428
1512
1438
1366
1302
1256
1169
1115
1024
1007
924
825
752
613
627
623
555
529
450
358
315
267
148
69
21
1748
315
1132
3242
3383
2494
3314
3466
3399
3111
3331
2630
3270
3195
3063
3300
2564
3000
3009
2782
2643
2946
2498
2361
2580
2435
2530
2228
2481
2398
2325
2166
2173
2024
1955
1964
1968
1898
1843
1928
1714
1797
1635
1559
1492
1346
1437
1282
1214
1397
1163
1022
797
959
805
985
731
698
613
532
460
391
251
276
191
124
78
8
7808
7543
5834
4438
4159
5030
4453
1858
1494
1009
870
1170
944
826
833
755
743
779
604
552
333
204
196
206
154
11
9835
8461
8160
8152
5624
4532
4511
4260
2840
74
8332
9178
9203
8628
7226
6943
6962
5270
5563
5310
4761
3610
3040
2221
529
535
8852
8838
8550
7990
8026
6896
6597
6081
5491
2964
3245
2966
2141
1579
1323
734
764
466
210
9593
9617
9612
8763
9050
6505
7646
7390
7091
7084
5684
5982
5702
5444
5150
4578
4314
3739
3199
3174
3204
2617
2338
1219
1551
1243
1233
958
937
679
405
393
6506
9214
8369
9831
8958
9826
8397
9548
8970
9259
8690
7839
8997
8708
8408
7841
8130
7860
7319
6170
6170
5897
4770
5341
5360
5070
4806
4507
2811
3402
3127
2260
2274
1989
2319
2277
1434
1154
878
880
894
901
308
39
65
6713
1133
9751
9758
9474
8612
9469
8619
8939
7770
8060
7777
8066
8093
8365
8067
7548
7528
6978
6969
7250
6665
5526
5820
6104
5848
5563
5576
5557
4985
5286
5293
4414
4753
4472
4738
4180
3323
2739
3051
2514
2482
2196
2225
2211
1291
1940
1341
1076
1091
807
522
522
247
276
8315
8036
5525
5246
2177
1619
1340
1061
5804
782
3572
5246
9300
9617
9392
9380
9387
8813
9412
9144
8836
9123
8266
8547
7406
8849
7703
8562
8577
7713
8006
7429
6860
7731
7743
7727
7446
6865
7460
7167
6892
6890
224
5469
5458
6354
5472
5752
5761
4603
5485
4919
5211
5231
4942
4652
4643
4651
4957
4069
4680
3791
4086
4114
3525
3270
2714
2408
2411
2414
2430
2418
2119
2446
2432
2154
2149
1845
1853
1585
1590
1308
1295
1301
1054
710
718
767
718
477
465
9359
6848
6290
6569
6011
4895
6848
7406
8243
4337
6290
4337
6290
9080
3500
6848
3779
6848
6569
9638
6569
7964
2384
2105
5453
7127
6569
3779
1268
4895
1826
989
989
5174
9787
9257
9534
9560
9583
9605
9599
8444
8460
8757
8466
8474
9339
8186
9055
9061
7024
8475
9357
9064
8196
8490
8499
7630
7613
7637
8229
7933
6793
6797
6799
7093
5927
6217
6817
7116
5664
6251
6548
6287
5395
5684
5973
5696
5991
5406
5711
5426
4837
4255
5146
4844
5174
4882
4584
4299
4615
4588
3475
2567
3757
2882
3195
2586
3199
2913
2647
2618
2651
2023
2032
2633
2368
2365
2058
1793
1784
1487
1499
1798
1231
1246
958
675
401
107
9287
8450
4544
7613
5660
4265
8729
3986
7055
3428
8450
4823
6218
2870
9008
7613
2591
3428
4544
2591
5102
5939
9566
9287
9008
6776
2312
9566
9566
3428
3149
8729
5660
2870
2870
8729
4544
7334
7613
9566
3428
7055
7334
3428
9287
6776
2591
9008
3707
4823
3986
1475
7613
5102
1475
5102
1196
3707
9287
9008
1196
7892
6776
917
8450
9287
9566
9566
8171
2312
6218
638
638
8450
2591
5939
359
5939
9566
638
9446
7892
9461
9203
9452
5102
9753
8888
9566
9221
9209
8346
8939
9240
9811
9818
8958
8664
8667
8965
8949
7516
9545
7512
7803
7812
9287
8690
9561
9278
8406
8429
7839
7566
8153
7274
6702
7892
7293
6992
7008
7003
5821
7282
6718
7889
7000
7591
7597
6735
6748
6752
6468
6473
6184
5889
5903
5598
5906
5908
5613
6202
5625
5917
5626
5042
5936
5348
4478
5371
3707
5072
4182
4192
5083
4504
4800
4509
4214
4509
4519
3636
4532
3643
4247
3629
3337
3664
3073
3982
3678
3705
3396
3398
2795
3108
3126
3127
2518
2536
3145
2849
2573
2258
2573
2551
2249
2268
2581
2306
1993
1686
1725
1695
1390
1414
1422
1064
80
1181
1186
896
595
591
610
326
72
13
3077
5030
5030
5867
4193
9215
2798
4472
5588
4472
5867
6704
5030
9494
5309
7262
9773
4472
4751
3356
7541
3635
8936
8378
9773
3914
4193
4193
8936
4193
2240
5309
6425
2240
7820
7820
4472
8378
6425
8657
7541
7262
8657
4193
9494
7541
8936
3356
1961
4472
1961
8099
8936
8936
9773
2240
3356
8936
1682
6704
5309
1682
3635
1961
2519
7820
5867
5309
9215
2240
8099
9215
1961
1682
5588
2519
8657
8099
5309
4193
5030
9215
4193
2240
1682
6146
5030
4751
6425
1403
9494
8936
4193
7541
1403
9494
2240
2240
5867
2240
4472
6983
8936
5867
3077
1124
6704
8378
4193
1124
2240
8936
3914
1403
3635
7820
3635
3356
6704
6983
3635
1124
8657
2798
3077
5030
4472
845
7541
9494
3635
6146
7262
5867
7262
5309
6146
4472
1961
1124
6983
845
4751
5030
6983
2798
566
566
566
5588
4472
2240
3356
9215
845
1961
566
3077
566
4193
6146
5588
8936
6425
6983
566
2519
5867
3914
6146
1124
6146
7820
4472
2798
7541
287
3356
4193
6983
2798
845
9494
1124
3635
2240
5867
6425
5867
4751
3077
9773
3914
566
1961
4472
1682
8
6704
287
9293
4472
5588
8
5867
8518
566
9726
9730
8527
9433
9727
9758
7137
9769
9173
9197
9493
8578
7407
8868
9215
9173
9459
9471
8304
8300
7146
8618
8623
8923
8580
7459
8367
8376
8007
8378
7465
7210
7766
7467
6592
7456
7489
8097
6299
7488
7523
6326
7256
7216
7244
6983
6085
7535
6663
6934
6905
6700
6686
5770
6062
6968
6360
8
6965
6670
6920
5509
6105
6100
6129
5839
6119
5574
5242
5845
5586
4942
5569
5278
4968
4973
4965
5249
5303
3762
4966
4689
4411
4716
4730
4455
4172
4175
4168
3889
4183
3873
3908
3852
3908
3565
3250
3894
3322
3613
8
3603
3343
3341
2719
3072
3345
2731
3038
3063
2422
2497
2485
2509
2470
2463
2238
2210
1848
2223
1930
1677
1402
1337
1635
1337
1388
1387
1077
1095
761
816
8
722
763
824
796
810
566
534
284
284
531
239
4121
3284
5795
7469
3005
5516
9701
8027
2726
3842
2726
7469
5237
2447
2447
5237
3005
6353
8585
6632
2447
2726
3284
4679
7190
4958
5516
4679
4400
6353
7748
3842
3842
4400
6632
9701
8585
4958
1889
8864
2168
2726
7190
4679
9422
9422
1889
7748
4400
8585
3005
8027
4400
8306
3563
6074
8306
6911
9701
3005
8027
4679
6353
6353
7469
2726
3563
6632
1610
2726
1610
1610
1889
4121
2168
6911
6074
2726
1610
4679
9422
3005
8027
4958
4121
1331
2726
4400
6911
3005
1610
3563
7190
4679
1331
1331
1331
9422
1331
9143
1610
1331
2168
6632
2168
4958
1331
4679
9701
8585
1610
5795
3842
1052
9422
9701
6911
1052
8306
5516
9143
8027
1052
8306
1052
6632
1052
1331
3842
8027
7748
4121
6632
1889
7190
4400
773
4958
773
1052
3842
7748
4958
2168
773
4121
7469
773
1889
6353
4958
6911
1052
1889
9143
8306
1610
1331
3284
3842
773
773
6911
8027
7748
3005
6353
3563
4400
4679
494
9143
7190
2447
8306
494
8864
494
3842
2726
4400
494
3842
494
3563
2726
7748
5516
5237
494
5795
6353
494
5516
2447
6911
494
494
494
7469
6074
2726
215
1610
2447
3563
215
4400
5795
8585
6074
494
5237
3284
7190
7748
215
8944
8956
1052
8691
9228
8084
7554
2726
9645
9327
9610
7469
9668
9701
9674
9367
9691
9655
9384
9422
9284
9373
7880
7576
8218
8796
9122
9129
8810
8501
9135
8470
8824
8218
8854
8820
494
5237
8569
4400
7044
7956
7688
7722
7389
7068
7117
7709
6502
7423
6829
6526
6263
6275
5341
6583
6587
6528
6245
6590
6622
6624
6623
6322
4777
6353
6070
5466
5963
6039
6052
4799
5791
6062
5763
5775
5165
5735
5433
5448
5469
5220
5180
5230
4170
4914
4902
4926
4896
4941
4351
4650
4046
3426
4370
4086
3438
4389
4119
3807
1610
3839
3769
3546
3534
3278
3216
3265
3256
2920
2682
2712
2332
2391
1889
2116
2142
2156
1466
1834
1806
1524
1511
1582
1173
1573
1598
1304
1324
1317
1302
1297
1307
1331
1301
951
768
758
732
434
492
427
153
215
211
3491
8792
6560
7676
3491
4328
7955
3770
2375
6839
2375
1817
4607
8792
5444
3770
9350
3770
6560
5723
8792
8513
7955
7397
3212
5723
4049
7118
5444
6839
6002
9071
1538
4328
6281
6002
9350
8513
7676
4607
7397
7955
2933
5723
5723
9629
7955
8234
3770
3491
3212
2096
9629
9350
8792
4886
6560
9629
6839
5723
5444
5165
9071
2375
8792
6560
7955
6002
1259
3770
4886
4049
7676
2096
4607
3770
9071
8792
8513
3212
6839
8513
3212
2654
4886
3212
4607
6839
1538
6281
6839
4049
7955
5444
2654
8792
7397
9071
6281
7955
1259
3770
6281
980
6002
7676
1817
7955
9350
5723
8234
7397
1259
9629
6281
1538
6281
2375
980
9350
7676
2933
1817
2096
2933
8513
6839
2933
4886
2654
4328
6002
9350
1817
6281
8792
1817
701
2096
5723
2375
5165
5165
9350
5723
1538
701
9629
7118
7676
980
4607
3212
9629
2375
6839
8513
4328
5165
1259
6839
3212
8513
422
5723
4049
422
9629
6002
7397
6839
6560
8234
422
5444
8513
2654
980
9071
7118
3491
7397
2933
143
9350
2654
143
5165
6560
9350
422
3770
8792
8823
1538
9807
9531
9236
9805
9557
8594
9836
9565
8912
8897
9603
9609
9623
9576
8651
9330
9350
9002
8956
8719
8674
9036
4328
8694
9007
8747
8097
7776
143
8775
8765
8772
8772
8116
7118
8771
8043
8761
8481
8479
8788
8462
7193
7512
8451
7826
8496
8473
8226
7209
7540
8200
7948
7904
8225
7859
7870
7235
7898
6636
7619
6954
7615
7602
7623
7334
7650
6949
5723
6972
7016
7659
7012
422
7395
6789
7100
6759
6744
6805
6760
6527
6741
6409
6838
6474
6495
6793
6799
6821
6829
6833
6799
6834
6559
5845
6209
6537
6176
6556
6203
6553
6483
6277
5963
5349
5940
5308
5962
5621
5672
5571
5012
5444
5679
5067
4737
5082
5157
4722
5155
4607
5107
5157
5126
4456
4874
4495
4842
143
4221
4575
4185
4314
4603
3600
4016
4271
4317
4323
4018
4007
3965
3369
3763
3388
143
3739
3722
3696
3735
3483
3439
3486
3043
3147
3146
3186
3207
3207
2809
2925
2898
2920
2915
2534
2917
2626
3175
2603
2634
2629
2332
2348
2096
1934
2372
1980
2019
2040
2051
2045
1581
143
1729
1762
1467
1805
1116
1496
1149
1229
1209
1220
790
573
673
668
629
569
382
53
259
137
91
3419
908
1187
3977
8999
3419
3698
4535
3140
5372
4256
5930
1745
3977
5372
5930
1745
3977
8162
7604
2024
908
9278
2861
8720
5093
8720
4256
4535
2582
1187
5093
7883
6767
3977
7046
7325
5930
7604
3140
6209
6209
2303
8162
3140
1466
3977
9278
6767
8441
3977
7325
5930
1466
9836
3419
7325
5372
2303
8441
908
1745
6209
3698
2861
6488
8999
3698
1466
9557
8720
9278
908
3977
7046
8441
7046
7046
9557
3140
2861
2303
629
4814
9557
9836
2024
8441
629
6488
9557
629
9278
3698
7046
4535
5372
9557
4535
7883
1187
3977
908
5930
5930
4814
1745
8720
7046
8441
1745
3977
2303
9557
5372
2582
2582
4814
350
6488
3698
908
5930
6488
6767
3419
9278
7883
6488
7046
2582
4814
1745
6209
908
1187
5091
2582
7604
629
350
7046
3698
4814
5930
5651
4535
2024
6209
9557
6767
6767
3977
7883
908
908
3698
8162
6488
2303
4535
1745
9278
2024
1745
3419
4535
7325
2303
7325
8720
9836
2303
2024
9557
7883
5372
9836
8162
1466
9333
9641
9059
8453
9440
9645
9025
9402
9341
9692
9712
9689
7046
7046
9791
5372
9416
7046
9799
9743
9088
9059
9093
9772
9825
7883
9375
8806
9767
629
9503
9409
9466
9555
9777
9109
9512
9449
9552
9507
9553
9244
9509
9433
9210
8538
9228
9200
9168
9239
5651
8818
9246
9259
9193
9251
9170
9241
8242
8505
9209
8863
8820
8509
8497
9236
9197
8953
8861
8983
8592
8627
8236
8984
8804
8999
8919
8575
6209
8994
8966
8706
8965
2024
8555
7883
8717
6488
8303
7673
8689
8641
8526
8003
8049
8385
8360
8701
8108
8408
8396
8352
8424
8323
7983
3140
8024
8368
71
7985
8370
8065
7046
8330
8120
7709
8415
7791
8388
8153
8131
7407
7803
8009
8076
8104
8100
8121
8141
7789
7868
7411
8060
7816
7854
7117
7853
7714
7804
7877
7797
7791
7455
7783
7852
7857
7785
7486
8153
7508
7419
7120
8040
7519
7542
7604
6860
7507
7555
7530
7579
7303
7184
7596
6237
7253
2024
3977
6922
7583
4256
7210
6866
7262
6888
7252
7269
7298
6864
7305
7312
6955
7006
7043
1187
5972
6593
6629
6707
6684
6986
6643
7046
6365
5105
6628
6762
6767
6751
6308
6006
6654
6365
6455
6091
6767
6479
6315
6057
6388
6155
629
6139
6110
6115
6409
5446
6377
5093
5432
6155
6199
6116
5122
6183
6070
6160
4830
629
6209
5460
5891
5909
5777
5904
6197
5918
5759
5640
5500
5646
5548
5611
5643
5602
5171
5608
5530
2303
5336
5346
5565
4899
4856
5309
5286
5214
5645
5238
4931
5235
4938
5013
5368
5008
5335
3993
4974
5277
4626
5043
5281
5050
4321
5085
4634
5074
4992
4793
4793
4650
4326
4755
4344
4742
4704
1187
4731
4449
4508
71
4524
4487
4486
4526
4445
4529
4067
4201
4064
4414
3698
4224
71
4175
3698
4238
3829
3907
3924
3886
3961
3502
3943
3904
3852
3961
3882
3626
3678
3694
3669
3696
3691
3658
3140
3140
3625
3619
3386
3297
2945
3413
3285
2900
3107
2303
71
2726
2849
3136
3062
3059
2827
2701
2670
2801
2840
2733
2785
2784
71
2464
2469
2760
2793
2256
2219
2291
2475
2303
2266
1949
2217
2486
1971
1900
1813
2151
1984
2008
2228
1961
2204
1936
1957
1913
1706
2005
1936
1724
1718
1728
1678
1682
1646
1706
1716
1581
1454
1454
1451
1651
1444
1428
1268
1464
1292
1394
1301
1186
979
993
1043
1159
1057
71
942
1074
1112
757
825
629
746
810
520
504
326
299
292
310
317
345
95
319
25
234
38
104
223
270
11
41
)


// ************************************************************************* //
