/*--------------------------------*- C++ -*----------------------------------*\
  =========                 |
  \\      /  F ield         | OpenFOAM: The Open Source CFD Toolbox
   \\    /   O peration     | Website:  https://openfoam.org
    \\  /    A nd           | Version:  7
     \\/     M anipulation  |
\*---------------------------------------------------------------------------*/
FoamFile
{
    version     2.0;
    format      ascii;
    class       scalarField;
    location    "0.7/lagrangian/reactingCloud1";
    object      cellDensity;
}
// * * * * * * * * * * * * * * * * * * * * * * * * * * * * * * * * * * * * * //


2457
(
0.25061
0.250423
0.249937
0.249933
0.249848
0.248785
0.248416
0.249389
0.248384
0.247033
0.248941
0.247762
0.248458
0.248141
0.247359
0.247725
0.246342
0.247655
0.247482
0.247413
0.247551
0.247933
0.247655
0.247846
0.247598
0.248008
0.247923
0.247723
0.247716
0.247655
0.24779
0.247778
0.247791
0.247897
0.247872
0.247829
0.247864
0.247869
0.247843
0.247833
0.247853
0.25297
0.251668
0.25184
0.251125
0.25054
0.253437
0.250913
0.249423
0.249807
0.252129
0.250219
0.253301
0.250256
0.250967
0.2514
0.249484
0.253618
0.251446
0.251102
0.252906
0.253431
0.251216
0.25393
0.253988
0.253272
0.254008
0.252561
0.25426
0.252244
0.252651
0.252895
0.254035
0.253677
0.254216
0.254087
0.253921
0.253744
0.253814
0.253306
0.252841
0.253068
0.25276
0.253383
0.253599
0.253528
0.253526
0.253092
0.25352
0.253478
0.252536
0.25294
0.252962
0.252849
0.252721
0.253209
0.252215
0.253252
0.252062
0.252406
0.252886
0.252978
0.252895
0.252741
0.251553
0.25199
0.25167
0.250939
0.251229
0.209693
0.212118
0.213147
0.216917
0.218511
0.221324
0.221461
0.225429
0.229909
0.23837
0.240334
0.2356
0.239235
0.240321
0.240088
0.241292
0.241923
0.240615
0.243508
0.243579
0.24629
0.247283
0.247465
0.247171
0.246966
0.2491
0.176627
0.180842
0.181118
0.1808
0.188707
0.192418
0.191305
0.193571
0.196971
0.20808
0.284617
0.173622
0.165135
0.165385
0.169851
0.194557
0.166157
0.186003
0.167171
0.167533
0.168177
0.169312
0.175625
0.1716
0.179416
0.174662
0.163782
0.163758
0.172915
0.182354
0.163921
0.163971
0.170772
0.164144
0.164077
0.206598
0.189648
0.189354
0.1645
0.164842
0.164655
0.187311
0.164765
0.164846
0.164901
0.191601
0.162566
0.162546
0.165386
0.162604
0.352375
0.166427
0.162798
0.163228
0.179092
0.203891
0.162897
0.16293
0.163051
0.163015
0.163878
0.163123
0.165686
0.163268
0.194804
0.163293
0.188182
0.187827
0.206257
0.163583
0.163499
0.163521
0.163507
0.232109
0.163541
0.163596
0.163866
0.162269
0.359443
0.363813
0.162122
0.228036
0.162107
0.245764
0.162116
0.177962
0.162391
0.180646
0.245588
0.162155
0.162132
0.190677
0.232952
0.186586
0.163694
0.162191
0.214582
0.214582
0.186998
0.244683
0.178906
0.162238
0.16277
0.162277
0.168778
0.300038
0.162317
0.162337
0.236444
0.168574
0.189827
0.162468
0.163599
0.176838
0.180237
0.169589
0.165135
0.162471
0.162502
0.228122
0.174943
0.16257
0.162029
0.162136
0.163329
0.162025
0.162444
0.2158
0.165934
0.193149
0.161999
0.234946
0.195178
0.207608
0.179032
0.161998
0.161992
0.176696
0.162017
0.161996
0.162013
0.162002
0.161998
0.192951
0.303794
0.220236
0.201771
0.16205
0.162843
0.162018
0.170453
0.211188
0.162277
0.162019
0.278037
0.162057
0.16206
0.162028
0.162037
0.171335
0.286507
0.162494
0.16209
0.180272
0.203567
0.162068
0.163608
0.363885
0.162078
0.311403
0.219577
0.168162
0.180565
0.201276
0.201276
0.186084
0.162125
0.161941
0.161941
0.161952
0.161953
0.161973
0.161978
0.16198
0.161982
0.16195
0.161985
0.161963
0.161953
0.369967
0.344055
0.190683
0.219778
0.201776
0.247714
0.162613
0.161946
0.185745
0.171967
0.212759
0.207914
0.296084
0.165179
0.226424
0.176019
0.162152
0.199314
0.171883
0.211624
0.245744
0.166048
0.161986
0.171472
0.174309
0.228584
0.162131
0.173882
0.167435
0.170252
0.16199
0.230354
0.27369
0.161948
0.220695
0.217993
0.194012
0.341209
0.186748
0.205463
0.176147
0.161967
0.162986
0.177142
0.19719
0.179106
0.161953
0.247476
0.161955
0.243351
0.193831
0.161968
0.200721
0.162155
0.162021
0.201799
0.19369
0.186267
0.162446
0.177419
0.23434
0.161967
0.162162
0.162074
0.162989
0.216276
0.192779
0.168656
0.163188
0.165489
0.191852
0.177593
0.16198
0.301965
0.259332
0.161975
0.259332
0.162149
0.174067
0.162048
0.161965
0.161956
0.16196
0.161952
0.161942
0.161965
0.161977
0.162
0.161938
0.161956
0.161938
0.161956
0.162034
0.161935
0.161965
0.161936
0.161965
0.16196
0.162066
0.16196
0.161991
0.161934
0.161934
0.161946
0.16197
0.16196
0.161936
0.161934
0.161942
0.161934
0.161935
0.161935
0.161944
0.365533
0.342956
0.34481
0.305127
0.248097
0.196363
0.208737
0.305981
0.265675
0.218277
0.249003
0.227583
0.174046
0.25136
0.181056
0.172224
0.346462
0.225045
0.16208
0.168488
0.224457
0.192113
0.176969
0.244834
0.292324
0.225847
0.165408
0.189192
0.243392
0.232133
0.226752
0.193202
0.320986
0.295436
0.187144
0.162836
0.281332
0.20173
0.171052
0.161974
0.25005
0.221906
0.199102
0.194541
0.168997
0.218787
0.169862
0.178074
0.249185
0.319126
0.17923
0.228381
0.161944
0.162635
0.18513
0.196137
0.161941
0.178349
0.172099
0.343967
0.16849
0.252788
0.173143
0.309093
0.167777
0.177379
0.162746
0.208867
0.162117
0.322313
0.297545
0.178597
0.162655
0.16404
0.212889
0.182501
0.200584
0.250854
0.214565
0.174112
0.189193
0.165525
0.177719
0.184458
0.17521
0.204981
0.201757
0.195156
0.168229
0.188565
0.174396
0.167044
0.197362
0.166021
0.184266
0.16446
0.195156
0.16957
0.178138
0.163464
0.199564
0.188565
0.163127
0.16446
0.168229
0.163127
0.171054
0.176224
0.203936
0.201757
0.199564
0.18217
0.162869
0.203936
0.203936
0.16446
0.1639
0.197362
0.174396
0.163464
0.163464
0.197362
0.168229
0.186401
0.188565
0.203936
0.16446
0.184266
0.186401
0.16446
0.201757
0.18217
0.163127
0.199564
0.165162
0.16957
0.166021
0.162389
0.188565
0.171054
0.162389
0.171054
0.16229
0.165162
0.201757
0.199564
0.16229
0.190751
0.18217
0.162216
0.195156
0.201757
0.203936
0.203936
0.19295
0.162869
0.178138
0.162161
0.162161
0.195156
0.163127
0.176224
0.16212
0.176224
0.203936
0.162161
0.346339
0.190751
0.332106
0.30794
0.340948
0.171054
0.317494
0.34703
0.203936
0.283126
0.300016
0.33229
0.287295
0.254639
0.237479
0.228073
0.258548
0.28116
0.276601
0.247731
0.272384
0.325365
0.219116
0.329981
0.315197
0.303012
0.201757
0.240635
0.20511
0.205365
0.247629
0.212853
0.260943
0.250235
0.207306
0.271701
0.294239
0.190751
0.239177
0.276417
0.248753
0.257513
0.349348
0.258106
0.267503
0.191401
0.262738
0.209707
0.201395
0.237328
0.214947
0.208466
0.215348
0.207088
0.222825
0.251363
0.225313
0.273239
0.219898
0.216345
0.244963
0.193368
0.222388
0.201104
0.220558
0.268833
0.177192
0.217581
0.27979
0.180665
0.165162
0.210922
0.309761
0.292765
0.192188
0.227702
0.197399
0.217915
0.249268
0.217915
0.199542
0.289094
0.179159
0.275257
0.186694
0.301899
0.322831
0.230881
0.298654
0.167805
0.203038
0.165668
0.20753
0.203721
0.29693
0.22469
0.190021
0.188346
0.293162
0.254128
0.165274
0.185579
0.179822
0.251206
0.179822
0.220495
0.271862
0.228253
0.169168
0.164797
0.2184
0.28268
0.195074
0.261866
0.316381
0.26622
0.246767
0.365863
0.162089
0.171088
0.16567
0.178655
0.220133
0.229657
0.189331
0.197825
0.163076
0.27971
0.228117
0.240124
0.240124
0.244794
0.235173
0.260949
0.226271
0.236855
0.243268
0.236855
0.244794
0.249196
0.240124
0.262133
0.241711
0.251989
0.263294
0.236855
0.238505
0.22993
0.253345
0.231711
0.259743
0.257258
0.263294
0.233458
0.235173
0.235173
0.259743
0.235173
0.22248
0.241711
0.247758
0.22248
0.254675
0.254675
0.236855
0.257258
0.247758
0.258512
0.253345
0.251989
0.258512
0.235173
0.262133
0.253345
0.259743
0.22993
0.220535
0.236855
0.220535
0.255979
0.259743
0.259743
0.263294
0.22248
0.22993
0.259743
0.218559
0.249196
0.241711
0.218559
0.231711
0.220535
0.224392
0.254675
0.244794
0.241711
0.260949
0.22248
0.255979
0.260949
0.220535
0.218559
0.243268
0.224392
0.258512
0.255979
0.241711
0.235173
0.240124
0.260949
0.235173
0.22248
0.218559
0.24629
0.240124
0.238505
0.247758
0.216552
0.262133
0.259743
0.235173
0.253345
0.216552
0.262133
0.22248
0.22248
0.244794
0.22248
0.236855
0.250607
0.259743
0.244794
0.228117
0.214515
0.249196
0.257258
0.235173
0.214515
0.22248
0.259743
0.233458
0.216552
0.231711
0.254675
0.231711
0.22993
0.249196
0.250607
0.231711
0.214515
0.258512
0.226271
0.228117
0.240124
0.236855
0.212449
0.253345
0.262133
0.231711
0.24629
0.251989
0.244794
0.251989
0.241711
0.24629
0.236855
0.220535
0.214515
0.250607
0.212449
0.238505
0.240124
0.250607
0.226271
0.210357
0.210357
0.210357
0.243268
0.236855
0.22248
0.22993
0.260949
0.212449
0.220535
0.210357
0.228117
0.210357
0.235173
0.24629
0.243268
0.259743
0.247758
0.250607
0.210357
0.224392
0.244794
0.233458
0.24629
0.214515
0.24629
0.254675
0.236855
0.226271
0.253345
0.208238
0.22993
0.235173
0.250607
0.226271
0.212449
0.262133
0.214515
0.231711
0.22248
0.244794
0.247758
0.244794
0.238505
0.228117
0.263294
0.233458
0.210357
0.220535
0.236855
0.218559
0.206097
0.249196
0.208238
0.389613
0.236855
0.243268
0.206097
0.244794
0.351799
0.210357
0.282045
0.279382
0.345651
0.29167
0.281368
0.265596
0.343008
0.263488
0.2772
0.264393
0.262153
0.305228
0.349303
0.296363
0.260949
0.2772
0.273609
0.267441
0.300712
0.30414
0.336068
0.273568
0.270327
0.261656
0.30354
0.30702
0.258738
0.257325
0.315998
0.257258
0.301639
0.279859
0.282797
0.299842
0.333133
0.309696
0.2805
0.256048
0.3444
0.281344
0.257468
0.322063
0.252527
0.274812
0.256244
0.250607
0.285847
0.253866
0.269102
0.276609
0.302994
0.249469
0.253733
0.320344
0.308152
0.253725
0.290129
0.206097
0.254999
0.26363
0.289115
0.302997
0.267372
0.27177
0.250646
0.25603
0.256489
0.246511
0.29058
0.252057
0.243361
0.311768
0.249002
0.256042
0.28501
0.279817
0.28814
0.283412
0.242397
0.364665
0.287096
0.28457
0.283052
0.257308
0.246151
0.242232
0.243381
0.241369
0.246392
0.245077
0.237246
0.260231
0.234289
0.283276
0.234289
0.291962
0.329886
0.241249
0.250981
0.241306
0.206097
0.250118
0.233738
0.234893
0.30173
0.228788
0.232719
0.287632
0.255266
0.232662
0.321509
0.235523
0.247646
0.227034
0.265258
0.273846
0.22263
0.242087
0.337593
0.229791
0.241959
0.219395
0.216608
0.284936
0.260568
0.284936
0.223155
0.223968
0.259072
0.235875
0.30755
0.23458
0.206097
0.347551
0.305099
0.22541
0.261083
0.242174
0.210357
0.237121
0.208661
0.208661
0.241073
0.258279
0.278355
0.275662
0.283337
0.287857
0.274731
0.282542
0.293406
0.289285
0.273785
0.277473
0.273785
0.287857
0.281733
0.27282
0.27282
0.281733
0.274731
0.284888
0.290684
0.285646
0.27282
0.273785
0.275662
0.280073
0.287129
0.28091
0.282542
0.280073
0.279221
0.284888
0.288575
0.277473
0.277473
0.279221
0.285646
0.293406
0.290684
0.28091
0.270839
0.291373
0.271839
0.273785
0.287129
0.280073
0.292734
0.292734
0.270839
0.288575
0.279221
0.290684
0.274731
0.289285
0.279221
0.289988
0.276575
0.284119
0.289988
0.286393
0.293406
0.274731
0.289285
0.280073
0.284888
0.284888
0.287857
0.273785
0.276575
0.285646
0.26982
0.273785
0.26982
0.26982
0.270839
0.278355
0.271839
0.286393
0.284119
0.273785
0.26982
0.280073
0.292734
0.274731
0.289285
0.28091
0.278355
0.268783
0.273785
0.279221
0.286393
0.274731
0.26982
0.276575
0.287129
0.280073
0.268783
0.268783
0.268783
0.292734
0.268783
0.292056
0.26982
0.268783
0.271839
0.285646
0.271839
0.28091
0.268783
0.280073
0.293406
0.290684
0.26982
0.283337
0.277473
0.267726
0.292734
0.293406
0.286393
0.267726
0.289988
0.282542
0.292056
0.289285
0.267726
0.289988
0.267726
0.285646
0.267726
0.268783
0.277473
0.289285
0.288575
0.278355
0.285646
0.270839
0.287129
0.279221
0.266649
0.28091
0.266649
0.267726
0.277473
0.288575
0.28091
0.271839
0.266649
0.278355
0.287857
0.266649
0.270839
0.284888
0.28091
0.286393
0.267726
0.270839
0.292056
0.289988
0.26982
0.268783
0.275662
0.277473
0.266649
0.266649
0.286393
0.289285
0.288575
0.274731
0.284888
0.276575
0.279221
0.280073
0.265552
0.292056
0.287129
0.27282
0.289988
0.265552
0.291373
0.265552
0.277473
0.273785
0.279221
0.265552
0.277473
0.265552
0.276575
0.273785
0.288575
0.282542
0.281733
0.265552
0.283337
0.284888
0.265552
0.282542
0.27282
0.286393
0.265552
0.265552
0.265552
0.287857
0.284119
0.273785
0.264434
0.26982
0.27282
0.276575
0.264434
0.279221
0.283337
0.290684
0.284119
0.265552
0.281733
0.275662
0.287129
0.288575
0.264434
0.385687
0.376862
0.267726
0.366598
0.382006
0.389342
0.383067
0.273785
0.305833
0.323705
0.321873
0.287857
0.298077
0.293406
0.296594
0.304983
0.29388
0.302098
0.298944
0.292734
0.346252
0.302673
0.351338
0.366604
0.319224
0.309795
0.294104
0.292995
0.30366
0.31737
0.292379
0.333988
0.298468
0.319224
0.291876
0.299838
0.265552
0.281733
0.291946
0.279221
0.351122
0.310167
0.304486
0.291974
0.314199
0.337758
0.310173
0.295877
0.342385
0.29794
0.314751
0.328395
0.318855
0.31196
0.370325
0.297613
0.295907
0.32722
0.329498
0.294692
0.286238
0.286033
0.28613
0.290134
0.375245
0.284888
0.28423
0.295954
0.331229
0.290839
0.286911
0.359705
0.283451
0.284993
0.289139
0.285714
0.307257
0.301435
0.314047
0.305338
0.294551
0.283551
0.298947
0.282069
0.389568
0.292018
0.297937
0.287092
0.301182
0.28277
0.293255
0.285326
0.307735
0.347519
0.284944
0.28615
0.340036
0.280068
0.278394
0.285443
0.26982
0.277553
0.306149
0.278661
0.282322
0.275958
0.302253
0.278303
0.281168
0.313196
0.286986
0.275333
0.33367
0.293332
0.270839
0.290321
0.277113
0.273052
0.352927
0.291626
0.310901
0.312864
0.322356
0.276188
0.361704
0.280444
0.271098
0.274885
0.269256
0.270543
0.275752
0.278121
0.273678
0.268783
0.276204
0.323709
0.266916
0.268767
0.280383
0.292404
0.265606
0.297566
0.293389
0.264434
0.264622
0.301832
0.31395
0.308825
0.311379
0.301832
0.303741
0.31202
0.302469
0.299278
0.309462
0.299278
0.297993
0.304377
0.31395
0.306283
0.302469
0.315241
0.302469
0.308825
0.306918
0.31395
0.313305
0.31202
0.310739
0.301195
0.306918
0.303105
0.3101
0.306283
0.309462
0.307553
0.314593
0.297347
0.303741
0.308189
0.307553
0.315241
0.313305
0.311379
0.304377
0.310739
0.31202
0.300557
0.306918
0.306918
0.315886
0.31202
0.312663
0.302469
0.301832
0.301195
0.298636
0.315886
0.315241
0.31395
0.305012
0.308825
0.315886
0.309462
0.306918
0.306283
0.305648
0.314593
0.299278
0.31395
0.308825
0.31202
0.307553
0.296699
0.302469
0.305012
0.303105
0.311379
0.298636
0.304377
0.302469
0.314593
0.31395
0.313305
0.301195
0.309462
0.313305
0.301195
0.299918
0.305012
0.301195
0.304377
0.309462
0.297347
0.308189
0.309462
0.303105
0.31202
0.306283
0.299918
0.31395
0.310739
0.314593
0.308189
0.31202
0.296699
0.302469
0.308189
0.296047
0.307553
0.311379
0.297993
0.31202
0.315241
0.306918
0.312663
0.310739
0.296699
0.315886
0.308189
0.297347
0.308189
0.299278
0.296047
0.315241
0.311379
0.300557
0.297993
0.298636
0.300557
0.313305
0.309462
0.300557
0.305012
0.299918
0.303741
0.307553
0.315241
0.297993
0.308189
0.31395
0.297993
0.295393
0.298636
0.306918
0.299278
0.305648
0.305648
0.315241
0.306918
0.297347
0.295393
0.315886
0.3101
0.311379
0.296047
0.304377
0.301195
0.315886
0.299278
0.309462
0.313305
0.303741
0.305648
0.296699
0.309462
0.301195
0.313305
0.294735
0.306918
0.303105
0.294735
0.315886
0.307553
0.310739
0.309462
0.308825
0.312663
0.294735
0.306283
0.313305
0.299918
0.296047
0.314593
0.3101
0.301832
0.310739
0.300557
0.294072
0.315241
0.299918
0.294072
0.305648
0.308825
0.315241
0.294735
0.302469
0.31395
0.389978
0.297347
0.334661
0.33344
0.338353
0.33528
0.326036
0.378497
0.326475
0.324062
0.354474
0.361966
0.317352
0.316767
0.315974
0.321635
0.347598
0.316142
0.315241
0.324383
0.338488
0.325021
0.339341
0.317314
0.303741
0.332565
0.32312
0.318448
0.345994
0.365511
0.294072
0.314637
0.315635
0.314892
0.314892
0.338996
0.3101
0.314985
0.373647
0.316151
0.315696
0.315992
0.313994
0.319127
0.384087
0.357053
0.321686
0.342912
0.314008
0.316976
0.312832
0.372036
0.345483
0.315408
0.312154
0.31809
0.312874
0.331046
0.327432
0.356129
0.319493
0.383767
0.319006
0.357202
0.320025
0.323668
0.318039
0.320098
0.313087
0.359883
0.306918
0.349306
0.332375
0.31213
0.333843
0.294735
0.310753
0.315806
0.310974
0.324414
0.329586
0.312511
0.324086
0.311764
0.330671
0.35132
0.309467
0.326107
0.319332
0.314885
0.313622
0.310355
0.30975
0.309572
0.313622
0.30954
0.30883
0.354036
0.321067
0.31029
0.332832
0.308878
0.323033
0.308975
0.323067
0.308243
0.311765
0.328276
0.317572
0.345104
0.311973
0.331242
0.314042
0.351833
0.35236
0.306283
0.312318
0.329212
0.35066
0.323439
0.305861
0.357924
0.305974
0.304377
0.315036
0.305861
0.310118
0.351566
0.305484
0.334618
0.310738
0.294072
0.332325
0.307564
0.348096
0.304401
0.304438
0.361927
0.30662
0.313361
0.304157
0.303835
0.306223
0.308661
0.322582
0.338585
0.302652
0.330064
0.294072
0.305648
0.30974
0.31839
0.306478
0.302073
0.310424
0.301932
0.361573
0.314312
0.314673
0.303553
0.301297
0.301297
0.33937
0.300808
0.304803
0.301189
0.30174
0.337432
0.3015
0.302744
0.305824
0.308678
0.301397
0.302191
0.305779
0.301964
0.298636
0.357884
0.299321
0.33537
0.31755
0.309412
0.305844
0.307721
0.389701
0.294072
0.322072
0.308611
0.31436
0.298579
0.348463
0.303923
0.332153
0.300244
0.305949
0.302529
0.37803
0.341044
0.298621
0.299808
0.313737
0.343064
0.301199
0.321595
0.359234
0.29425
0.304753
0.324424
0.31849
0.319148
0.325751
0.337568
0.324424
0.325079
0.327053
0.323749
0.328992
0.326392
0.330314
0.320462
0.325751
0.328992
0.330314
0.320462
0.325751
0.335869
0.334589
0.321116
0.31849
0.338001
0.323095
0.336987
0.328352
0.336987
0.326392
0.327053
0.322433
0.319148
0.328352
0.335295
0.332473
0.325751
0.333173
0.333926
0.330314
0.334589
0.323749
0.331028
0.331028
0.321781
0.335869
0.323749
0.3198
0.325751
0.338001
0.332473
0.336505
0.325751
0.333926
0.330314
0.3198
0.338943
0.324424
0.333926
0.328992
0.321781
0.336505
0.31849
0.320462
0.331028
0.325079
0.323095
0.331718
0.337568
0.325079
0.3198
0.338597
0.336987
0.338001
0.31849
0.325751
0.333173
0.336505
0.333173
0.333173
0.338597
0.323749
0.323095
0.321781
0.31784
0.327687
0.338597
0.338943
0.321116
0.336505
0.31784
0.331718
0.338597
0.31784
0.338001
0.325079
0.333173
0.327053
0.328992
0.338597
0.327053
0.335295
0.319148
0.325751
0.31849
0.330314
0.330314
0.327687
0.320462
0.336987
0.333173
0.336505
0.320462
0.325751
0.321781
0.338597
0.328992
0.322433
0.322433
0.327687
0.317185
0.331718
0.325079
0.31849
0.330314
0.331718
0.332473
0.324424
0.338001
0.335295
0.331718
0.333173
0.322433
0.327687
0.320462
0.331028
0.31849
0.319148
0.32836
0.322433
0.334589
0.31784
0.317185
0.333173
0.325079
0.327687
0.330314
0.329666
0.327053
0.321116
0.331028
0.338597
0.332473
0.332473
0.325751
0.335295
0.31849
0.31849
0.325079
0.335869
0.331718
0.321781
0.327053
0.320462
0.338001
0.321116
0.320462
0.324424
0.327053
0.333926
0.321781
0.333926
0.336987
0.338943
0.321781
0.321116
0.338597
0.335295
0.328992
0.338943
0.335869
0.3198
0.387216
0.369294
0.384472
0.390151
0.349108
0.367371
0.39004
0.355874
0.382125
0.353845
0.350386
0.354388
0.333173
0.333173
0.340625
0.328992
0.353235
0.333173
0.340092
0.3457
0.367134
0.384472
0.364925
0.342268
0.339052
0.335295
0.363665
0.368712
0.342784
0.31784
0.341045
0.354517
0.345219
0.338601
0.341787
0.359273
0.340316
0.347686
0.338621
0.340706
0.338613
0.339028
0.340545
0.350264
0.341935
0.363834
0.340177
0.343108
0.347676
0.339343
0.329666
0.363386
0.338914
0.338331
0.344006
0.338656
0.347358
0.339212
0.372262
0.38231
0.342046
0.352009
0.362623
0.379588
0.387453
0.339552
0.343486
0.339466
0.352381
0.33781
0.350322
0.344467
0.37589
0.337782
0.369733
0.337568
0.343055
0.353549
0.331028
0.337595
0.338562
0.33718
0.338621
0.321116
0.358076
0.335295
0.336997
0.331718
0.352058
0.37966
0.337893
0.342501
0.369367
0.356342
0.347109
0.339438
0.342428
0.337336
0.338685
0.337556
0.338427
0.343568
0.336794
0.348319
0.362717
0.323749
0.351843
0.341373
0.316537
0.361946
0.341123
0.344388
0.333173
0.347092
0.3376
0.360838
0.337165
0.343225
0.339143
0.335956
0.336827
0.371601
0.34141
0.354923
0.342688
0.3391
0.339541
0.337521
0.336317
0.343546
0.335535
0.369356
0.345209
0.339668
0.33616
0.378786
0.336219
0.359135
0.341267
0.335337
0.342294
0.343225
0.353733
0.344536
0.33628
0.335994
0.344202
0.347388
0.335956
0.343413
0.365342
0.376767
0.348752
0.341637
0.338474
0.334589
0.365913
0.343582
0.33706
0.340025
0.335256
0.334462
0.35181
0.334663
0.390017
0.339233
0.321116
0.325751
0.347906
0.335064
0.326392
0.346477
0.363144
0.338045
0.35553
0.339373
0.337214
0.334724
0.36403
0.334371
0.334119
0.341628
0.334941
0.333186
0.319148
0.389698
0.360663
0.350643
0.336446
0.339801
0.337038
0.347591
0.333173
0.347031
0.39014
0.350866
0.332507
0.332473
0.332779
0.36317
0.376327
0.345314
0.347031
0.333006
0.345636
0.332473
0.331822
0.360231
0.353499
0.342321
0.334462
0.31784
0.336654
0.341714
0.340755
0.338592
0.378166
0.344502
0.328352
0.387727
0.334462
0.331158
0.340567
0.390006
0.33186
0.350386
0.333876
0.390104
0.31784
0.331028
0.369088
0.332198
0.330879
0.3536
0.33117
0.331213
0.330505
0.359393
0.329832
0.352954
0.329704
0.341737
0.331698
0.329757
0.332673
0.375615
0.332003
0.345698
0.321781
0.330691
0.329894
0.338367
0.371198
0.389702
0.333978
0.337912
0.354787
0.329719
0.348531
0.356
0.349272
0.353807
0.336351
0.329017
0.337297
0.330784
0.390102
0.344671
0.339686
0.367732
0.331642
0.338883
0.330812
0.385558
0.328447
0.363441
0.328855
0.34058
0.328314
0.328314
0.35664
0.382026
0.332317
0.369658
0.334427
0.342254
0.319148
0.336462
0.336643
0.328103
0.316537
0.327238
0.330253
0.330382
0.327179
0.337471
0.327112
0.368583
0.33065
0.370431
0.344632
0.325079
0.32789
0.316537
0.335194
0.325079
0.326881
0.35142
0.332627
0.329816
0.33689
0.32615
0.373402
0.327479
0.333187
0.345173
0.32615
0.337786
0.332503
0.325711
0.325109
0.32638
0.325088
0.325163
0.327506
0.323749
0.323749
0.332696
0.333893
0.326138
0.343898
0.373125
0.324488
0.347203
0.389789
0.325506
0.321781
0.316537
0.347155
0.323349
0.32378
0.332771
0.333417
0.325003
0.354922
0.370625
0.328762
0.323844
0.345134
0.331899
0.332113
0.316537
0.342073
0.340679
0.33779
0.330259
0.325516
0.332838
0.322047
0.339044
0.321781
0.324138
0.330314
0.333318
0.336169
0.325923
0.343365
0.385602
0.352062
0.323922
0.321591
0.330774
0.327773
0.336602
0.333408
0.328583
0.339578
0.323197
0.321778
0.333408
0.321286
0.321804
0.321009
0.328099
0.327272
0.335933
0.323197
0.322004
0.356457
0.320086
0.320086
0.320239
0.334586
0.320723
0.322463
0.376517
0.31981
0.361221
0.328721
0.356903
0.319151
0.38418
0.373813
0.3492
0.320658
0.344678
0.316537
0.389912
0.339393
0.328975
0.35145
0.330556
0.31784
0.355641
0.334678
0.337671
0.342743
0.318384
0.322303
0.323705
0.320405
0.319408
0.317245
0.39006
0.319155
0.320838
0.339639
0.31881
0.389936
0.343236
0.328965
0.323636
0.318428
)


// ************************************************************************* //
