/*--------------------------------*- C++ -*----------------------------------*\
  =========                 |
  \\      /  F ield         | OpenFOAM: The Open Source CFD Toolbox
   \\    /   O peration     | Website:  https://openfoam.org
    \\  /    A nd           | Version:  7
     \\/     M anipulation  |
\*---------------------------------------------------------------------------*/
FoamFile
{
    version     2.0;
    format      ascii;
    class       vectorField;
    location    "0.7/lagrangian/reactingCloud1";
    object      coordinates;
}
// * * * * * * * * * * * * * * * * * * * * * * * * * * * * * * * * * * * * * //


2457
(
(-1.05851 0.232629 6.77626e-20)
(-1.07116 0.268978 -2.1684e-19)
(-1.08512 0.286813 4.33681e-19)
(-1.10624 0.151014 0)
(-1.12368 0.0177182 0)
(-1.12483 0.345719 -1.0842e-19)
(-1.13754 0.353282 -1.0842e-19)
(-1.16471 0.118583 0)
(-1.17247 0.304627 0)
(-1.18319 0.374933 -5.42101e-20)
(-1.21281 0.0972944 0)
(-1.21911 0.305791 0)
(-1.23975 0.196709 1.35525e-20)
(-1.25639 0.241648 5.42101e-20)
(-1.26965 0.330631 -2.1684e-19)
(-1.28722 0.286296 2.1684e-19)
(-1.34485 0.381796 0)
(-1.31828 0.292197 1.0842e-19)
(-1.33282 0.325361 -2.1684e-19)
(-1.35084 0.350798 -8.13152e-20)
(-1.36793 0.325419 1.0842e-19)
(-1.38476 0.204463 -1.35525e-20)
(-1.39932 0.30844 -5.42101e-20)
(-1.4156 0.232383 0)
(-1.42964 0.359562 1.6263e-19)
(-1.44984 0.0730264 -2.71051e-20)
(-1.46467 0.159283 0)
(-1.47968 0.331247 0)
(-1.49674 0.362795 0)
(-1.51404 0.376213 2.1684e-19)
(-1.5284 0.298978 -9.82558e-20)
(-1.52731 0.323448 0)
(-1.54358 0.322989 0)
(-1.56024 0.0827032 1.69407e-20)
(-1.57605 0.144032 0)
(-1.59208 0.284299 0)
(-1.60754 0.139537 1.60936e-20)
(-1.62667 0.026445 0)
(-1.64049 0.31344 -1.0842e-19)
(-1.65673 0.37987 0)
(-1.6742 0.266962 0)
(-0.710517 0.453704 0)
(-0.96847 0.448446 0)
(-0.828546 0.476742 -1.0842e-19)
(-0.382836 0.398471 -2.1684e-19)
(-0.351726 0.361237 1.0842e-19)
(-0.538964 0.434278 -1.0842e-19)
(-0.357942 0.366025 1.0842e-19)
(-0.332902 0.264415 5.42101e-20)
(-0.344153 0.260718 1.0842e-19)
(-0.401024 0.372663 1.0842e-19)
(-0.361593 0.265481 -2.71051e-20)
(-0.516067 0.429956 2.1684e-19)
(-0.373299 0.223871 0)
(-0.39987 0.271947 2.1684e-19)
(-0.417174 0.247637 -2.1684e-19)
(-0.375904 0.0425105 -3.38813e-21)
(-0.526026 0.423155 2.1684e-19)
(-0.438536 0.219826 -1.6263e-19)
(-0.443022 0.167294 -1.0842e-19)
(-0.483689 0.323322 0)
(-0.508863 0.34366 -1.49078e-19)
(-0.463784 0.132304 -1.0842e-19)
(-0.540103 0.409284 1.0842e-19)
(-0.574028 0.422361 0)
(-0.537318 0.311974 -2.1684e-19)
(-0.560285 0.375275 5.42101e-20)
(-0.544677 0.196055 1.0842e-19)
(-0.611381 0.408351 1.0842e-19)
(-0.559972 0.0632012 0)
(-0.576827 0.16636 5.42101e-20)
(-0.59204 0.200965 0)
(-0.622672 0.369403 -2.1684e-19)
(-0.626957 0.319866 1.0842e-19)
(-0.653065 0.415078 0)
(-0.667522 0.419019 0)
(-0.661904 0.355923 6.77626e-21)
(-0.670881 0.3327 0)
(-0.682615 0.346395 1.0842e-19)
(-0.698414 0.256579 -1.0842e-19)
(-0.682164 0.133367 -2.71051e-20)
(-0.719172 0.203589 -1.0842e-19)
(-0.705844 0.0952982 -2.71051e-20)
(-0.735268 0.287185 5.42101e-20)
(-0.749308 0.343905 0)
(-0.759376 0.339489 -5.42101e-20)
(-0.789044 0.408893 7.45389e-20)
(-0.77854 0.244695 0)
(-0.797018 0.380853 -2.1684e-19)
(-0.817548 0.376727 0)
(-0.800166 0.0430394 0)
(-0.82627 0.254958 5.42101e-20)
(-0.850179 0.288975 1.0842e-19)
(-0.887338 0.432992 -5.42101e-20)
(-0.862109 0.253372 1.0842e-19)
(-0.886892 0.373427 0)
(-0.874653 0.0696145 -2.71051e-20)
(-0.90664 0.411994 2.1684e-19)
(-0.914618 0.167253 0)
(-0.925303 0.281723 0)
(-0.937038 0.369109 0)
(-0.948859 0.391824 7.19978e-20)
(-0.961775 0.394967 2.4564e-20)
(-0.988341 0.412946 -5.42101e-20)
(-0.99047 0.252688 0)
(-0.998569 0.359435 -5.42101e-20)
(-1.01281 0.344785 2.1684e-19)
(-1.0325 0.206227 5.42101e-20)
(-1.03617 0.372915 2.71051e-20)
(0.130232 0.179202 2.1684e-19)
(0.121899 0.116786 0)
(0.0590423 0.276355 0)
(0.0112258 0.280558 0)
(0.00362326 0.278948 5.42101e-20)
(0.0290044 0.126091 -5.42101e-20)
(0.0140119 0.213428 -1.35525e-20)
(-0.00248484 0.135022 -2.71051e-20)
(-0.0523853 0.254713 -1.0842e-19)
(-0.121199 0.32051 2.1684e-19)
(-0.139975 0.3383 5.42101e-20)
(-0.100992 0.191733 0)
(-0.130647 0.303904 0)
(-0.157086 0.219296 0)
(-0.156349 0.181596 -5.42101e-20)
(-0.166187 0.238522 1.0842e-19)
(-0.169564 0.298766 -1.0842e-19)
(-0.170328 0.111503 0)
(-0.185781 0.321885 5.42101e-20)
(-0.201294 0.240899 9.48677e-20)
(-0.236664 0.327493 0)
(-0.260914 0.293515 0)
(-0.262561 0.343834 -1.0842e-19)
(-0.271759 0.289772 0)
(-0.282646 0.200071 -1.0842e-19)
(-0.308573 0.333097 2.1684e-19)
(0.60108 0.126148 4.06576e-20)
(0.533525 0.0328992 6.77626e-21)
(0.510543 0.1325 2.71051e-20)
(0.509581 0.169739 -1.0842e-19)
(0.3943 0.24599 -4.06576e-20)
(0.348856 0.135275 -1.0842e-19)
(0.338916 0.230801 5.42101e-20)
(0.33519 0.104538 -2.71051e-20)
(0.275487 0.218044 5.42101e-20)
(0.162412 0.109502 3.38813e-20)
(1.13147 0.29074 -3.25261e-19)
(1.17912 0.248629 -5.42101e-20)
(1.17778 0.13459 -1.0842e-19)
(1.13893 0.212549 -1.0842e-19)
(1.05093 0.244085 1.0842e-19)
(1.02792 0.259739 1.0842e-19)
(1.01912 0.176643 0)
(0.916199 0.256694 0)
(0.935329 0.195147 -1.35525e-20)
(0.910499 0.0804754 5.42101e-20)
(0.880111 0.0395167 -6.77626e-21)
(0.811731 0.196766 -5.42101e-20)
(0.781282 0.249109 2.1684e-19)
(0.719194 0.169929 0)
(0.632055 0.250427 1.0842e-19)
(0.631516 0.219417 1.89735e-19)
(2.03718 0.13634 -1.35525e-20)
(2.0212 0.199597 -2.71051e-20)
(1.98759 0.239165 -1.0842e-19)
(1.92776 0.249929 1.0842e-19)
(1.95079 0.0894903 0)
(1.8405 0.148195 -1.0842e-19)
(1.80893 0.239766 -5.42101e-20)
(1.74719 0.0496703 2.03288e-20)
(1.70919 0.195669 -5.42101e-20)
(1.48571 0.266289 1.35525e-19)
(1.49177 0.256216 0)
(1.47664 0.259137 2.71051e-19)
(1.40472 0.204726 -3.17637e-22)
(1.35168 0.222207 -5.42101e-20)
(1.33735 0.119828 5.42101e-20)
(1.29092 0.259016 0)
(1.28495 0.125219 0)
(1.26831 0.207738 -2.71051e-20)
(1.25174 0.104937 6.77626e-21)
(3.38856 0.244338 1.0842e-19)
(3.3657 0.134467 2.71051e-20)
(3.35305 0.157353 0)
(3.25584 0.214532 -1.0842e-19)
(3.27645 0.176298 5.42101e-20)
(2.94194 0.330527 1.6263e-19)
(3.07309 0.215367 1.0842e-19)
(3.02977 0.115932 0)
(3.0135 0.205468 -5.42101e-20)
(2.98794 0.233282 1.0842e-19)
(2.81116 0.258557 -1.0842e-19)
(2.86941 0.174464 0)
(2.80784 0.177409 -5.42101e-20)
(2.79647 0.0821116 2.71051e-20)
(2.74782 0.151043 2.71051e-20)
(2.65525 0.212392 1.0842e-19)
(2.63941 0.145046 0)
(2.5775 0.221572 0)
(2.51024 0.141367 0)
(2.485 0.25461 0)
(2.5014 0.118502 -6.77626e-21)
(2.42895 0.249006 -5.42101e-20)
(2.40789 0.248796 1.0842e-19)
(2.27724 0.260285 -5.42101e-20)
(2.294 0.0257726 -6.77626e-21)
(2.27583 0.154379 6.77626e-21)
(2.25376 0.200116 5.42101e-20)
(2.24799 0.180562 0)
(2.22387 0.275157 0)
(2.21201 0.181875 0)
(2.1862 0.16023 0)
(2.18287 0.210718 -5.42101e-20)
(4.51294 -1.97483e-33 1.72341e-35)
(5.0788 0.370418 1.0842e-19)
(4.94025 0.406767 -1.6263e-19)
(5.20939 0.105471 0)
(5.03066 0.264241 1.11808e-19)
(5.20177 0.129439 0)
(4.93579 0.278374 0)
(5.16413 0.124799 0)
(5.05559 0.212165 -1.0842e-19)
(5.06583 0.166 0)
(4.98157 0.215777 0)
(4.80984 0.280158 5.42101e-20)
(5.00313 0.0926395 0)
(4.99465 0.134787 -6.77626e-21)
(4.90453 0.228951 5.42101e-20)
(4.79417 0.272254 2.1684e-19)
(4.83886 0.225245 0)
(4.80677 0.185682 6.77626e-21)
(4.70089 0.111854 2.71051e-20)
(4.4513 0.256484 -1.0842e-19)
(4.45179 0.256208 0)
(4.40879 0.230993 -2.71051e-20)
(4.21776 0.278966 2.71051e-20)
(4.3358 0.223863 -1.0842e-19)
(4.31688 0.137611 2.71051e-20)
(4.24696 0.183832 1.0842e-19)
(4.23347 0.117348 5.42101e-20)
(4.16432 0.207721 0)
(3.86983 0.307662 -5.42101e-20)
(3.97559 0.159577 2.71051e-20)
(3.91637 0.139564 5.42101e-20)
(3.78889 0.273968 0)
(3.78653 0.212054 0)
(3.74709 0.240176 -1.0842e-19)
(3.77573 0.00927329 3.38813e-21)
(3.76598 0.200648 1.0842e-19)
(3.63949 0.225461 1.35525e-20)
(3.59779 0.230098 -2.71051e-20)
(3.55712 0.215977 0)
(3.55651 0.206737 5.42101e-20)
(3.54176 0.145695 0)
(3.5322 0.11504 5.42101e-20)
(3.45237 0.269709 -1.0842e-19)
(3.4305 0.227162 -5.42101e-20)
(3.41115 0.111388 -5.42101e-20)
(6.83487 -1.77805e-33 1.55168e-35)
(5.46537 1.19361e-25 -1.04165e-27)
(7.73913 0.139767 0)
(7.72863 0.110037 -1.35525e-20)
(7.67513 0.130374 5.42101e-20)
(7.43894 0.242002 -5.42101e-20)
(7.65178 0.153738 0)
(7.43953 0.213479 2.71051e-20)
(7.46217 0.0294999 -1.35525e-20)
(7.16519 0.264801 5.42101e-20)
(7.26476 0.215729 0)
(7.16489 0.235524 0)
(7.27602 0.188883 -6.77626e-20)
(7.26407 0.0692984 -1.69407e-20)
(7.33365 0.0993449 -4.06576e-20)
(7.26121 0.186556 5.42101e-20)
(7.10991 0.0108751 3.38813e-21)
(7.09621 0.101424 -3.38813e-21)
(6.9537 0.0646353 -2.71051e-20)
(6.96179 0.104493 8.13152e-20)
(6.98385 0.0959793 0)
(6.8667 0.217777 0)
(6.5722 0.319043 -5.42101e-20)
(6.64774 0.251052 0)
(6.71184 0.229032 0)
(6.65797 0.127702 0)
(6.57448 0.1565 -5.42101e-20)
(6.57183 0.0973191 -2.71051e-20)
(6.53135 0.181066 -1.0842e-19)
(6.4215 0.241805 -2.1684e-19)
(6.4781 0.14587 -2.71051e-20)
(6.47022 0.112945 2.71051e-20)
(6.23363 0.301422 2.1684e-19)
(6.34743 0.0354507 2.71051e-20)
(6.29821 0.0419445 -6.77626e-21)
(6.34822 0.102784 0)
(6.17053 0.0987045 -5.42101e-20)
(5.98029 0.191463 0)
(5.84538 0.307086 -2.71051e-20)
(5.94361 0.159214 5.42101e-20)
(5.77425 0.0656098 1.35525e-20)
(5.77872 0.208881 0)
(5.74393 0.240042 2.1684e-19)
(5.69459 0.109721 -4.91279e-20)
(5.69155 0.171825 1.0842e-19)
(5.53915 0.54652 0)
(5.63433 0.136281 0)
(5.54546 0.320453 1.0842e-19)
(5.46372 0.258029 -2.71051e-20)
(5.47965 0.192266 1.0842e-19)
(5.402 0.21162 -5.42101e-20)
(5.35853 0.240091 -1.0842e-19)
(5.31654 0.238906 0)
(5.29536 0.220169 -1.0842e-19)
(5.24456 0.0912819 5.42101e-20)
(10.4171 -1.47444e-33 1.28673e-35)
(10.3167 -1.48295e-33 1.29415e-35)
(9.53323 -1.54935e-33 1.3521e-35)
(9.46519 -1.55512e-33 1.35713e-35)
(8.42375 -1.64338e-33 1.43416e-35)
(8.26203 -1.65709e-33 1.44612e-35)
(8.19914 -1.66242e-33 1.45077e-35)
(8.11066 -1.66992e-33 1.45732e-35)
(9.60507 -1.54326e-33 1.34679e-35)
(8.04475 -1.67551e-33 1.46219e-35)
(8.87184 -1.60541e-33 1.40102e-35)
(9.49559 -1.55254e-33 1.35488e-35)
(10.7638 0.590972 4.33681e-19)
(10.8762 0.416798 2.1684e-19)
(10.7981 0.179048 -1.0842e-19)
(10.8378 0.229037 1.0842e-19)
(10.8339 0.198028 -5.42101e-20)
(10.63 0.272175 1.0842e-19)
(10.8241 0.0894336 -2.71051e-20)
(10.7206 0.036543 1.35525e-20)
(10.6388 0.168533 -2.71051e-20)
(10.6701 0.132257 6.77626e-21)
(10.4682 0.220509 5.42101e-20)
(10.524 0.213676 -5.42101e-20)
(10.184 0.326734 5.42101e-20)
(10.6082 0.109365 1.35525e-20)
(10.2713 0.242375 0)
(10.4925 0.145202 1.0842e-19)
(10.5225 0.0764964 -1.35525e-20)
(10.2529 0.200366 -5.42101e-20)
(10.3895 0.138274 -6.77626e-20)
(10.1423 0.220083 -1.0842e-19)
(10.0101 0.269271 -1.0842e-19)
(10.2627 0.119984 4.40457e-20)
(10.303 0.0635949 5.42101e-20)
(10.2451 0.134487 2.71051e-20)
(10.1733 0.143726 -1.0842e-19)
(9.9483 0.250399 0)
(10.1406 0.0827837 0)
(10.09 0.144446 -2.71051e-20)
(9.98745 0.129832 0)
(9.96793 0.137989 0)
(7.83093 -1.69363e-33 1.47801e-35)
(9.56278 0.251407 1.0842e-19)
(9.49835 0.300796 2.1684e-19)
(9.78919 0.0389987 1.35525e-20)
(9.56306 0.239372 -6.77626e-20)
(9.6558 0.236815 -1.0842e-19)
(9.65237 0.196302 0)
(9.29267 0.383191 0)
(9.53126 0.181568 0)
(9.40373 0.215045 1.35525e-20)
(9.43991 0.157469 0)
(9.4444 0.07026 0)
(9.37799 0.113001 -2.71051e-20)
(9.31168 0.163597 1.0842e-19)
(9.24784 0.204684 5.42101e-20)
(9.29125 0.16838 -2.71051e-20)
(9.31929 0.0457428 -2.71051e-20)
(9.09497 0.277241 2.84603e-19)
(9.27586 0.0361927 2.71051e-20)
(9.04517 0.271087 0)
(9.07723 0.199808 5.42101e-20)
(9.12422 0.075283 3.55754e-20)
(8.9523 0.210911 0)
(8.83988 0.103591 5.42101e-20)
(8.66259 0.0943284 0)
(8.57151 0.21675 -2.71051e-20)
(8.581 0.205251 1.0842e-19)
(8.58548 0.192437 -1.0842e-19)
(8.59263 0.117495 -5.42101e-20)
(8.547 0.173957 0)
(8.44613 0.262707 5.42101e-20)
(8.51789 0.0457494 2.71051e-20)
(8.51598 0.109277 5.42101e-20)
(8.48674 0.105051 -2.71051e-20)
(8.43701 0.12694 0)
(8.38408 0.241024 0)
(8.35028 0.20164 0)
(8.31132 0.155321 1.35525e-20)
(8.2965 0.1314 1.35525e-20)
(8.22671 0.145487 -5.50571e-21)
(8.20335 0.202194 -1.0842e-19)
(8.21546 0.174831 -5.42101e-20)
(8.15084 0.0318026 -2.71051e-20)
(8.05774 0.326064 1.0842e-19)
(8.03001 0.287885 -5.42101e-20)
(8.03389 0.0693087 -1.69407e-21)
(7.9758 0.288165 2.1684e-19)
(7.95803 0.119844 6.77626e-20)
(7.90306 0.171614 -5.42101e-20)
(13.9582 -1.17432e-33 1.02482e-35)
(13.1842 -1.23993e-33 1.08207e-35)
(12.9702 -1.25807e-33 1.0979e-35)
(13.0447 -1.25174e-33 1.09238e-35)
(12.8386 -1.26921e-33 1.10763e-35)
(12.5308 -1.2953e-33 1.13039e-35)
(13.1614 -1.24185e-33 1.08375e-35)
(13.2909 -1.23088e-33 1.07418e-35)
(13.5658 -1.20758e-33 1.05384e-35)
(12.3708 -1.30886e-33 1.14222e-35)
(12.9962 -1.25586e-33 1.09597e-35)
(12.2963 -1.31517e-33 1.14774e-35)
(12.9414 -1.26051e-33 1.10003e-35)
(13.8518 -1.18334e-33 1.03269e-35)
(12.0632 -1.33493e-33 1.16498e-35)
(13.1694 -1.24118e-33 1.08316e-35)
(12.1717 -1.32573e-33 1.15695e-35)
(13.1469 -1.24309e-33 1.08483e-35)
(13.076 -1.24909e-33 1.09007e-35)
(14.0661 -1.16518e-33 1.01684e-35)
(13.051 -1.25122e-33 1.09192e-35)
(13.5172 -1.2117e-33 1.05744e-35)
(11.6679 -1.36844e-33 1.19422e-35)
(11.6347 -1.37125e-33 1.19667e-35)
(12.6495 7.56454e-07 -4.86699e-18)
(13.2261 -1.23638e-33 1.07897e-35)
(13.0799 -1.24876e-33 1.08978e-35)
(12.1488 -1.32768e-33 1.15864e-35)
(11.377 -1.39309e-33 1.21573e-35)
(12.5133 3.8886e-32 3.61987e-34)
(11.5137 -1.3815e-33 1.20562e-35)
(11.2158 -1.40675e-33 1.22766e-35)
(11.2306 -1.40546e-33 1.22659e-35)
(12.6196 -1.27174e-33 1.13782e-35)
(14.1713 0.583187 5.42101e-20)
(13.9876 0.457951 0)
(14.0873 0.466206 -4.31987e-20)
(14.082 0.351195 -2.98156e-19)
(14.0754 0.248778 1.0842e-19)
(14.0826 0.150803 -5.42101e-20)
(14.0078 0.179045 -1.0842e-19)
(13.6428 0.351746 1.6263e-19)
(13.6644 0.280397 5.42101e-20)
(13.8164 0.200154 0)
(13.6548 0.254059 1.0842e-19)
(13.7063 0.215622 8.13152e-20)
(13.9912 0.0919575 -5.42101e-20)
(13.6081 0.257522 -5.42101e-20)
(13.8898 0.112463 1.35525e-20)
(13.832 0.0880198 0)
(13.225 0.463692 1.35525e-20)
(13.6396 0.211875 -1.0842e-19)
(13.9418 0.0113915 2.5411e-21)
(13.8933 0.0737864 -4.23516e-21)
(13.6001 0.211473 -1.0842e-19)
(13.6605 0.144024 5.42101e-20)
(13.6832 0.10705 1.01644e-20)
(13.3833 0.248808 5.42101e-20)
(13.4484 0.323486 0)
(13.3922 0.216102 5.42101e-20)
(13.6317 0.0664137 0)
(13.4733 0.139072 -5.42101e-20)
(13.1408 0.249848 0)
(13.1151 0.229094 0)
(13.1566 0.223144 0)
(13.2135 0.155288 -5.42101e-20)
(12.8472 0.377945 1.0842e-19)
(12.9289 0.330213 0)
(13.1346 0.141163 -6.77626e-21)
(13.2283 0.049536 1.18585e-20)
(12.812 0.30529 0)
(12.9794 0.177857 -7.6233e-20)
(13.0534 0.0973178 -6.77626e-21)
(12.9781 0.0160828 0)
(12.7094 0.260017 -5.42101e-20)
(12.7982 0.218787 -5.42101e-20)
(12.8374 0.170716 0)
(12.7401 0.162931 0)
(12.8321 0.092175 1.35525e-20)
(12.6633 0.214489 -1.0842e-19)
(12.7485 0.0982077 5.42101e-20)
(12.6982 0.123033 6.77626e-21)
(12.4775 0.262643 -5.42101e-20)
(12.2943 0.370417 -1.0842e-19)
(12.6129 0.12917 0)
(12.4835 0.229259 1.0842e-19)
(12.6113 0.00051435 2.00457e-51)
(12.5059 0.0612084 0)
(12.4107 0.146629 0)
(12.3705 0.170427 0)
(12.4517 0.0068268 1.69407e-21)
(12.3766 0.128498 -2.71051e-20)
(12.0997 0.115966 -1.35525e-20)
(11.8115 0.432347 1.0842e-19)
(12.1078 0.0990888 0)
(11.9082 0.269101 2.71051e-20)
(12.0076 0.119742 8.13152e-20)
(11.8122 0.34755 1.0842e-19)
(11.9533 0.0985698 0)
(11.8687 0.131859 1.35525e-20)
(11.8278 0.0745811 -2.71051e-20)
(11.7475 0.205529 0)
(11.8052 0.0545127 -1.35525e-20)
(11.6303 0.370421 -2.71051e-20)
(11.6417 0.32847 1.0842e-19)
(11.7583 0.134492 0)
(11.7124 0.0749289 1.35525e-20)
(11.6559 0.0852387 0)
(11.581 0.213061 -2.71051e-20)
(11.5496 0.149335 2.71051e-20)
(11.5086 0.191032 5.42101e-20)
(11.4487 0.27235 1.0842e-19)
(11.4584 0.218156 -2.71051e-20)
(11.4854 0.126519 0)
(11.3824 0.168584 0)
(11.3682 0.101108 -2.71051e-20)
(11.2873 0.140244 -2.71051e-20)
(11.1982 0.160737 8.80914e-20)
(11.0409 0.135885 1.0842e-19)
(11.0166 0.202942 0)
(18.8965 9.37058e-30 -8.17758e-32)
(18.4857 -7.90608e-34 6.89953e-36)
(16.3436 -9.72156e-34 8.48388e-36)
(17.9786 -8.33586e-34 7.2746e-36)
(16.9087 -9.24261e-34 8.0659e-36)
(16.2118 3.04719e-21 -2.65924e-23)
(18.5154 -7.88093e-34 6.87758e-36)
(16.0164 -9.99892e-34 8.72593e-36)
(17.6876 -8.58254e-34 7.48987e-36)
(15.724 -1.02467e-33 8.94216e-36)
(18.416 -7.96513e-34 6.95107e-36)
(16.4972 -9.5914e-34 8.37029e-36)
(17.1824 -8.99551e-34 7.85026e-36)
(15.4231 -1.05017e-33 9.16472e-36)
(18.713 -7.71343e-34 6.73141e-36)
(18.0591 -8.25667e-34 7.22468e-36)
(15.3991 -1.05221e-33 9.1825e-36)
(15.7499 -1.02247e-33 8.92299e-36)
(16.4175 -9.65894e-34 8.42923e-36)
(15.401 -1.05205e-33 9.18109e-36)
(16.6401 -9.4703e-34 8.26461e-36)
(17.1512 -9.03711e-34 7.88657e-36)
(19.0286 -7.44599e-34 6.49802e-36)
(18.8706 -7.57986e-34 6.61485e-36)
(18.6697 -7.75015e-34 6.76346e-36)
(17.6154 -8.64368e-34 7.54322e-36)
(15.238 -1.06586e-33 9.30163e-36)
(18.9984 -7.47154e-34 6.52031e-36)
(18.9763 -7.49032e-34 6.5367e-36)
(15.7884 -1.01921e-33 8.89453e-36)
(15.6643 -1.02973e-33 8.98632e-36)
(18.6563 -7.76153e-34 6.77339e-36)
(16.97 -9.19073e-34 8.02063e-36)
(15.4674 -1.04642e-33 9.13195e-36)
(15.5345 -1.04073e-33 9.08233e-36)
(18.6335 -7.78082e-34 6.79022e-36)
(16.3978 -9.67561e-34 8.44377e-36)
(17.7942 -8.49219e-34 7.41102e-36)
(17.9964 -8.32079e-34 7.26144e-36)
(19.0803 -7.40213e-34 6.45974e-36)
(15.7431 -1.02305e-33 8.92804e-36)
(17.7244 -8.5513e-34 7.46261e-36)
(17.8873 -8.41329e-34 7.34217e-36)
(15.8019 -1.01807e-33 8.88452e-36)
(18.8166 -7.62569e-34 6.65484e-36)
(17.5717 -8.6807e-34 7.57553e-36)
(15.2909 7.70354e-30 -6.72278e-32)
(18.6789 -7.74236e-34 6.75665e-36)
(15.9574 -1.00489e-33 8.76957e-36)
(16.516 -9.57543e-34 8.35635e-36)
(16.0083 -1.00058e-33 8.7319e-36)
(14.7482 -1.10737e-33 9.66387e-36)
(18.0086 -8.31047e-34 7.25244e-36)
(16.7249 -9.39838e-34 8.20184e-36)
(14.6907 -1.11224e-33 9.7064e-36)
(16.7296 -9.39443e-34 8.19839e-36)
(14.6453 -1.11609e-33 9.73996e-36)
(15.877 -1.01171e-33 8.82903e-36)
(18.926 -7.49332e-34 6.53932e-36)
(18.6945 -7.7291e-34 6.74508e-36)
(14.5893 -1.12084e-33 9.78139e-36)
(18.0976 -8.23503e-34 7.1866e-36)
(17.5738 -8.67899e-34 7.57404e-36)
(14.5438 -1.12469e-33 9.81506e-36)
(18.4725 -7.9173e-34 6.90932e-36)
(18.8933 2.03416e-30 -1.77519e-32)
(19.0269 -7.44746e-34 6.4993e-36)
(18.9719 -7.49406e-34 6.53997e-36)
(18.2642 -8.09386e-34 7.0634e-36)
(15.2446 -1.0653e-33 9.29675e-36)
(17.2776 -8.92996e-34 7.79306e-36)
(14.3181 -1.14383e-33 9.98201e-36)
(14.313 -1.14425e-33 9.98576e-36)
(18.4499 -7.93645e-34 6.92604e-36)
(15.346 -1.05671e-33 9.22173e-36)
(17.0681 -9.10753e-34 7.94802e-36)
(14.2502 -1.14958e-33 1.00322e-35)
(17.0915 -9.08773e-34 7.93074e-36)
(19.0124 -7.45967e-34 6.50996e-36)
(14.3466 -1.14141e-33 9.96089e-36)
(19.0019 0.539833 1.0842e-19)
(18.129 -8.20842e-34 7.16338e-36)
(18.9612 0.472074 2.1684e-19)
(18.9228 0.376811 1.6263e-19)
(19.0536 0.510893 2.1684e-19)
(16.5884 -9.51409e-34 8.30282e-36)
(19.1098 0.412133 -4.33681e-19)
(18.7477 0.540302 0)
(19.028 -7.44647e-34 6.49844e-36)
(18.8715 0.299322 0)
(18.8589 0.349425 5.42101e-20)
(18.4276 0.468381 0)
(18.752 0.310214 5.42101e-20)
(18.8185 0.211902 0)
(19.2356 0.152818 0)
(19.1355 0.120898 0)
(18.6817 0.228252 1.0842e-19)
(18.633 0.294173 5.42101e-20)
(18.5737 0.281293 -1.0842e-19)
(18.6674 0.195267 5.42101e-20)
(18.7997 0.267894 5.42101e-20)
(17.9501 0.438054 0)
(19.0164 0.0974041 0)
(18.0281 0.456417 -4.33681e-19)
(18.0756 0.401559 -1.0842e-19)
(18.1324 0.362608 0)
(18.9384 0.000675687 0)
(18.5516 0.176621 -5.42101e-20)
(19.0166 0.0258008 0)
(18.8783 0.0405904 2.11758e-21)
(18.4425 0.198028 5.42101e-20)
(18.4976 0.0957736 2.71051e-20)
(18.1013 0.240803 0)
(18.049 0.21335 5.42101e-20)
(18.2878 0.0848132 -1.35525e-20)
(17.8274 0.271903 0)
(17.613 0.333367 0)
(18.2103 0.000327871 0)
(17.8944 0.187442 -6.20452e-20)
(17.6442 0.284891 -1.6263e-19)
(17.6792 0.211651 0)
(17.7486 0.236111 0)
(17.1399 0.531464 0)
(17.907 0.23661 -2.71051e-20)
(17.5613 0.263164 5.42101e-20)
(18.1815 0.0163034 0)
(17.6428 0.250558 -2.1684e-19)
(18.0004 0.102529 -2.71051e-20)
(17.9298 0.0738919 -2.20229e-20)
(17.5678 0.187391 -1.0842e-19)
(17.4978 0.126755 5.42101e-20)
(17.5443 0.11159 -5.42101e-20)
(17.4366 0.132031 4.06576e-20)
(17.4594 0.111272 1.35525e-20)
(17.3204 0.154248 3.38813e-20)
(17.1462 0.227884 -1.0842e-19)
(17.1574 0.162281 -1.0842e-19)
(16.8999 0.279636 0)
(17.1272 0.151216 2.71051e-20)
(17.114 0.139899 5.42101e-20)
(16.9032 0.214793 0)
(17.2092 0.0733926 -2.71051e-20)
(17.0151 0.161177 0)
(17.1377 0.100584 2.03288e-20)
(16.9233 0.152875 1.0842e-19)
(16.6395 0.272713 -1.0842e-19)
(17.0767 0.0175241 1.35525e-20)
(16.7754 0.151862 1.0842e-19)
(16.3966 0.298632 -4.40457e-20)
(16.8379 0.0449665 0)
(15.9469 -1.00578e-33 8.77727e-36)
(16.5956 0.136371 0)
(16.2632 0.375913 0)
(16.264 0.328063 0)
(16.6006 0.085119 5.42101e-20)
(16.4047 0.183406 5.42101e-20)
(16.4984 0.105359 6.77626e-21)
(16.4316 0.160592 -8.13152e-20)
(16.2569 0.23019 5.42101e-20)
(16.3321 0.16113 0)
(16.3138 0.113899 0)
(15.9903 0.32125 -1.0842e-19)
(16.3074 0.0572431 0)
(15.976 0.289635 5.42101e-20)
(16.2511 0.0823497 -1.35525e-20)
(15.8845 0.351627 2.03288e-20)
(15.7893 0.410313 2.71051e-20)
(15.9672 0.194072 0)
(15.6841 0.340841 1.35525e-19)
(16.0996 0.0191666 3.38813e-21)
(15.9421 0.131738 0)
(15.9583 0.0127528 -3.38813e-21)
(15.7146 0.144488 0)
(15.7342 0.138267 0)
(15.5429 0.337913 9.48677e-20)
(15.6236 0.185195 0)
(15.6799 0.104849 1.35525e-20)
(15.6142 0.102053 -1.0842e-19)
(15.3253 0.330724 0)
(15.3826 0.248651 1.0842e-19)
(15.57 0.0207705 0)
(15.4966 0.0956153 1.35525e-20)
(15.4022 0.0823629 2.71051e-20)
(15.2419 0.24345 0)
(15.3561 0.083713 1.35525e-20)
(15.2982 0.181589 4.06576e-20)
(15.1259 0.286198 0)
(15.1939 0.19996 0)
(15.2919 0.0450717 -2.71051e-20)
(15.2254 0.0275387 -1.35525e-20)
(15.0009 0.182817 -1.0842e-19)
(14.9337 0.306278 5.42101e-20)
(14.9301 0.131679 1.35525e-20)
(14.8653 0.265378 0)
(14.8301 0.381774 1.0842e-19)
(14.8163 0.273149 0)
(14.7019 0.240519 0)
(14.639 0.594336 1.0842e-19)
(14.0996 -1.16234e-33 1.01436e-35)
(14.6618 0.0678346 2.03288e-20)
(14.61 0.0482628 -1.35525e-20)
(14.5038 0.0940972 0)
(14.3926 0.192728 0)
(14.3105 0.211639 0)
(14.3246 0.12851 0)
(14.3025 0.151057 5.42101e-20)
(14.1194 0.0368054 -1.35525e-20)
(14.1078 0.304158 0)
(20.8706 8.14928e-32 7.21448e-34)
(21.8563 -5.04944e-34 4.40658e-36)
(21.8103 -5.0884e-34 4.44058e-36)
(22.2837 -4.68723e-34 4.09048e-36)
(21.4912 -5.35883e-34 4.67658e-36)
(24.0996 -3.14818e-34 2.74738e-36)
(20.7093 3.96071e-28 -3.45646e-30)
(21.5587 -5.30169e-34 4.62671e-36)
(22.1766 -4.77795e-34 4.16965e-36)
(21.6417 -5.2313e-34 4.56528e-36)
(22.2625 -4.70514e-34 4.10612e-36)
(22.7619 -4.28191e-34 3.73676e-36)
(21.8073 -5.09094e-34 4.4428e-36)
(24.2879 -2.98859e-34 2.60811e-36)
(22.0728 -4.86592e-34 4.24643e-36)
(23.1003 -3.99513e-34 3.4865e-36)
(24.4156 -2.88036e-34 2.51365e-36)
(21.6219 4.32068e-25 -3.7706e-27)
(21.6767 -5.20162e-34 4.53939e-36)
(20.9642 9.94575e-30 -8.67953e-32)
(23.2411 -3.87578e-34 3.38234e-36)
(21.0806 -5.70686e-34 4.9803e-36)
(24.0297 -3.20745e-34 2.7991e-36)
(23.7528 -3.44215e-34 3.00392e-36)
(24.3809 2.08911e-32 -1.82314e-34)
(21.3356 -5.49073e-34 4.79169e-36)
(21.4922 -5.35805e-34 4.6759e-36)
(21.387 -5.44719e-34 4.75369e-36)
(23.9839 -3.24622e-34 2.83293e-36)
(21.3499 -5.47866e-34 4.78115e-36)
(20.4182 -6.2683e-34 5.47026e-36)
(21.9925 -4.93401e-34 4.30584e-36)
(22.649 -4.37764e-34 3.8203e-36)
(20.328 -6.34472e-34 5.53695e-36)
(23.3686 -3.76775e-34 3.28806e-36)
(23.3545 -3.77966e-34 3.29846e-36)
(21.5944 -5.27141e-34 4.60029e-36)
(23.7297 -3.46011e-34 3.02235e-36)
(22.5785 -4.43737e-34 3.87244e-36)
(23.8381 -3.36986e-34 2.94083e-36)
(23.2849 -3.83869e-34 3.34997e-36)
(23.1063 -3.99004e-34 3.48206e-36)
(23.9029 -3.31489e-34 2.89286e-36)
(21.4167 -5.42203e-34 4.73174e-36)
(24.269 -3.00464e-34 2.62211e-36)
(23.2969 -3.82848e-34 3.34106e-36)
(24.0149 -3.21994e-34 2.81e-36)
(20.9729 2.58583e-30 2.25763e-32)
(20.2204 -6.43593e-34 5.61655e-36)
(21.6214 -5.24849e-34 4.58029e-36)
(20.2089 -6.44565e-34 5.62504e-36)
(23.4627 -3.68797e-34 3.21844e-36)
(23.9741 -3.25452e-34 2.84018e-36)
(24.0213 -3.21459e-34 2.80533e-36)
(24.5008 -2.80818e-34 2.45066e-36)
(20.4381 -6.25138e-34 5.4555e-36)
(20.9271 -5.83695e-34 5.09383e-36)
(23.9385 -3.28474e-34 2.86655e-36)
(20.1074 -6.53165e-34 5.70008e-36)
(22.7691 -4.27581e-34 3.73145e-36)
(22.0003 -4.9274e-34 4.30008e-36)
(20.0952 -6.54199e-34 5.70911e-36)
(21.0881 -5.70049e-34 4.97474e-36)
(20.2126 -6.44256e-34 5.62233e-36)
(20.5432 -6.16229e-34 5.37775e-36)
(23.3755 -3.76187e-34 3.28293e-36)
(22.3201 5.64119e-32 -4.92299e-34)
(21.9477 -4.972e-34 4.339e-36)
(24.1601 6.59386e-29 -5.75437e-31)
(20.3406 -6.33402e-34 5.52761e-36)
(23.5377 -3.62438e-34 3.16295e-36)
(24.1543 -3.10185e-34 2.70694e-36)
(20.1843 -6.46647e-34 5.6432e-36)
(20.0272 -6.59968e-34 5.75946e-36)
(22.1052 -4.83848e-34 4.22248e-36)
(20.5596 -6.14839e-34 5.36562e-36)
(23.7738 -3.42434e-34 2.98838e-36)
(23.5444 -3.61872e-34 3.15801e-36)
(21.9645 -4.95772e-34 4.32654e-36)
(21.4635 -5.38231e-34 4.69707e-36)
(21.8499 -5.05487e-34 4.41132e-36)
(24.1306 -3.12194e-34 2.72447e-36)
(21.4157 -5.42282e-34 4.73243e-36)
(20.389 -6.29304e-34 5.49185e-36)
(20.0526 -6.57809e-34 5.74061e-36)
(22.5251 -4.48258e-34 3.91189e-36)
(21.8039 -5.09384e-34 4.44532e-36)
(21.6709 -5.20658e-34 4.54372e-36)
(22.5867 -4.43037e-34 3.86633e-36)
(19.9086 -6.70014e-34 5.84712e-36)
(24.305 -2.97408e-34 2.59544e-36)
(23.968 -3.2597e-34 2.8447e-36)
(21.4554 -5.38925e-34 4.70313e-36)
(23.2525 -3.86615e-34 3.37394e-36)
(19.9227 -6.6882e-34 5.83671e-36)
(24.259 -3.01308e-34 2.62948e-36)
(20.4455 -6.24509e-34 5.45001e-36)
(20.3682 -6.31066e-34 5.50723e-36)
(22.2999 -4.67347e-34 4.07848e-36)
(20.335 -6.33879e-34 5.53178e-36)
(21.6284 -5.24255e-34 4.57511e-36)
(22.8967 -4.16771e-34 3.63711e-36)
(24.022 -3.214e-34 2.80481e-36)
(22.3484 -4.63239e-34 4.04263e-36)
(20.8311 -5.91829e-34 5.16481e-36)
(19.8071 -6.78616e-34 5.92219e-36)
(22.7328 -4.30657e-34 3.75828e-36)
(23.6994 -3.48741e-34 3.04341e-36)
(21.3523 -5.47656e-34 4.77932e-36)
(19.8158 -6.77884e-34 5.91581e-36)
(20.3345 -6.33916e-34 5.5321e-36)
(24.0503 1.14598e-30 -1.00009e-32)
(21.293 -5.52688e-34 4.82323e-36)
(19.8536 -5.40249e-34 4.71468e-36)
(21.1478 -5.64987e-34 4.93057e-36)
(23.3271 -3.80291e-34 3.31875e-36)
(21.0957 1.35912e-20 -1.18608e-22)
(20.9557 -5.81268e-34 5.07265e-36)
(22.8199 -4.23274e-34 3.69385e-36)
(22.9659 -4.10902e-34 3.58589e-36)
(21.0582 -5.72582e-34 4.99685e-36)
(19.7388 -6.84409e-34 5.97274e-36)
(23.7965 1.43046e-20 -1.24834e-22)
(20.6134 -6.10285e-34 5.32588e-36)
(20.8878 -5.87023e-34 5.12288e-36)
(21.9395 -4.97893e-34 4.34504e-36)
(21.6241 5.17252e-26 4.51399e-28)
(19.6576 -6.91291e-34 6.03281e-36)
(23.17 -3.93607e-34 3.43496e-36)
(24.3125 -2.96779e-34 2.58995e-36)
(21.1711 -5.63013e-34 4.91334e-36)
(22.5402 -4.44014e-34 3.92666e-36)
(23.1311 -3.96904e-34 3.46373e-36)
(22.3066 -4.66783e-34 4.07356e-36)
(23.098 -3.99309e-34 3.48472e-36)
(22.0731 -4.86567e-34 4.24621e-36)
(22.4052 -4.58425e-34 4.00062e-36)
(21.5025 -5.3493e-34 4.66827e-36)
(20.2029 -6.45072e-34 5.62946e-36)
(19.7218 -6.85844e-34 5.98527e-36)
(22.9782 -4.09863e-34 3.57682e-36)
(19.5973 -6.96403e-34 6.07742e-36)
(21.6935 -5.18738e-34 4.52696e-36)
(21.9205 -4.99505e-34 4.35912e-36)
(22.8587 -4.19992e-34 3.66521e-36)
(20.6903 -6.03768e-34 5.26901e-36)
(19.5222 -7.02766e-34 6.13295e-36)
(19.5244 -7.0258e-34 6.13132e-36)
(19.5191 -7.03027e-34 6.13522e-36)
(22.1379 -4.81081e-34 4.19833e-36)
(21.6434 -5.22986e-34 4.56403e-36)
(20.329 -6.34385e-34 5.5362e-36)
(21.0246 -5.74085e-34 5.00996e-36)
(24.1293 -3.12186e-34 2.72441e-36)
(19.5741 -6.98362e-34 6.09451e-36)
(20.1931 -6.45901e-34 5.63669e-36)
(19.4631 -7.07774e-34 6.17665e-36)
(20.788 -5.95482e-34 5.19669e-36)
(19.4681 -7.07349e-34 6.17294e-36)
(21.4526 -5.39162e-34 4.70519e-36)
(22.5385 -4.42728e-34 3.86363e-36)
(22.1269 -4.82014e-34 4.20647e-36)
(23.9436 -3.28036e-34 2.86273e-36)
(22.5667 6.9698e-33 -6.08245e-35)
(22.9642 -4.11048e-34 3.58716e-36)
(19.4012 -7.13022e-34 6.22245e-36)
(20.4617 -6.2314e-34 5.43806e-36)
(22.3868 -4.59979e-34 4.01417e-36)
(21.2815 1.31379e-25 1.14653e-27)
(22.49 -4.51239e-34 3.9379e-36)
(19.8147 -6.77972e-34 5.91657e-36)
(22.4413 -4.55364e-34 3.9739e-36)
(23.3362 -3.79515e-34 3.31197e-36)
(21.5895 4.90397e-24 -4.27963e-26)
(20.7104 -6.02062e-34 5.25412e-36)
(23.2462 4.61741e-30 -4.02955e-32)
(19.3639 1.8055e-32 1.70064e-34)
(20.9478 -5.78405e-34 5.10937e-36)
(21.4346 8.9895e-26 -7.84502e-28)
(22.8674 -4.19249e-34 3.65873e-36)
(20.6817 -6.04492e-34 5.27532e-36)
(19.5551 -6.99973e-34 6.10857e-36)
(24.3042 -2.97476e-34 2.59604e-36)
(19.8477 -6.75029e-34 5.89089e-36)
(21.0504 -5.73245e-34 5.00263e-36)
(20.3891 1.10714e-27 9.6619e-30)
(22.3489 -4.63196e-34 4.04225e-36)
(22.6327 -4.3914e-34 3.83232e-36)
(22.3131 -4.66232e-34 4.06874e-36)
(21.7067 -5.17621e-34 4.51721e-36)
(20.817 -5.93025e-34 5.17525e-36)
(24.4083 -2.8866e-34 2.5191e-36)
(21.2139 -5.5939e-34 4.88172e-36)
(19.4777 -7.06534e-34 6.16583e-36)
(20.2269 -6.43039e-34 5.61171e-36)
(21.5508 1.8846e-33 2.57117e-35)
(20.0673 -6.56569e-34 5.72979e-36)
(19.2162 -7.28695e-34 6.35923e-36)
(22.8046 -4.24577e-34 3.70523e-36)
(19.3925 -7.13756e-34 6.22885e-36)
(24.2981 1.0636 4.33681e-19)
(21.6269 -5.24386e-34 4.57625e-36)
(22.1028 -4.84051e-34 4.22425e-36)
(19.179 -7.31855e-34 6.38681e-36)
(22.2824 -4.68828e-34 4.0914e-36)
(23.8642 0.622954 -2.1684e-19)
(19.5237 -7.02641e-34 6.13185e-36)
(24.444 0.211198 0)
(24.4407 0.192916 1.0842e-19)
(23.8249 0.586614 0)
(24.2186 0.274539 0)
(24.3897 0.209748 0)
(24.4255 0.0708009 0)
(23.1292 0.560133 0)
(24.4903 0.0187451 6.77626e-21)
(24.1999 0.191606 1.0842e-19)
(24.2017 0.0830303 5.42101e-20)
(24.2529 0.00537269 0)
(23.767 0.357325 0)
(23.236 0.601176 0)
(24.0236 0.305238 8.13152e-20)
(24.1588 0.000731351 -3.29857e-38)
(24.1661 0.191151 -4.06576e-20)
(24.3097 0.158894 4.74338e-20)
(24.205 0.10362 0)
(23.7011 0.335422 1.6263e-19)
(23.6641 0.353732 0)
(23.0887 0.523027 5.42101e-20)
(23.7965 0.177512 0)
(23.8084 0.155199 0)