/*--------------------------------*- C++ -*----------------------------------*\
  =========                 |
  \\      /  F ield         | OpenFOAM: The Open Source CFD Toolbox
   \\    /   O peration     | Website:  https://openfoam.org
    \\  /    A nd           | Version:  7
     \\/     M anipulation  |
\*---------------------------------------------------------------------------*/
FoamFile
{
    version     2.0;
    format      ascii;
    class       labelField;
    location    "0.7/lagrangian/reactingCloud1";
    object      origId;
}
// * * * * * * * * * * * * * * * * * * * * * * * * * * * * * * * * * * * * * //


2457
(
3957
3958
3959
3960
3961
3962
3963
3964
3965
3966
3967
3968
3969
3970
3971
3972
3973
3974
3975
3976
3977
3978
3979
3980
3981
3982
3983
3984
3985
3986
3987
3988
3989
3990
3991
3992
3993
3994
3995
3996
3997
2114
3282
3789
3848
3892
3893
3895
3896
3897
3898
3899
3900
3901
3902
3904
3903
3905
3906
3907
3908
3910
3909
3911
3912
3913
3914
3915
3916
3917
3918
3919
3920
3921
3922
3923
3924
3925
3926
3928
3927
3930
3929
3931
3932
3933
3934
3935
3936
3938
3937
3939
3941
3940
3942
3944
3943
3945
3946
3947
3948
3949
3950
3951
3952
3953
3954
3955
3956
3871
3873
3865
3868
3869
3877
3874
3878
3875
3870
3857
3881
3876
3884
3885
3883
3880
3888
3879
3887
3882
3889
3886
3890
3894
3891
3860
3863
3862
3861
3859
3866
3858
3867
3864
3872
3829
3840
3847
3845
3842
3836
3849
3837
3850
3854
3855
3853
3851
3856
3852
3501
3827
3825
3824
3806
3830
3831
3828
3835
3832
3809
3833
3826
3838
3839
3843
3834
3844
3841
3846
3770
3797
3796
3795
3798
3780
3781
3805
3803
3801
3800
3807
3773
3811
3808
3810
3813
3812
3816
3802
3817
3799
3804
3814
3823
3821
3819
3820
3719
3818
3822
3815
3057
3692
3740
3752
3741
3757
3744
3759
3760
3753
3755
3750
3763
3762
3756
3754
3761
3764
3769
3765
3736
3766
3767
3772
3775
3777
3779
3776
3768
3782
3785
3774
3784
3783
3790
3786
3787
3778
3788
3791
3793
3794
3731
3792
3771
3327
3390
3701
3702
3703
3691
3700
3695
3709
3669
3699
3686
3707
3713
3711
3706
3717
3710
3720
3715
3718
3712
3618
3716
3705
3725
3723
3728
3727
3721
3729
3730
3714
3734
3735
3732
3737
3738
3724
3739
3746
3742
3733
3747
3745
3704
3748
3726
3722
3749
3698
3743
3708
3751
3758
779
948
1376
2220
2814
2528
2260
2601
3256
2250
3457
3584
3543
3322
3616
3619
3623
3606
3633
3614
3630
3631
3617
3628
3597
3638
3627
3639
3640
3632
3629
3624
3634
3643
3645
3644
3641
3626
3648
3647
3650
3649
1674
3642
3636
3656
3635
3646
3655
3581
3657
3651
3659
3663
3664
3661
3654
3652
3666
3653
3667
3637
3662
3670
3658
3674
3680
3665
3671
3675
3682
3679
3668
3685
3684
3683
3678
3681
3676
3688
3689
3690
3677
3687
3694
3660
3672
3696
3673
3697
3693
152
293
646
731
862
60
1089
1107
1313
1234
1393
1616
1639
1766
1646
2152
2278
2302
2422
2389
2469
2549
2381
2240
2821
2829
2928
2617
3004
3096
3111
2157
2819
3460
3485
3484
3514
3507
3517
3551
3519
3545
3541
3553
3526
3534
3559
3535
3556
3547
3496
3542
3554
3566
3550
3558
3562
3528
3555
3540
3571
3565
3539
3557
3560
3570
3466
3515
3576
3580
3552
3573
3583
3574
3567
3578
3564
3572
3588
3569
3587
3590
3575
3548
3589
3568
3582
3596
3594
3592
3595
3598
3603
3480
3577
3579
3605
3585
3607
3609
3611
3586
3610
3563
3593
3533
3613
3615
3602
3604
3608
3591
3599
3612
3601
3621
3620
3600
3625
3622
3
119
71
202
416
474
488
578
692
781
871
951
1004
723
1046
1071
501
1097
1098
1103
1188
1216
1282
1302
1321
1338
1348
1403
1426
1445
1478
1525
1566
1617
103
1728
1882
1896
1899
1897
1992
1996
2011
2066
2078
2121
2138
2142
2197
2259
2269
2199
2396
2330
1515
2479
804
2526
2563
2587
2538
487
2689
1988
2764
2783
2801
2849
2948
3052
3079
2075
537
3166
3193
3194
1794
3288
3359
3388
3311
3397
3319
3326
3378
3389
3383
3351
3421
3386
3402
3398
3385
3371
3431
3426
3412
3423
3410
3411
3434
3304
3440
3354
3393
3415
3445
3427
3438
3448
3443
3437
3349
3439
3456
3428
3401
3453
3429
3444
3315
3454
3355
3452
3436
3463
3417
3464
3465
3447
3433
3468
3469
3459
3476
3449
3442
3458
3475
3462
3414
3478
3479
3474
3477
3467
3487
3481
3450
3495
3491
3488
3430
3483
3486
3473
3499
3489
3471
3461
3494
3470
3505
3482
3503
3472
3409
3498
3350
3441
3506
3516
3508
3512
3502
3510
3511
3513
3446
3455
3490
3524
3523
3504
3522
3525
3493
3497
3530
3532
3520
3500
3531
3527
3492
3521
3518
3451
1350
3544
3546
3538
3536
3529
3549
3537
3561
3509
24
29
36
20
57
83
128
115
140
184
190
213
303
273
310
331
269
373
441
471
469
497
588
510
582
662
665
677
703
736
223
743
771
647
770
823
846
812
880
914
906
927
936
926
989
1036
1029
1044
32
1055
150
1074
1102
1100
1131
1175
1204
1212
168
1288
1284
1125
1324
1357
1333
1359
1371
1353
1401
1441
1430
1420
1446
434
1461
1538
1510
1548
1554
1527
1594
1571
1581
1614
1613
1649
1645
1681
1708
1477
1689
1684
1736
1695
963
1779
1813
1791
1829
1867
1835
1891
1902
1927
1936
262
1944
1919
1934
1749
1955
1984
1991
2002
2017
2032
2068
2000
2039
2062
2103
2008
2118
2146
2189
2171
2195
1024
2228
2219
2262
2236
2294
2293
2298
2324
2319
2337
2342
2301
2373
1876
2358
2466
2436
2531
1050
561
1704
2564
2612
2575
2622
2631
2626
2590
1710
2670
466
2698
2695
2713
2765
2792
2793
2671
2774
2817
2797
2812
2843
2826
2874
2842
2861
2846
541
2921
2922
2907
2960
2944
2951
3025
3048
3090
3106
3074
3126
3119
3151
3153
3168
3181
3180
3154
3174
2143
3214
3224
3189
3246
3235
2619
3275
3204
3261
3225
3219
3222
3220
3260
3300
3245
3295
3274
3268
3303
3238
3218
3257
3308
3299
3296
3236
3287
3302
3272
3273
3276
3289
3247
3173
3312
3281
3176
3323
3283
3249
3306
3244
3172
3270
3286
3325
3258
3285
3317
3292
3321
3307
3328
3339
3290
3298
3313
3310
3335
3333
3320
3192
3158
3346
3232
1397
3338
3329
3280
3291
3324
3330
3352
3341
3314
3353
3254
3318
3342
3316
3360
3344
3277
3305
3345
3340
3358
3144
3332
3279
3309
3347
3361
3337
3343
3331
3375
3336
3370
3363
3384
3362
3374
3366
3278
3376
3356
3382
1637
3373
3380
3391
3294
3387
3392
3334
3372
3394
3255
3396
3367
3406
3348
3301
3413
3368
3293
3400
3399
3419
3420
3357
3369
3381
3395
3422
3379
3408
3365
3425
2877
3364
3405
3416
3377
3403
3432
3418
3424
3435
3407
3404
16
11
12
34
31
48
54
66
86
178
177
136
232
4
259
271
288
351
336
370
65
418
388
431
430
454
504
502
530
552
557
593
594
567
699
722
708
762
485
811
840
818
835
901
905
942
521
967
1009
1007
984
1021
1030
1114
1163
1166
1143
1161
1169
1150
1135
1200
1176
1129
1229
1224
1244
1281
267
1330
37
1378
1400
1416
1390
1396
1444
1457
674
1472
1464
1512
1549
1514
1597
1198
1628
1625
1635
1658
1676
1665
1685
1731
121
1551
1083
1748
1714
1756
1707
69
1750
1808
1797
1702
1814
1800
1834
1844
1822
1825
1877
8
1889
1915
1879
314
1957
1930
1964
2012
61
2021
264
2031
964
2141
2155
1382
2167
2073
2215
2237
2239
2222
2
2275
2223
2267
2257
2325
2345
2359
2226
2382
2364
787
2402
2392
2468
2421
2470
2497
2472
2501
2464
2517
2515
2510
669
1425
2507
2582
2556
2591
2592
2547
2593
2599
733
2625
2653
2627
2608
317
2673
2090
2712
2738
2740
374
2735
2045
2777
2818
2808
2795
2805
1784
2770
2822
1142
2802
2834
2751
1366
88
2905
2910
1459
2919
1210
2959
2895
2982
174
2989
3024
3043
3049
3042
3037
3038
3059
3036
1659
3039
2937
3087
2997
3093
2255
2991
3136
3073
3064
3077
3133
3083
3081
3128
3097
3124
3150
3141
3140
3132
3131
3127
3035
3101
3107
3078
3145
3129
3091
3148
3051
3116
3009
3157
3149
3130
3164
3138
3159
3086
3113
3076
3171
3102
3100
3053
3117
3061
3165
3121
3114
2990
3142
3155
3147
3108
3161
3134
3178
3156
3196
3186
3187
3118
3203
3202
3120
3146
3169
3199
3054
3179
3205
3206
3170
3125
3212
3163
3183
3207
3210
3201
3139
3109
3143
3162
3191
3185
3182
3160
3213
3184
3123
3195
3211
3188
3233
3217
3208
3240
3243
3198
3234
3227
3226
3167
3239
3209
3177
3228
3248
3017
3221
3237
3216
3250
3252
3135
3231
3197
3229
3175
3266
3152
3230
3265
3269
3264
3263
3253
3190
3271
3262
3259
3200
3284
3241
3223
3242
3251
3267
3215
998
3297
44
64
59
85
35
113
102
158
133
107
160
5
235
201
309
325
369
442
352
452
443
453
447
364
519
508
535
518
538
562
604
617
366
684
735
701
742
707
758
763
831
847
883
881
896
933
838
937
961
938
903
1001
934
982
987
996
1048
1038
1015
1094
556
1140
1164
1191
1178
1215
1149
1157
292
1276
1312
1286
1247
1356
1377
1259
1419
1306
1450
1458
1466
1452
1490
1468
1482
1535
1545
1585
1587
1558
1619
1544
1648
1634
1701
1652
1721
1678
1733
1709
1764
1781
1798
381
1799
1856
1818
1887
1802
1886
1842
1852
1893
1917
1860
1823
1951
1912
1973
1874
1985
1962
2001
2007
1998
2009
2019
188
2055
2105
2088
2131
2161
2188
2198
2179
2218
850
2256
2122
2183
2258
1977
2279
2274
2290
1346
2320
2315
2351
2357
2312
2361
2366
1719
2403
2431
2354
2379
1775
2483
2498
2438
1725
2522
2545
43
2576
2544
2465
2595
2633
2574
1590
2640
2609
2691
2607
2616
2707
2652
2701
2756
2308
2736
2784
1773
2768
2823
2855
2883
2887
2841
2720
2762
2854
2859
2755
2879
2901
2718
2891
2913
2752
2796
2894
2889
2810
2925
2710
2778
2934
2932
2918
2930
2775
2917
2923
2794
2935
2864
2911
2885
1987
2941
2920
2942
2940
2835
2939
2305
2866
2909
2742
2893
2931
2868
2702
2804
2953
2847
2958
2945
2924
2741
2926
2908
2949
2964
2969
2936
2867
2788
2892
2677
2900
2871
2983
2933
2970
2916
2897
2860
2956
2904
2890
2962
2950
2927
2986
2856
2963
2978
2967
2785
2952
2961
2947
2912
118
2825
2873
3002
2938
3006
2985
2884
2987
2975
2971
2881
2886
2965
2976
2996
2957
2954
2966
3000
2929
2790
2981
2972
3022
2998
2995
2979
2943
2968
2980
2872
3020
3018
3028
2915
3040
3016
3023
2992
1601
2984
3001
3045
3012
2006
2899
3031
2902
3003
3060
3029
3019
3014
3034
3056
3044
3010
2977
3005
3070
2875
47
3055
3066
2993
3069
3062
3041
3021
3026
2946
3085
3058
3068
3088
3007
3047
1421
3011
3084
3046
3105
3082
3099
2994
3089
2833
3094
3071
2974
3013
3092
3032
3015
3008
3067
3103
2988
89
3027
3072
3095
3098
3063
3110
3112
3122
3030
3104
2955
2999
3033
3050
3080
2973
3115
3065
2906
3137
3075
15
19
0
6
108
72
58
95
81
74
126
100
132
111
84
124
94
142
146
153
180
143
208
181
226
229
306
330
335
316
163
412
395
327
476
472
435
489
407
491
492
499
503
468
577
587
484
600
612
555
626
564
653
615
613
683
601
772
790
764
757
725
798
825
830
839
864
888
886
866
925
842
932
882
988
994
920
928
852
981
844
947
1076
1033
1023
1095
1145
1016
602
1118
1133
1099
1147
1152
1018
1199
1217
1219
1189
1196
1285
1325
1256
1257
1354
1352
1402
1379
1326
1433
1447
1413
1439
1460
1501
1504
1443
1467
1509
1493
1573
1588
1586
1423
1487
1479
1621
1627
1657
1679
1596
1697
1732
1647
1715
1762
1803
1669
1768
1836
365
1824
1849
1826
1851
1863
1146
1872
1880
1906
1953
1975
1970
1994
1976
2030
1812
2010
2029
2013
2065
2061
2129
2111
2112
2126
2057
2056
2137
2166
2160
2202
2177
2263
2186
2163
2245
2235
2350
2271
2134
2217
2295
1963
2232
2176
2164
2296
2253
2291
2318
2377
2251
2372
2334
2362
2335
2297
2233
2248
2380
2363
2135
2367
2391
2288
2369
2321
2404
2390
2309
2368
2387
2306
2327
2270
2347
2371
2394
2412
2415
2418
2427
2353
2425
580
2343
2349
2383
2384
2420
2213
2408
2398
2405
2416
2107
2406
2281
2352
2386
2443
2374
2336
2440
2446
2429
2451
2419
1082
1126
2458
2192
2388
2432
2430
2426
2328
2410
2457
2486
2453
2417
2439
2434
2474
2449
2435
2375
2314
1537
2450
2346
2400
2433
2471
924
2441
2480
2454
2493
2482
2489
2414
2378
2463
2437
2512
2147
2332
2407
2459
2424
2456
2490
2413
2506
2411
204
2452
2494
2365
2370
1290
2445
2428
2527
2503
2462
2409
2502
2208
2484
2516
2442
2376
2467
2448
2444
2509
2533
2488
2397
2476
2539
2520
2360
2481
2485
2504
2393
2521
2551
2307
2513
2565
2553
2542
2558
2495
2532
2395
2518
2552
2399
2473
2535
2477
2555
2492
2478
2447
2423
2496
2499
2460
2548
2568
2536
2580
2461
2348
2475
2557
2546
2401
2511
2455
2588
2597
2577
2505
2581
2579
2313
2534
2540
2606
2566
2525
2333
2569
2385
2560
2624
2570
2610
2529
1644
2585
2635
2583
2629
2586
2571
2523
2341
2605
2589
2500
2594
2618
868
2287
2611
2567
2628
2316
2630
458
2541
2543
2651
2487
2638
2661
2561
2620
2573
2644
2668
2550
27
2636
2621
2524
2656
2603
2530
2678
2613
2596
2519
2669
2660
2655
2657
2681
2675
2600
2634
2578
2643
2672
2667
2647
2491
2654
2703
2602
1638
2642
2584
2562
2664
2649
2705
2632
2717
2708
2514
2658
2694
2598
2688
2686
2734
2641
2680
2615
249
2676
2700
2715
2730
2659
2727
2623
2719
2716
2537
2746
2648
399
2690
2750
2723
2637
2726
2747
2662
200
2665
2645
2749
2724
2728
2693
2773
2729
2674
2722
2760
2766
2737
2781
2787
2697
2684
2767
2714
2559
2780
2711
2554
2732
2663
1949
2650
2725
2704
2721
2771
2772
2679
2682
2754
436
2508
2761
2733
2816
2614
2666
9
2731
2811
2840
2789
2739
2798
2706
2839
2803
2830
2813
2692
2646
2696
2832
623
2748
2782
2799
2806
2745
2779
2758
2759
2709
2786
2743
2815
2836
2820
2639
2838
2807
2683
2862
2852
2870
2809
2863
2763
902
2791
2685
2853
2824
2845
2687
2757
2851
2869
2800
2604
2180
2857
2827
2753
2831
2844
2828
2858
2865
2850
2876
2914
2878
2896
2903
2880
2572
2776
2882
2744
2898
2769
2699
2837
2848
2888
)


// ************************************************************************* //
