/*--------------------------------*- C++ -*----------------------------------*\
  =========                 |
  \\      /  F ield         | OpenFOAM: The Open Source CFD Toolbox
   \\    /   O peration     | Website:  https://openfoam.org
    \\  /    A nd           | Version:  7
     \\/     M anipulation  |
\*---------------------------------------------------------------------------*/
FoamFile
{
    version     2.0;
    format      ascii;
    class       Cloud<passiveParticle>;
    location    "0.7/lagrangian/reactingCloud1";
    object      positions;
}
// * * * * * * * * * * * * * * * * * * * * * * * * * * * * * * * * * * * * * //

2457
(
(0.275362 0.358124 0.318796 0.0477178) 2886 5661 1
(0.15822 0.419323 0.137917 0.28454) 2812 5514 1
(0.0737607 0.0531732 0.463685 0.409381) 2672 5371 2
(0.0660374 0.465846 0.142909 0.325207) 2626 5148 1
(0.0899587 0.453868 0.348413 0.10776) 2581 5057 1
(0.0402663 0.479332 0.308747 0.171655) 2457 4812 1
(0.328775 0.334039 0.148324 0.188862) 2388 4807 1
(0.387105 0.114371 0.306759 0.191764) 2359 4618 2
(0.2746 0.204576 0.363213 0.157612) 2259 4419 2
(0.817695 0.0442304 0.0465764 0.0914979) 2179 4257 2
(0.32707 0.336402 0.0343827 0.302145) 2091 4084 1
(0.127836 0.0239161 0.436308 0.41194) 1986 4009 2
(0.564869 0.217483 0.155767 0.0618821) 1937 3780 1
(0.49218 0.136476 0.254059 0.117284) 1861 3629 2
(0.157819 0.209928 0.210987 0.421266) 1778 3462 2
(0.25718 0.0999476 0.270463 0.37241) 1717 3340 2
(0.0206532 0.0350086 0.454404 0.489935) 1428 2767 2
(0.0843092 0.268626 0.460479 0.186586) 1512 3068 2
(0.180906 0.0444576 0.409937 0.364699) 1438 2921 2
(0.708323 0.145478 0.10147 0.0447296) 1366 2778 1
(0.289965 0.355017 0.0214719 0.333545) 1302 2519 1
(0.191145 0.404428 0.371956 0.0324719) 1256 2426 1
(0.326593 0.272389 0.336704 0.0643144) 1169 2255 2
(0.386197 0.241166 0.0657359 0.306902) 1115 2146 2
(0.281385 0.238953 0.359307 0.120355) 1024 1967 2
(0.357111 0.141272 0.180172 0.321444) 1007 1932 2
(0.0584927 0.240245 0.230509 0.470754) 924 1767 2
(0.321194 0.00767819 0.331659 0.339469) 825 1569 2
(0.100039 0.448095 0.241314 0.210552) 752 1424 1
(0.101632 0.014135 0.449291 0.434942) 613 1283 2
(0.187515 0.402427 0.404414 0.00564356) 627 1176 1
(0.296416 0.351327 0.052971 0.299286) 623 1168 1
(0.266938 0.365231 0.148257 0.219575) 555 1033 1
(0.418988 0.281512 0.269804 0.0296954) 529 982 1
(0.402441 0.0903303 0.206643 0.300586) 450 825 2
(0.151552 0.0947561 0.329468 0.424224) 358 643 2
(0.545916 0.222533 0.225478 0.0060736) 315 557 1
(0.275554 0.339878 0.223447 0.161121) 267 462 1
(0.0831647 0.222661 0.458418 0.235757) 148 228 2
(0.587175 0.0103999 0.196013 0.206413) 69 69 2
(0.24075 0.171222 0.208403 0.379625) 21 20 2
(0.121203 0.166035 0.273733 0.439029) 4697 9257 2
(2.4696e-05 0.0855649 0.414849 0.499562) 3264 313933 1
(0.114219 0.255383 0.443322 0.187076) 4081 8036 2
(0.13232 0.30774 0.123696 0.436244) 6191 12222 2
(0.504547 0.247514 0.025534 0.222405) 6332 12502 1
(0.483345 0.25838 0.24082 0.0174542) 5443 10740 1
(0.368662 0.0507499 0.316092 0.264496) 6263 12500 2
(0.629643 0.0686633 0.185959 0.115735) 6415 12802 2
(0.194246 0.305958 0.406435 0.0933618) 6348 12669 2
(0.262423 0.318236 0.371486 0.0478554) 6060 12097 2
(0.613814 0.192398 0.132654 0.0611339) 6280 12534 1
(0.357574 0.0449881 0.321076 0.276362) 5579 11010 2
(0.112302 0.437901 0.00962718 0.44017) 6219 12413 1
(0.163783 0.398246 0.0152322 0.422739) 6144 12129 2
(0.0899264 0.0829179 0.4561 0.371056) 6012 12002 2
(0.00065338 0.49511 0.440354 0.0638828) 6249 12473 1
(0.15924 0.421385 0.329776 0.0895984) 5513 10877 1
(0.471615 0.265185 0.0730473 0.190153) 5949 11745 1
(0.00951675 0.345835 0.151194 0.493455) 5958 11761 2
(0.123075 0.399492 0.0402739 0.43716) 5731 11310 2
(0.386682 0.287004 0.309473 0.0168407) 5592 11168 2
(0.0674192 0.247692 0.212406 0.472483) 5895 11635 2
(0.598778 0.19921 0.031117 0.170895) 5447 10880 1
(0.718186 0.123319 0.0179513 0.140544) 5310 10474 2
(0.0207438 0.215131 0.272159 0.491966) 5529 10908 2
(0.162652 0.355825 0.417615 0.0639089) 5384 10623 2
(0.013664 0.494091 0.305315 0.18693) 5479 10810 1
(0.0980553 0.449333 0.193386 0.259226) 5177 10209 1
(0.263212 0.166312 0.377634 0.192842) 5430 10847 2
(0.597363 0.201528 0.130458 0.0706508) 5347 10550 1
(0.350004 0.325696 0.0863197 0.23798) 5274 10405 1
(0.118497 0.288592 0.15298 0.439931) 5115 10087 2
(0.248712 0.374633 0.0930169 0.283638) 5122 10100 1
(0.418289 0.042383 0.24859 0.290739) 4973 9805 2
(0.0581253 0.232678 0.470304 0.238892) 4904 9670 2
(0.530744 0.234661 0.222636 0.0119589) 4913 9688 1
(0.273132 0.363144 0.0272488 0.336475) 4917 9693 1
(0.620049 0.188519 0.142711 0.0487204) 4847 9554 1
(0.453303 0.0884239 0.185151 0.273122) 4792 9446 2
(0.563296 0.218674 0.119579 0.0984511) 4877 9615 1
(0.18703 0.110772 0.408463 0.293735) 4663 9324 2
(0.0293289 0.25022 0.494959 0.225491) 4746 9489 2
(0.70386 0.147751 0.122871 0.0255178) 4584 9167 1
(0.675881 0.16214 0.0578023 0.104176) 4508 8884 1
(0.362854 0.317154 0.186625 0.133367) 4441 8883 1
(0.49211 0.247065 0.254076 0.0067492) 4295 8461 2
(0.727971 0.110247 0.0257535 0.136029) 4386 8640 2
(0.195932 0.328044 0.405188 0.0708353) 4231 8466 2
(0.0809993 0.239548 0.459811 0.219641) 4163 8199 2
(0.0054442 0.491124 0.0738484 0.429584) 4346 8560 1
(0.558266 0.220839 0.204182 0.0167138) 4112 8098 1
(0.467846 0.0617596 0.266849 0.203545) 3971 7950 2
(0.710468 0.143911 0.0395753 0.106046) 3746 7503 1
(0.308908 0.340713 0.00244763 0.34793) 3908 7825 1
(0.0722567 0.463032 0.241168 0.223543) 3754 7387 1
(0.0251468 0.4781 0.186525 0.310228) 3934 7742 1
(0.187976 0.196269 0.208079 0.407675) 3680 7237 2
(0.3038 0.347476 0.213481 0.135243) 3647 7175 1
(0.141381 0.428233 0.216058 0.214328) 3562 7006 1
(0.72743 0.0435662 0.136688 0.0923152) 3481 6977 2
(0.748282 0.125852 0.124551 0.00131448) 3409 6702 1
(0.893159 0.0519823 0.0538612 0.000997877) 3340 6697 2
(0.699994 0.149546 0.0585279 0.0919322) 3200 6284 1
(0.264528 0.336574 0.0295168 0.369381) 3225 6335 2
(0.522752 0.238076 0.116225 0.122948) 3140 6166 1
(0.0566046 0.469577 0.011281 0.462538) 3073 6035 1
(0.449329 0.274088 0.0823442 0.194239) 3027 5941 1
(0.807814 0.0402607 0.096434 0.0554909) 2932 5887 2
(0.0457426 0.477129 0.0806605 0.396468) 22746 44997 1
(0.165115 0.417443 0.264858 0.152585) 22481 44468 1
(0.558971 0.105093 0.115421 0.220514) 20772 41054 2
(0.489731 0.254373 0.0959222 0.159973) 19376 38266 1
(0.59899 0.103091 0.200505 0.0974146) 19097 37712 2
(0.320591 0.0266451 0.339705 0.31306) 19968 39451 2
(0.668169 0.165915 0.114553 0.0513625) 19391 38297 1
(0.16268 0.419537 0.214135 0.203648) 8401 16613 1
(0.13448 0.128451 0.432186 0.304882) 8037 15890 2
(0.29565 0.240735 0.112593 0.351022) 7552 14925 2
(0.561135 0.219667 0.171626 0.047572) 7413 14651 1
(0.149629 0.291542 0.135013 0.423816) 7713 15245 2
(0.0941892 0.45494 0.0343218 0.416549) 7487 14798 1
(0.527389 0.109178 0.125828 0.237605) 7369 14561 2
(0.242549 0.236678 0.37756 0.143213) 7376 14578 2
(0.553494 0.191039 0.0331634 0.222304) 7298 14421 2
(0.158925 0.0478119 0.4203 0.372963) 7286 14399 2
(0.447972 0.0979177 0.175765 0.278346) 7322 14468 2
(0.503846 0.247246 0.147518 0.10139) 7147 14255 1
(0.320509 0.341213 0.28557 0.0527089) 7095 14018 1
(0.347117 0.327239 0.173185 0.152458) 6876 13585 1
(0.0814817 0.459772 0.361562 0.0971836) 6747 13329 1
(0.302963 0.349383 0.163779 0.183874) 6739 13311 1
(0.111483 0.000906157 0.443357 0.444254) 6749 13331 2
(0.170519 0.270815 0.145345 0.41332) 6697 13228 2
(0.209486 0.221079 0.175342 0.394092) 6539 12914 2
(0.345902 0.235754 0.327049 0.0912948) 33360 66187 2
(0.437586 0.124057 0.290068 0.148289) 31986 63998 2
(0.314324 0.338654 0.251024 0.0959971) 31685 62840 1
(0.177764 0.411094 0.00185067 0.409292) 31677 62824 1
(0.121021 0.439489 0.426296 0.013193) 29149 57778 1
(0.155927 0.133941 0.424269 0.285863) 28057 56154 2
(0.237485 0.378042 0.334412 0.0500608) 28036 55555 1
(0.368307 0.162191 0.319373 0.150129) 27785 55611 2
(0.326135 0.335509 0.198854 0.139502) 26365 52776 1
(0.656068 0.126056 0.174592 0.0432837) 23599 47254 2
(0.132319 0.433841 0.116069 0.317771) 41694 82823 1
(0.295384 0.349417 0.323767 0.031432) 42540 84511 1
(0.118097 0.0242386 0.440952 0.416713) 42565 84564 2
(0.371736 0.284351 0.0267556 0.317157) 41990 83413 2
(0.495918 0.24987 0.015389 0.238823) 40588 81171 1
(0.0203781 0.489811 0.0593332 0.430478) 40305 80052 1
(0.200564 0.350812 0.0444085 0.404215) 40324 80087 2
(0.658572 0.170714 0.0599009 0.110813) 38632 76712 1
(0.774064 0.112625 0.0830867 0.030225) 38925 77851 1
(0.0537112 0.217432 0.255712 0.473144) 38672 76790 2
(0.355632 0.322184 0.279338 0.0428458) 38123 75694 1
(0.108637 0.445682 0.339389 0.106293) 36972 73396 1
(0.394229 0.301392 0.137122 0.167257) 36402 72814 1
(0.0439357 0.477687 0.0262049 0.452172) 35583 70622 1
(0.139333 0.391692 0.0386415 0.430333) 33891 67245 2
(0.00944388 0.421314 0.495278 0.0739637) 33897 67259 2
(0.258302 0.32045 0.37619 0.0450585) 52051 104056 2
(0.644507 0.176625 0.100937 0.0779314) 52037 103471 1
(0.318936 0.255176 0.082949 0.34294) 51749 102896 2
(0.111319 0.443222 0.125248 0.32021) 51189 101778 1
(0.0266094 0.486695 0.116185 0.37051) 51225 101851 1
(0.189043 0.00300274 0.405524 0.40243) 50095 100151 2
(0.519325 0.238562 0.0503383 0.191775) 49796 99554 1
(0.18409 0.331186 0.407955 0.076769) 49280 97970 2
(0.0574419 0.468204 0.203733 0.270621) 48690 97346 1
(0.0552916 0.445379 0.476129 0.023201) 46163 92301 2
(0.445657 0.00374255 0.277171 0.273429) 46444 92308 2
(0.249172 0.375414 0.287188 0.0882259) 46165 91749 1
(0.554847 0.222577 0.222489 8.78957e-05) 45340 90102 1
(0.321403 0.337179 0.211943 0.129475) 44778 88979 1
(0.47803 0.260985 0.242368 0.0186172) 44522 88469 1
(0.303417 0.259351 0.0889408 0.348292) 43933 87293 2
(0.0673405 0.104036 0.362294 0.46633) 43963 87353 2
(0.736833 0.0265697 0.104725 0.131872) 43665 86757 2
(0.804727 0.0315135 0.0983214 0.0654377) 43409 86803 2
(0.179738 0.407042 0.0734188 0.339801) 62629 125174 1
(0.0633461 0.340619 0.468327 0.127708) 62653 124668 2
(0.148922 0.0684306 0.356131 0.426516) 62648 124655 2
(0.173039 0.41348 0.163263 0.250217) 61799 122961 1
(0.49487 0.125895 0.125056 0.254179) 62086 123533 2
(0.28474 0.357316 0.311572 0.0463718) 59541 119009 1
(0.199613 0.130907 0.400193 0.269286) 60682 120733 2
(0.216581 0.0210235 0.370686 0.391709) 60426 120220 2
(0.222248 0.388876 0.176973 0.211903) 60127 119623 1
(0.108228 0.0470232 0.398411 0.446338) 60120 119608 2
(0.509151 0.121937 0.123488 0.245424) 58720 116814 2
(0.0707104 0.464645 0.0220576 0.442587) 59018 117409 1
(0.57332 0.21219 0.0920117 0.122478) 58738 116849 1
(0.0420131 0.317648 0.487817 0.152522) 58480 116891 2
(0.534564 0.232718 0.0863596 0.146359) 58186 115748 1
(0.128006 0.371432 0.0606135 0.439948) 57614 114605 2
(0.771282 0.00693235 0.114467 0.107318) 57350 114635 2
(0.317207 0.326886 0.344732 0.011175) 56775 113487 2
(0.242212 0.374103 0.0770751 0.306609) 56235 112409 1
(0.263997 0.367969 0.00368007 0.364354) 56210 111802 1
(0.76529 0.0813268 0.118919 0.0344643) 56240 112419 2
(0.776266 0.0652422 0.046625 0.111867) 55653 110691 2
(0.367917 0.313807 0.0679912 0.250285) 55374 110690 1
(0.263443 0.368279 0.266055 0.102223) 54255 107902 1
(0.503123 0.0430072 0.205431 0.248438) 54587 108563 2
(0.557525 0.198885 0.224162 0.0194277) 54279 108504 2
(0.0430033 0.475337 0.284521 0.197139) 54269 107927 1
(0.326128 0.163082 0.338975 0.171816) 53994 107935 2
(0.128576 0.389128 0.0433947 0.438902) 53973 107336 2
(0.637603 0.180437 0.119533 0.0624272) 53715 107378 1
(0.31099 0.343681 0.285969 0.0593604) 53441 106831 1
(0.123197 0.438401 0.235841 0.20256) 53429 106253 1
(0 0.690114 0.309886 1.21425e-73) 69379 541964 1
(0.585014 0.0097433 0.19775 0.207493) 72087 143500 2
(0.106495 0.446024 0.315134 0.132347) 71242 142369 1
(0.894622 0.0262777 0.0264115 0.0526892) 72704 144732 2
(0.031331 0.473817 0.484334 0.0105175) 71831 142991 2
(0.183312 0.256579 0.151765 0.408344) 72699 144722 2
(0.26072 0.0413872 0.369974 0.327919) 71270 142425 2
(0.256074 0.371963 0.145476 0.226487) 72421 144167 1
(0.176108 0.296641 0.415102 0.112149) 71843 143569 2
(0.148339 0.0104436 0.425831 0.415387) 72132 143592 2
(0.382266 0.308867 0.154376 0.154491) 71563 142456 1
(0.647391 0.175458 0.070522 0.106629) 70712 141311 1
(0.0462169 0.47006 0.28693 0.196793) 71870 143066 1
(0.205593 0.397204 0.378112 0.019092) 71581 142492 1
(0.267089 0.195796 0.366456 0.170659) 71281 141893 2
(0.390308 0.204776 0.10007 0.304846) 70714 140759 2
(0.372139 0.119721 0.193012 0.315128) 71003 141335 2
(0.755523 0.0910731 0.123349 0.0300548) 70733 141353 2
(0.0370944 0.481453 0.2412 0.240253) 70192 139717 1
(0.318512 0.123582 0.216078 0.341828) 69043 137422 2
(0.336847 0.0526531 0.278462 0.332038) 69043 137422 2
(0.714346 0.142308 0.053946 0.0894) 68770 136877 1
(0.607036 0.196482 0.17421 0.0222719) 67643 134630 1
(0.00487184 0.497564 0.0306508 0.466913) 68214 135768 1
(0.534746 0.232627 0.130636 0.101991) 68233 135806 1
(0.11403 0.189111 0.442985 0.253875) 67943 135229 2
(0.033589 0.191712 0.486892 0.287807) 67679 135256 2
(0.761408 0.0103528 0.119409 0.108831) 67380 134659 2
(0.576474 0.211763 0.11344 0.0983228) 65684 130717 1
(0.394359 0.300546 0.141335 0.16376) 66275 132453 1
(0.338811 0.330594 0.0741666 0.256428) 66000 131350 1
(0.242133 0.0668114 0.379481 0.311575) 65133 130173 2
(0.34349 0.187804 0.330253 0.138453) 65147 130201 2
(0.0409672 0.476381 0.144032 0.33862) 64862 129632 1
(0.133314 0.433343 0.0959029 0.33744) 65192 129737 1
(0.375741 0.198245 0.113885 0.31213) 65150 129651 2
(0.706777 0.146611 0.124176 0.0224357) 64307 127970 1
(0.606483 0.0860554 0.197602 0.10986) 64027 127965 2
(0.431768 0.0198639 0.284323 0.264045) 63751 127414 2
(0.344089 0.327955 0.270238 0.0577173) 63753 126864 1
(0.873758 0.0627299 0.025817 0.0376952) 63767 126889 1
(0.440993 0.277815 0.0877861 0.193406) 63774 126903 1
(0.472692 0.157198 0.263654 0.106456) 63181 125722 2
(0.223951 0.386515 0.235568 0.153966) 62912 125739 1
(0.246653 0.313948 0.0627262 0.376674) 62938 125235 2
(0 1.4228e-54 0.182879 0.817121) 79423 394616 2
(0 2.66582e-23 0.598633 0.401367) 73843 389036 2
(0.428887 0.0797243 0.285557 0.205832) 82461 164213 2
(0.344582 0.322648 0.253064 0.0797061) 82468 164224 1
(0.234361 0.38282 0.0467163 0.336103) 82184 163660 1
(0.0975862 0.451207 0.239973 0.211234) 81322 161939 1
(0.545697 0.0617496 0.164494 0.22806) 82179 163647 2
(0.505719 0.246417 0.178423 0.0694407) 81329 162507 1
(0.0408317 0.451614 0.391578 0.115976) 81649 162589 1
(0.281061 0.24467 0.359469 0.1148) 80480 160258 2
(0.36073 0.319635 0.118399 0.201236) 80770 160837 1
(0.762902 0.118382 0.017752 0.100965) 80487 160269 1
(0.369201 0.3154 0.257189 0.0582108) 80776 160849 1
(0.780204 0.0828616 0.11266 0.0242745) 80803 161457 2
(0.372733 0.276375 0.313634 0.0372588) 81075 161446 2
(0.671673 0.164163 0.0895858 0.0745775) 80777 160849 1
(0.611601 0.102668 0.219867 0.0658643) 80258 160369 2
(0.701001 0.1495 0.127554 0.0219459) 80238 159773 1
(0.570236 0.147295 0.220142 0.0623262) 79688 159231 2
(0.362742 0.154862 0.321996 0.160401) 79679 159213 2
(0.200986 0.334813 0.056722 0.407479) 79960 159217 2
(0.725748 0.137126 0.0419063 0.0952196) 79375 158050 1
(0.499903 0.250048 0.21054 0.0395083) 78236 155778 1
(0.13963 0.430185 0.221414 0.208771) 78530 156365 1
(0.303098 0.348451 0.0711153 0.277336) 78814 156932 1
(0.284279 0.352039 0.0260565 0.337625) 78558 156975 1
(0.0947485 0.452626 0.21138 0.241246) 78273 155850 1
(0.533529 0.233235 0.0276681 0.205567) 78286 155876 1
(0.319816 0.278813 0.0577932 0.343577) 78267 155837 2
(0.00976512 0.495117 0.162865 0.332253) 77695 154698 1
(0.846836 0.0131856 0.0633965 0.076582) 77996 155297 2
(0.447302 0.105743 0.276349 0.170606) 78003 155313 2
(0.102314 0.268474 0.178365 0.450846) 77124 153555 2
(0.168594 0.415703 0.274766 0.140937) 77463 154233 1
(0.0860403 0.32413 0.474987 0.114842) 77182 154228 2
(0.089169 0.455416 0.303594 0.151822) 77448 154203 1
(0.0888004 0.113433 0.4556 0.342167) 76890 153091 2
(0.478858 0.176857 0.083714 0.260571) 76033 151378 2
(0.834017 0.00910157 0.0738899 0.0829915) 75449 150212 2
(0.240634 0.37522 0.0627879 0.321359) 75761 151391 1
(0.701422 0.0100814 0.139208 0.149289) 75224 149763 2
(0.699273 0.0783617 0.0720017 0.150363) 75192 149699 2
(0.192321 0.401127 0.113626 0.292925) 74906 149684 1
(0.308966 0.33869 0.341364 0.0109809) 74935 149185 1
(0.216539 0.266737 0.121484 0.39524) 74921 149157 2
(0.0368338 0.481583 0.224519 0.257064) 74001 147321 1
(0.463297 0.204271 0.0606755 0.271756) 74650 148616 2
(0.288429 0.353761 0.0666629 0.291147) 74051 147977 1
(0.745591 0.127205 0.0546763 0.0725284) 73786 146892 1
(0.118759 0.44062 0.116319 0.324301) 73801 146922 1
(0.524658 0.237671 0.0931218 0.144549) 73517 146357 1
(0.203643 0.395618 0.124214 0.276525) 73232 146342 1
(0.442489 0.135553 0.141924 0.280034) 73232 145785 2
(0.242955 0.0507243 0.37904 0.32728) 72957 145793 2
(0.102812 0.335121 0.105095 0.456972) 72986 145294 2
(0 0.754853 0.245147 9.48782e-141) 90862 563447 1
(0 0.873099 0.126901 2.27959e-154) 90583 563168 1
(0 0 0.393535 0.606465) 88072 403265 2
(0 0 0.634832 0.365168) 87793 402986 2
(0 0.981431 0.0185687 4.42486e-89) 84724 557309 1
(0 0.785659 0.214341 9.60753e-156) 84166 556751 1
(0 1.11121e-154 0.512769 0.487231) 83887 399080 2
(0 0.47443 0.52557 8.42894e-155) 83608 556193 1
(0 0.805425 0.194575 6.56074e-150) 88351 560936 1
(0 2.57706e-154 0.788187 0.211813) 83329 398522 2
(0 0.982791 0.0172093 1.58204e-90) 86119 558704 1
(0 0.0261984 0.973802 4.6701e-71) 87793 560378 1
(0.20971 0.0018002 0.393345 0.395145) 91847 182949 2
(0.102895 0.306364 0.448553 0.142189) 92164 183584 2
(0.0228553 0.477717 0.0108553 0.488572) 91939 183133 2
(0.139114 0.0834678 0.431261 0.346157) 91927 183665 2
(0.225686 0.114417 0.388457 0.271439) 91934 183679 2
(0.425628 0.287186 0.170321 0.116865) 91360 181977 1
(0.0521384 0.473931 0.19543 0.278501) 91959 183173 1
(0.316873 0.341563 0.125816 0.215747) 91691 182640 1
(0.570884 0.213563 0.139955 0.0755973) 91383 182579 1
(0.125523 0.430585 0.399185 0.0447064) 91670 182595 1
(0.371505 0.0621518 0.314882 0.251461) 90813 181441 2
(0.556879 0.157716 0.0638448 0.22156) 91094 181446 2
(0.0686653 0.465667 0.317535 0.148132) 89953 179168 1
(0.747564 0.0493793 0.0758099 0.127247) 91396 182048 2
(0.26364 0.36818 0.121212 0.246967) 90250 179763 1
(0.170562 0.343832 0.065515 0.420092) 91109 181475 2
(0.167934 0.335449 0.416033 0.0805843) 91124 181508 2
(0.502039 0.164852 0.0841285 0.248981) 90260 179781 2
(0.124338 0.436929 0.382801 0.0559321) 90553 180922 1
(0.305863 0.0297254 0.347069 0.317343) 89976 179216 2
(0.277799 0.3611 0.21002 0.15108) 89407 178080 1
(0.40811 0.295945 0.271263 0.0246819) 90278 179817 1
(0.0530961 0.176478 0.479755 0.290671) 90290 180397 2
(0.0726519 0.292803 0.463674 0.170871) 90274 179811 2
(0.198518 0.400741 0.0288022 0.371939) 89993 179250 1
(0.0418933 0.478563 0.0549288 0.424615) 89412 178087 1
(0.329594 0.322697 0.00354245 0.344167) 90007 179275 2
(0.518779 0.240611 0.100759 0.139852) 89714 178693 1
(0.00650635 0.454133 0.0426141 0.496747) 89439 178142 2
(0.364928 0.0573093 0.260227 0.317536) 89437 178138 2
(0 0.643697 0.356303 0) 82771 555356 1
(0.298027 0.350986 0.223007 0.12798) 88016 175303 1
(0.00929043 0.175255 0.318792 0.496663) 88005 175278 2
(0.494759 0.249983 0.0474726 0.207785) 88901 177067 1
(0.54769 0.186755 0.227917 0.0376382) 88019 175863 2
(0.219692 0.390154 0.129981 0.260173) 88299 175866 1
(0.316668 0.341666 0.1197 0.221966) 88308 175884 1
(0.578021 0.210088 0.0570067 0.154884) 87150 174128 1
(0.743183 0.127451 0.0784847 0.0508808) 88032 175332 1
(0.0562366 0.471882 0.44946 0.0224215) 87466 174205 1
(0.336977 0.184504 0.331511 0.147007) 87758 174788 2
(0.62288 0.0915818 0.0969781 0.18856) 87778 174826 2
(0.472489 0.263756 0.162471 0.101284) 87489 174251 1
(0.153977 0.417802 0.0427044 0.385517) 87199 174226 1
(0.422042 0.288159 0.0754593 0.21434) 87190 173651 1
(0.609673 0.193973 0.10587 0.0904844) 87198 174224 1
(0.0156797 0.208266 0.273481 0.502573) 87504 174278 2
(0.161889 0.419056 0.413042 0.0060136) 86616 172506 1
(0.16341 0.418295 0.0234608 0.394834) 87227 173728 1
(0.0989749 0.447185 0.0478642 0.405976) 86338 172507 1
(0.616354 0.191071 0.0676613 0.124913) 86633 172539 1
(0.335498 0.331657 0.312651 0.0201944) 86661 173152 1
(0.170704 0.0194226 0.414855 0.395019) 86072 171976 2
(0.270097 0.364952 0.160666 0.204286) 85817 170913 1
(0.133688 0.433156 0.182931 0.250225) 85261 169803 1
(0.666167 0.0748974 0.167697 0.0912389) 84955 169746 2
(0.319362 0.340319 0.0675484 0.27277) 84958 169196 1
(0.0421945 0.478903 0.156104 0.322798) 84961 169202 1
(0.194968 0.143366 0.405273 0.256393) 84977 169790 2
(0.297788 0.244596 0.10651 0.351106) 84965 169210 2
(0.536279 0.231357 0.0593919 0.172972) 84666 168612 1
(0.137577 0.14781 0.276011 0.438602) 84993 169265 2
(0.0947889 0.358279 0.0868621 0.46007) 84979 169237 2
(0.557438 0.181375 0.225224 0.0359631) 84701 169239 2
(0.33295 0.183448 0.146801 0.336801) 84696 168672 2
(0.340114 0.329943 0.254007 0.0759363) 84392 168066 1
(0.0686208 0.164581 0.46569 0.301108) 84400 168084 2
(0.471515 0.263158 0.189398 0.075929) 84132 168103 1
(0.68986 0.15507 0.0988973 0.0561727) 84137 167559 1
(0.359318 0.312501 0.325224 0.00295669) 83855 167550 2
(0.31525 0.342375 0.0596365 0.282739) 83842 166970 1
(0.093473 0.453264 0.194818 0.258446) 83848 166982 1
(0.0522611 0.076095 0.479305 0.392339) 83601 167043 2
(0.130774 0.433801 0.316969 0.118456) 83257 166356 1
(0.591468 0.204266 0.12216 0.0821054) 83265 165818 1
(0.668326 0.141689 0.17056 0.0194251) 83314 166470 2
(0.022667 0.347631 0.13832 0.491382) 83265 165815 2
(0.381758 0.3083 0.265621 0.0443206) 83024 165891 1
(0.367063 0.144083 0.170489 0.318364) 83012 165310 2
(0 0.434091 0.565909 6.11935e-81) 101743 574328 1
(0 0.00155949 0.998441 1.73473e-155) 99232 571817 1
(0 0.373492 0.626508 6.28244e-67) 98674 571259 1
(0 0.546848 0.453152 1.78459e-132) 98953 571538 1
(0 3.94226e-154 0.168065 0.831935) 98395 413588 2
(0 2.45345e-57 0.753411 0.246589) 97279 412472 2
(0 4.52108e-154 0.746441 0.253559) 99232 414425 2
(0 1.0657e-155 0.18046 0.81954) 99790 414983 2
(0 1.03321e-80 0.225085 0.774915) 100627 415820 2
(0 1.23456e-153 0.977389 0.0226112) 96721 411914 2
(0 1.35392e-51 0.91507 0.0849301) 98674 413867 2
(0 1.05742e-106 0.149979 0.850021) 96721 411914 2
(0 3.6825e-117 0.307139 0.692861) 98674 413867 2
(0 0.610897 0.389103 7.62739e-118) 101464 574049 1
(0 7.59429e-107 0.560704 0.439296) 95884 411077 2
(0 0.164876 0.835124 2.64952e-80) 99232 571817 1
(0 0.233477 0.766523 1.24976e-154) 96163 568748 1
(0 1.36301e-153 0.585227 0.414773) 99232 414425 2
(0 0.200147 0.799853 2.27179e-143) 98953 571538 1
(0 0.290524 0.709476 1.474e-154) 102022 574607 1
(0 9.06467e-155 0.522147 0.477853) 98953 414146 2
(0 0.3133 0.6867 9.40943e-155) 100348 572933 1
(0 0.833229 0.166771 2.26134e-54) 94768 567353 1
(0 0.201566 0.798434 2.15219e-103) 94489 567074 1
(0.00025342 1.24558e-13 0.0696149 0.930132) 97837 413030 2
(0 1.71777e-154 0.462421 0.537579) 99511 414704 2
(0 1.88056e-153 0.843464 0.156536) 98953 414146 2
(0 1.27897e-46 0.511889 0.488111) 96163 411356 2
(0 0.0681732 0.931827 0) 93652 566237 1
(0 0.441113 0.558887 8.97445e-30) 97279 569864 1
(0 2.90053e-153 0.452317 0.547683) 94210 409403 2
(0 6.03175e-103 0.137807 0.862193) 93373 408566 2
(0 0.696793 0.303207 7.65696e-36) 93373 565958 1
(0 0.261654 0.738346 3.5809e-33) 97558 570143 1
(0.318137 0.340931 0.245429 0.0955021) 102171 203562 1
(0.218624 0.119969 0.391277 0.270131) 101641 203058 2
(0.140641 0.42968 0.428296 0.00138351) 101918 203057 1
(0.253107 0.294137 0.375334 0.0774216) 101944 203663 2
(0.389149 0.303249 0.0637962 0.243806) 101967 203709 1
(0.24069 0.376718 0.182891 0.199701) 101989 203753 1
(0.0240219 0.094632 0.393357 0.487989) 101983 203185 2
(0.1526 0.421292 0.379919 0.0461884) 100828 200878 1
(0.631457 0.183787 0.0610869 0.123669) 100844 200910 1
(0.00583875 0.493809 0.205875 0.294477) 101141 202060 1
(0.419146 0.289994 0.0493794 0.241481) 100850 200922 1
(0.313423 0.343288 0.278824 0.0644646) 100858 200941 1
(0.139741 0.420776 0.0466369 0.392846) 101723 203222 1
(0.615193 0.190868 0.0158282 0.178111) 100570 200920 1
(0.233631 0.383185 0.308573 0.0746116) 101439 202101 1
(0.338562 0.326375 0.173766 0.161298) 101445 202110 1
(0.900778 0.0494157 0.0406276 0.00917912) 99408 198043 1
(0.0823549 0.278921 0.176935 0.46179) 100859 200940 2
(0.766998 0.100188 0.0978765 0.0349371) 101741 202701 1
(0.305461 0.32523 0.357433 0.0118753) 101448 202673 2
(0.459598 0.270201 0.103906 0.166295) 100580 200386 1
(0.331268 0.107421 0.334366 0.226945) 100874 200973 2
(0.184038 0.407981 0.384573 0.0234076) 100883 200989 1
(0.408583 0.293678 0.227448 0.0702915) 100014 199253 1
(0.149097 0.166711 0.426611 0.257581) 99997 199776 2
(0.52697 0.0387181 0.236515 0.197797) 100021 199270 2
(0.0914014 0.450235 0.336425 0.121939) 100613 201006 1
(0.120446 0.140821 0.439777 0.298955) 100317 199861 2
(0.398662 0.300669 0.282547 0.0181216) 99177 197583 1
(0.330834 0.0676311 0.334583 0.266952) 99181 197593 2
(0.32693 0.336535 0.143789 0.192745) 99183 197595 1
(0.638789 0.00366284 0.176943 0.180606) 99477 198182 2
(0.525543 0.123503 0.11299 0.237965) 98311 195853 2
(0.338351 0.330218 0.0896127 0.241818) 98601 196432 1
(0.899224 0.0499931 0.0252689 0.0255138) 99201 197630 1
(0.12499 0.425033 0.437505 0.0124721) 99500 198230 2
(0.25471 0.0558237 0.373056 0.31641) 98048 195885 2
(0.541047 0.229379 0.221746 0.00782799) 98635 197057 1
(0.534081 0.232959 0.183199 0.0497601) 98932 197094 1
(0.570001 0.19792 0.0954443 0.136635) 98671 197129 1
(0.144583 0.427709 0.234199 0.193509) 97779 194794 1
(0.272664 0.363668 0.143996 0.219672) 98068 195369 1
(0.254704 0.0274349 0.372648 0.345213) 98357 195948 2
(0.151598 0.313011 0.106842 0.428548) 98080 195392 2
(0.191103 0.396858 0.318785 0.0932537) 98375 195981 1
(0.192269 0.126736 0.277129 0.403865) 97790 194814 2
(0.133488 0.101451 0.331805 0.433256) 98095 195423 2
(0.777928 0.086879 0.112645 0.0225479) 97810 195410 2
(0.322081 0.33743 0.180422 0.160067) 97221 193677 1
(0.25537 0.371322 0.164732 0.208576) 96639 192515 1
(0.30411 0.347945 0.183782 0.164163) 97530 194295 1
(0.404262 0.0260581 0.297869 0.271811) 97228 193694 2
(0.172313 2.3814e-31 0.560236 0.267451) 97558 412751 2
(0.667595 0.143093 0.0231097 0.166203) 97266 193768 2
(0.506037 0.167195 0.0797859 0.246981) 96968 193173 2
(0.0522308 0.03712 0.474373 0.436276) 96683 193160 2
(0.250038 0.283939 0.101855 0.364169) 96999 193791 1
(0.0819897 0.454515 0.260412 0.203083) 96972 193180 1
(0.0676245 0.46491 0.401047 0.0664182) 95859 191515 1
(0.471995 0.262738 0.0202469 0.24502) 94951 189702 1
(0.111513 0.0744017 0.368151 0.445934) 96141 191521 2
(0.20188 0.39906 0.338581 0.060479) 95266 189777 1
(0.114605 0.438996 0.246519 0.19988) 95579 190956 1
(0.458026 0.269939 0.108754 0.163281) 94970 189740 1
(0.0290979 0.32515 0.485451 0.160301) 95583 190410 2
(0.798401 0.0479687 0.0520036 0.101626) 95297 189836 2
(0.110445 0.436297 0.164917 0.288341) 95031 189862 1
(0.105424 0.446805 0.0444245 0.403346) 95002 189247 1
(0.345205 0.327397 0.193672 0.133725) 95035 189316 1
(0.502203 0.248653 0.208521 0.0406226) 94407 188616 1
(0.247517 0.228837 0.377811 0.145835) 94416 188634 2
(0.0747402 0.134513 0.46263 0.328117) 95017 189280 2
(0.53604 0.23198 0.0702943 0.161686) 94752 188749 1
(0.0674148 0.0032712 0.462935 0.466379) 94749 188742 2
(0.400781 0.297369 0.215136 0.0867144) 94442 188129 1
(0.29723 0.203282 0.354465 0.145023) 94177 188157 2
(0.672353 0.0599202 0.103903 0.163824) 94168 187583 2
(0.347056 0.326472 0.0971945 0.229277) 93871 186990 1
(0.325177 0.33624 0.22379 0.114793) 93883 187570 1
(0.275951 0.118153 0.241762 0.364134) 94182 187610 2
(0.0169646 0.487044 0.156023 0.339968) 93615 187035 1
(0.331948 0.32851 0.0857837 0.253759) 93630 187065 1
(0.131103 0.256339 0.438583 0.173975) 93342 186490 2
(0.114778 0.442004 0.399485 0.0437334) 93059 185925 1
(0.384437 0.15538 0.149812 0.310371) 92785 184821 2
(0.157487 0.246246 0.423992 0.172274) 92491 184791 2
(0 2.093e-27 0.613769 0.386231) 111508 426701 2
(0 0.148909 0.851091 1.35437e-101) 110671 583256 1
(0 0.656349 0.343651 1.67632e-154) 106765 579350 1
(0 3.7856e-154 0.432497 0.567503) 109834 425027 2
(0 0.8111 0.1889 2.68702e-155) 107881 580466 1
(0 6.80561e-19 0.444595 0.555405) 106486 421679 2
(0 4.68988e-95 0.0509379 0.949062) 110950 426143 2
(0 1.7134e-94 0.110283 0.889717) 106207 421400 2
(0 8.94162e-81 0.466219 0.533781) 109276 424469 2
(0 0.889221 0.110779 1.00305e-136) 105649 578234 1
(0 0.618118 0.381882 6.38109e-154) 110671 583256 1
(0 2.08883e-80 0.390026 0.609974) 107044 422237 2
(0 3.3968e-34 0.0457736 0.954226) 108439 423632 2
(0 0.951726 0.0482735 3.43511e-154) 105091 577676 1
(0 0.6193 0.3807 5.20126e-154) 111229 583814 1
(0 0.0243842 0.975616 2.45487e-34) 109834 582419 1
(0 9.70281e-81 0.883301 0.116699) 104812 420005 2
(0 0.711829 0.288171 1.33545e-48) 105649 578234 1
(0 0.152722 0.847278 4.81829e-154) 106765 579350 1
(0 9.852e-95 0.896415 0.103585) 104812 420005 2
(0 1.52692e-153 0.362601 0.637399) 107323 422516 2
(0 0.165463 0.834537 4.33223e-76) 108160 580745 1
(0 0.498573 0.501427 1.87545e-66) 111787 584372 1
(0 0.559787 0.440213 2.05764e-136) 111508 584093 1
(0 0.910717 0.0892831 3.59205e-78) 111229 583814 1
(0 0.0214775 0.978523 1.09728e-117) 108997 581582 1
(0 0.222853 0.777147 2.78586e-155) 104533 577118 1
(0 4.94895e-153 0.298973 0.701027) 111787 426980 2
(0 8.85414e-153 0.150141 0.849859) 111787 426980 2
(0 0.44851 0.55149 5.49049e-155) 105649 578234 1
(0 0.298139 0.701861 2.81503e-153) 105370 577955 1
(0 1.00802e-153 0.998987 0.00101326) 110950 426143 2
(0 0.395453 0.604547 5.09835e-66) 107881 580466 1
(0 0.647881 0.352119 7.35832e-94) 105091 577676 1
(0 0.187693 0.812307 5.38122e-156) 105091 577676 1
(0 0.15413 0.84587 1.24401e-136) 110950 583535 1
(0 3.7556e-98 0.713209 0.286791) 106765 421958 2
(0 1.16198e-153 0.186796 0.813204) 109555 424748 2
(0 0.447458 0.552542 5.86219e-154) 109834 582419 1