/*--------------------------------*- C++ -*----------------------------------*\
  =========                 |
  \\      /  F ield         | OpenFOAM: The Open Source CFD Toolbox
   \\    /   O peration     | Website:  https://openfoam.org
    \\  /    A nd           | Version:  7
     \\/     M anipulation  |
\*---------------------------------------------------------------------------*/
FoamFile
{
    version     2.0;
    format      ascii;
    class       scalarField;
    location    "0.7/lagrangian/reactingCloud1";
    object      pressure;
}
// * * * * * * * * * * * * * * * * * * * * * * * * * * * * * * * * * * * * * //


2457
(
592.153
591.546
589.957
589.931
589.652
586.256
585.075
588.152
584.878
580.969
586.69
582.849
585.113
584.081
581.546
582.731
581.066
582.503
581.947
581.751
582.17
583.408
582.504
583.125
582.392
583.653
583.375
582.726
582.745
582.869
582.942
582.904
582.945
583.291
583.21
583.07
583.186
583.202
583.115
583.128
583.146
604.224
601.556
601.91
596.583
592.84
604.847
594.43
588.458
589.689
597.97
591.016
604.23
591.103
593.429
594.81
588.557
604.282
594.939
593.807
599.742
601.486
594.172
604.236
604.984
600.918
603.478
598.551
604.686
597.502
598.838
599.642
603.492
602.237
604.655
604.729
603.093
602.468
602.716
600.992
599.453
600.203
599.184
601.253
602.009
601.764
602.266
600.288
601.866
601.725
598.45
599.795
599.877
601.922
599.075
600.84
597.398
601.569
596.902
598.05
599.765
600.273
600.067
600.228
595.247
596.782
595.696
593.228
594.417
465.063
472.198
465.654
486.787
493.036
500.257
500.889
512.893
527.051
555.16
562.096
544.564
557.288
559.439
558.666
562.528
564.96
560.266
570.748
569.773
579.284
581.668
583.349
581.279
580.527
587.68
368
379.727
380.838
380.039
393.383
413.584
410.001
416.87
427.274
459.988
80.105
299.833
335.616
336.031
321.008
240.605
338.608
272.019
341.509
342.164
343.847
347.537
325.113
353.886
340.668
361.997
331.823
331.412
291.692
261.305
332.071
332.393
301.237
332.599
332.666
202.603
243.767
244.799
333.772
332.751
334.218
252.913
334.539
334.66
334.866
229.224
328.421
328.36
313.522
328.23
12.2967
309.668
329.013
325.771
265.058
202.157
329.331
329.373
329.632
329.712
324.604
330.005
316.373
330.401
224.578
330.406
241.908
243.042
199.333
331.006
331.084
330.47
331.088
150.2
331.188
331.367
329.217
327.394
5.93155
1.62552
327.107
152.524
327.046
124.602
327.094
264.778
324.875
256.75
124.907
327.176
327.092
229.499
144.455
240.185
317.978
327.311
177.2
177.2
239.451
126.547
262.528
327.473
323.703
327.57
296.957
58.65
327.585
327.769
139.568
298.477
232.969
327.929
320.269
270.042
259.719
295.178
313.497
328.162
328.185
153.715
276.753
328.364
326.774
327.043
318.485
326.1
323.326
173.699
306.503
222.374
326.707
140.483
217.512
189.977
260.651
326.718
326.559
267.859
326.747
326.631
326.759
326.631
326.683
223.002
54.4121
165.661
202.553
326.244
321.308
326.778
289.076
182.936
324.669
326.679
82.1836
326.849
326.862
326.811
326.843
286.101
72.6612
323.594
326.958
257.403
198.982
326.943
317.686
0.492786
326.692
47.1444
167.262
298.121
256.726
204.175
204.175
241.27
327.095
326.562
326.565
326.597
326.601
326.645
326.654
326.659
326.665
326.594
326.671
326.622
326.601
1.16368
11.5953
227.685
164.915
201.348
119.037
322.109
326.447
240.741
283.047
178.572
188.321
58.4678
309.529
153.43
269.473
324.912
207.117
283.399
180.964
122.697
305.785
326.123
284.864
275.125
149.911
325.074
276.566
300.09
289.301
326.682
147.198
85.5789
326.552
164.002
168.938
219.766
14.5457
238.293
193.909
269.241
326.368
320.137
266.118
212.303
260.07
326.565
120.846
326.591
126.965
220.336
326.409
204.34
325.008
325.993
202.037
220.802
239.787
323.214
265.37
141.118
326.627
324.992
325.615
320.188
172.563
223.07
295.478
319.159
308.362
225.406
264.887
326.662
55.5663
104.925
326.635
104.925
325.151
276.259
325.237
326.037
326.134
326.088
326.176
326.306
326.037
325.919
325.688
326.354
326.134
326.354
326.134
325.369
326.411
326.037
326.394
326.037
326.088
325.079
326.088
325.774
326.467
326.478
326.247
325.982
326.088
326.394
326.506
326.306
326.488
326.513
326.513
326.278
4.38961
14.9985
13.9539
45.0633
112.792
210.697
182.502
44.3247
89.0572
163.651
112.027
146.604
274.646
108.73
252.29
281.082
12.1427
151.149
325.017
295.063
152.376
221.861
265.171
118.715
58.1584
150.174
308.048
229.704
121.387
139.649
149.018
219.634
30.8128
55.2121
235.577
320.652
71.0049
199.573
285.734
325.987
112.118
158.444
205.738
216.777
293.486
164.463
290.228
262.292
113.708
32.4834
258.76
147.203
326.278
321.861
241.665
213.316
326.32
261.565
282.31
12.3192
295.632
109.556
278.699
42.2739
298.474
264.81
321.297
185.397
325.068
29.8288
54.3974
261.049
321.817
314.684
177.391
249.532
203.587
113.152
174.261
275.526
231.303
307.94
263.932
244.12
271.99
194.25
185.178
202.097
292.965
220.635
267.786
298.346
196.27
303.188
233.759
311.049
202.097
287.129
254.153
316.501
190.629
220.635
318.46
311.049
292.965
318.46
280.93
260.999
179.915
185.178
190.629
240.493
320.015
179.915
179.915
311.049
314.056
196.27
267.786
316.501
316.501
196.27
292.965
227.132
220.635
179.915
311.049
233.759
227.132
311.049
185.178
240.493
318.46
190.629
307.432
287.129
303.188
322.966
220.635
280.93
322.966
280.93
323.572
307.432
185.178
190.629
323.572
214.289
240.493
324.028
202.097
185.178
179.915
179.915
208.106
320.015
254.153
324.381
324.381
202.097
318.46
260.999
324.661
260.999
179.915
324.381
16.9673
214.289
25.4404
43.0029
20.0108
280.93
35.6225
16.4175
179.915
65.5277
49.6823
25.041
61.4518
97.9773
121.143
135.666
93.2092
67.6615
72.4538
107.354
76.9528
29.5257
151.218
26.3469
37.1022
47.0854
185.178
117.667
177.553
177.77
107.929
164.812
90.8343
104.925
176.377
78.2993
55.0365
214.289
121.06
73.1256
107.33
95.5884
14.0779
94.6845
83.3678
212.701
89.0077
172.504
190.138
124.351
163.292
176.362
162.849
179.665
149.143
104.388
144.971
77.0798
154.788
161.537
113.641
211.86
150.474
193.683
153.837
82.4063
257.944
159.729
70.0707
248.531
307.432
173.272
41.0568
56.6497
216.586
142.009
203.854
159.892
108.304
159.892
199.032
60.405
254.558
75.3815
232.445
47.9881
30.3655
137.245
51.0375
295.703
191.797
305.166
182.124
190.532
52.7116
148.538
224.466
229.008
56.4553
102.514
307.54
237.015
254.441
106.783
254.441
156.775
79.8721
142.942
291.505
310.301
161.282
67.6603
212.676
92.6192
35.1296
87.1804
113.791
4.69294
324.891
284.78
306.572
259.107
159.08
141.806
228.261
206.86
319.114
71.4917
130.2
110.316
110.316
103.284
118.187
81.6011
133.509
115.463
105.542
115.463
103.284
96.9825
110.316
80.1611
107.885
93.1418
78.7668
115.463
112.841
127.02
91.3199
123.961
83.0888
86.2158
78.7668
121.018
118.187
118.187
83.0888
118.187
140.529
107.885
99.0077
140.529
89.5601
89.5601
115.463
86.2158
99.0077
84.6263
91.3199
93.1418
84.6263
118.187
80.1611
91.3199
83.0888
127.02
144.253
115.463
144.253
87.8597
83.0888
83.0888
78.7668
140.529
127.02
83.0888
148.127
96.9825
107.885
148.127
123.961
144.253
136.95
89.5601
103.284
107.885
81.6011
140.529
87.8597
81.6011
144.253
148.127
105.542
136.95
84.6263
87.8597
107.885
118.187
110.316
81.6011
118.187
140.529
148.127
101.107
110.316
112.841
99.0077
152.158
80.1611
83.0888
118.187
91.3199
152.158
80.1611
140.529
140.529
103.284
140.529
115.463
95.0283
83.0888
103.284
130.2
156.35
96.9825
86.2158
118.187
156.35
140.529
83.0888
121.018
152.158
123.961
89.5601
123.961
127.02
96.9825
95.0283
123.961
156.35
84.6263
133.509
130.2
110.316
115.463
160.708
91.3199
80.1611
123.961
101.107
93.1418
103.284
93.1418
107.885
101.107
115.463
144.253
156.35
95.0283
160.708
112.841
110.316
95.0283
133.509
165.24
165.24
165.24
105.542
115.463
140.529
127.02
81.6011
160.708
144.253
165.24
130.2
165.24
118.187
101.107
105.542
83.0888
99.0077
95.0283
165.24
136.95
103.284
121.018
101.107
156.35
101.107
89.5601
115.463
133.509
91.3199
169.949
127.02
118.187
95.0283
133.509
160.708
80.1611
156.35
123.961
140.529
103.284
99.0077
103.284
112.841
130.2
78.7668
121.018
165.24
144.253
115.463
148.127
174.839
96.9825
169.949
0.775876
115.463
105.542
174.839
103.284
16.074
165.24
61.9227
64.1833
19.1604
54.2224
62.4936
76.5807
20.3932
78.5835
66.4496
78.2468
80.1442
44.2328
17.1543
50.7849
81.6011
66.4496
69.441
75.0969
47.6502
45.0967
24.2538
70.1069
73.1042
81.1882
45.4662
43.1708
84.6979
86.1495
36.7882
86.2158
47.1803
65.3448
62.4196
48.5566
25.9235
41.2378
64.6034
87.7902
19.5332
63.8545
86.9215
32.8382
92.5532
69.9699
88.5289
95.0283
60.6115
90.7598
75.8666
68.4884
46.2877
96.6746
91.8982
33.9829
42.5724
91.5767
56.793
174.839
90.1872
81.3691
57.4178
46.578
78.0504
73.6781
96.046
90.3173
89.5054
101.617
56.832
94.7801
105.431
40.0272
98.6645
90.9144
61.8638
66.6587
59.0654
63.187
107.033
9.34021
59.9911
62.3868
63.9081
90.0814
103.192
108.482
107.422
109.999
103.641
105.66
115.407
87.6067
119.877
63.9442
119.877
56.1581
27.5564
110.567
99.0112
110.903
174.839
99.7446
121.605
119.992
48.01
129.216
123.038
60.2976
94.139
123.608
33.0257
120.472
104.147
132.905
83.1185
73.9019
140.297
111.805
22.5545
129.275
112.343
146.743
152.068
63.2488
89.083
63.2488
141.169
139.859
91.2738
122.057
43.3654
124.361
174.839
16.6417
45.3546
138.576
89.0698
113.416
165.24
120.982
169.148
169.148
115.287
92.832
62.251
65.0003
57.3822
53.2022
65.9695
58.141
48.3713
51.9281
66.967
63.142
66.967
53.2022
58.9198
67.9939
67.9939
58.9198
65.9695
55.9216
50.7021
55.218
67.9939
66.967
65.0003
60.5406
53.8592
59.7194
58.141
60.5406
61.3842
55.9216
52.5587
63.142
63.142
61.3842
55.218
48.3713
50.7021
59.7194
70.1403
50.1052
69.0513
66.967
53.8592
60.5406
48.9404
48.9404
70.1403
52.5587
61.3842
50.7021
65.9695
51.9281
61.3842
51.3095
64.058
56.6428
51.3095
54.5309
48.3713
65.9695
51.9281
60.5406
55.9216
55.9216
53.2022
66.967
64.058
55.218
71.2624
66.967
71.2624
71.2624
70.1403
62.251
69.0513
54.5309
56.6428
66.967
71.2624
60.5406
48.9404
65.9695
51.9281
59.7194
62.251
72.4187
66.967
61.3842
54.5309
65.9695
71.2624
64.058
53.8592
60.5406
72.4187
72.4187
72.4187
48.9404
72.4187
49.5182
71.2624
72.4187
69.0513
55.218
69.0513
59.7194
72.4187
60.5406
48.3713
50.7021
71.2624
57.3822
63.142
73.6108
48.9404
48.3713
54.5309
73.6108
51.3095
58.141
49.5182
51.9281
73.6108
51.3095
73.6108
55.218
73.6108
72.4187
63.142
51.9281
52.5587
62.251
55.218
70.1403
53.8592
61.3842
74.84
59.7194
74.84
73.6108
63.142
52.5587
59.7194
69.0513
74.84
62.251
53.2022
74.84
70.1403
55.9216
59.7194
54.5309
73.6108
70.1403
49.5182
51.3095
71.2624
72.4187
65.0003
63.142
74.84
74.84
54.5309
51.9281
52.5587
65.9695
55.9216
64.058
61.3842
60.5406
76.108
49.5182
53.8592
67.9939
51.3095
76.108
50.1052
76.108
63.142
66.967
61.3842
76.108
63.142
76.108
64.058
66.967
52.5587
58.141
58.9198
76.108
57.3822
55.9216
76.108
58.141
67.9939
54.5309
76.108
76.108
76.108
53.2022
56.6428
66.967
77.4164
71.2624
67.9939
64.058
77.4164
61.3842
57.3822
50.7021
56.6428
76.108
58.9198
65.0003
53.8592
52.5587
77.4164
3.04713
6.43239
73.6108
10.4164
4.49626
0.480891
4.01733
66.967
40.6054
30.4938
31.4345
53.2022
45.3822
48.3713
46.322
41.2126
48.0646
42.877
44.9496
48.9404
19.2142
42.6253
16.8948
10.3505
33.1656
38.4947
48.1738
48.8998
42.2133
34.1594
49.3055
25.2146
45.4742
33.1656
49.7708
44.6033
76.108
58.9198
49.8559
61.3842
16.9694
38.5029
42.0709
50.2291
36.2386
23.3889
38.7215
47.6144
21.0994
46.3684
36.0361
28.3284
33.735
37.8462
8.68698
46.9171
48.0626
28.969
27.7589
48.8853
54.7932
54.9399
54.8704
52.1683
6.74514
55.9216
56.5615
48.5014
26.8518
51.8082
54.6091
13.0411
57.2983
56.0027
53.1535
55.6312
41.0918
44.6981
36.7736
42.2419
49.4711
57.5498
46.5707
58.6664
0.480898
51.5073
47.3694
55.0763
45.1683
58.3039
50.8827
56.5409
41.1051
18.5679
56.9853
56.2326
22.3255
60.7243
62.2214
56.9226
71.2624
63.079
42.225
62.38
59.4891
64.7586
45.0234
62.8539
60.5672
37.8571
56.3562
65.6748
25.7392
51.7056
70.1403
54.0939
64.5914
68.0125
15.8439
53.2373
39.5895
38.3574
32.3592
65.7603
11.8453
62.2116
70.1403
67.072
71.9977
70.855
66.3299
64.3251
68.1129
72.4187
65.9454
31.5874
74.5964
72.9095
62.7964
53.2776
76.0594
49.3598
52.6381
77.4164
77.2408
41.5535
32.7634
36.2535
34.4493
41.5535
40.0726
34.015
41.0574
43.5655
35.7938
43.5655
44.5933
39.584
32.7634
38.1356
41.0574
31.9773
41.0574
36.2535
37.6593
32.7634
33.1714
34.015
34.8911
42.0521
37.6593
40.5638
35.3394
38.1356
35.7938
37.1867
32.3654
45.1143
40.0726
36.7179
37.1867
31.9773
33.1714
34.4493
39.584
34.8911
34.015
42.5534
37.6593
37.6593
31.5993
34.015
33.5888
41.0574
41.5535
42.0521
44.0772
31.5993
31.9773
32.7634
39.0982
36.2535
31.5993
35.7938
37.6593
38.1356
38.6153
32.3654
43.5655
32.7634
36.2535
34.015
37.1867
45.6408
41.0574
39.0982
40.5638
34.4493
44.0772
39.584
41.0574
32.3654
32.7634
33.1714
42.0521
35.7938
33.1714
42.0521
43.0577
39.0982
42.0521
39.584
35.7938
45.1143
36.7179
35.7938
40.5638
34.015
38.1356
43.0577
32.7634
34.8911
32.3654
36.7179
34.015
45.6408
41.0574
36.7179
46.1731
37.1867
34.4493
44.5933
34.015
31.9773
37.6593
33.5888
34.8911
45.6408
31.5993
36.7179
45.1143
36.7179
43.5655
46.1731
31.9773
34.4493
42.5534
44.5933
44.0772
42.5534
33.1714
35.7938
42.5534
39.0982
43.0577
40.0726
37.1867
31.9773
44.5933
36.7179
32.7634
44.5933
46.712
44.0772
37.6593
43.5655
38.6153
38.6153
31.9773
37.6593
45.1143
46.712
31.5993
35.3394
34.4493
46.1731
39.584
42.0521
31.5993
43.5655
35.7938
33.1714
40.0726
38.6153
45.6408
35.7938
42.0521
33.1714
47.2576
37.6593
40.5638
47.2576
31.5993
37.1867
34.8911
35.7938
36.2535
33.5888
47.2576
38.1356
33.1714
43.0577
46.1731
32.3654
35.3394
41.5535
34.8911
42.5534
47.8106
31.9773
43.0577
47.8106
38.6153
36.2535
31.9773
47.2576
41.0574
32.7634
0.480836
45.1143
23.2065
23.7484
21.6918
22.9451
26.974
6.11788
26.7403
27.8548
15.1856
12.3089
30.9163
31.188
31.5582
28.9496
17.9153
31.5527
31.9773
27.8136
21.6553
27.5822
21.3199
31.0761
40.0726
24.2241
28.3875
30.6206
18.5951
10.9328
47.8106
32.4327
31.9548
32.3105
32.3105
21.5224
35.3394
32.2657
7.90323
31.7086
32.0142
31.8718
32.7421
30.3796
3.88261
14.1822
29.1805
19.8972
32.8298
31.4009
33.5057
8.47204
18.851
32.2477
33.9484
31.0472
33.4848
25.0373
26.6706
14.5538
30.3755
3.99732
30.6998
14.14
30.2105
28.485
31.1664
30.2667
33.5962
13.0888
37.6593
17.3206
24.6175
34.0736
23.9568
47.2576
34.8838
32.5708
34.8931
28.3784
25.9559
34.2306
28.5343
34.7318
25.4568
16.5398
35.7914
27.6566
30.9267
33.0316
33.6673
35.3335
35.6452
35.7373
33.6673
35.7536
36.251
15.4695
30.1703
35.4921
24.5959
36.226
29.2123
36.1756
29.1086
36.6896
34.9713
26.929
32.0029
19.2751
34.8633
25.4593
33.9077
16.3962
16.2222
38.1356
34.8014
26.5525
16.9598
29.3564
38.4989
13.9545
38.4372
39.584
33.6105
38.4989
36.199
16.6021
38.8381
24.1246
35.9856
47.8106
25.2622
37.8233
18.1104
39.702
39.5501
12.3882
38.5891
34.808
39.8394
40.02
38.8099
37.4602
30.1128
22.4758
40.9528
26.5302
47.8106
39.2537
36.9803
32.3513
38.7885
41.4149
36.7125
41.4962
12.5456
34.6949
34.5001
40.6878
41.9931
41.9931
22.1887
42.4067
40.0885
42.1828
41.8606
23.1324
42.0011
41.3962
39.3908
37.9939
42.185
41.7192
39.7493
41.9712
44.0772
14.0757
43.5403
24.1874
33.2789
37.7749
39.8168
38.7371
0.480864
47.8106
30.937
38.3252
35.173
44.2373
18.1604
41.1502
25.8685
43.4646
40.0591
42.0868
6.0707
21.602
44.6929
43.9605
35.7494
20.6517
43.2176
31.5321
13.4887
47.6972
41.1607
27.1476
30.1749
29.8354
26.4558
20.3886
27.1476
26.8029
25.7555
27.4896
24.6983
26.1065
23.9967
29.1661
26.4558
24.6983
23.9967
29.1661
26.4558
21.317
21.9586
28.8335
30.1749
20.076
27.8292
20.6956
25.0507
20.6956
26.1065
25.7555
28.166
29.8354
25.0507
21.6352
22.9609
26.4558
22.622
22.2876
23.9967
21.9586
27.4896
23.6488
23.6488
28.5005
21.317
27.4896
29.4996
26.4558
20.076
22.9609
21.004
26.4558
22.2876
23.9967
29.4996
19.3909
27.1476
22.2876
24.6983
28.5005
21.004
30.1749
29.1661
23.6488
26.8029
27.8292
23.3034
20.3886
26.8029
29.4996
19.7467
20.6956
20.076
30.1749
26.4558
22.622
21.004
22.622
22.622
19.7467
27.4896
27.8292
28.5005
30.5197
25.4033
19.7467
19.3909
28.8335
21.004
30.5197
23.3034
19.7467
30.5197
20.076
26.8029
22.622
25.7555
24.6983
19.7467
25.7555
21.6352
29.8354
26.4558
30.1749
23.9967
23.9967
25.4033
29.1661
20.6956
22.622
21.004
29.1661
26.4558
28.5005
19.7467
24.6983
28.166
28.166
25.4033
30.8713
23.3034
26.8029
30.1749
23.9967
23.3034
22.9609
27.1476
20.076
21.6352
23.3034
22.622
28.166
25.4033
29.1661
23.6488
30.1749
29.8354
25.0476
28.166
21.9586
30.5197
30.8713
22.622
26.8029
25.4033
23.9967
24.3468
25.7555
28.8335
23.6488
19.7467
22.9609
22.9609
26.4558
21.6352
30.1749
30.1749
26.8029
21.317
23.3034
28.5005
25.7555
29.1661
20.076
28.8335
29.1661
27.1476
25.7555
22.2876
28.5005
22.2876
20.6956
19.3909
28.5005
28.8335
19.7467
21.6352
24.6983
19.3909
21.317
29.4996
2.81943
9.01498
3.78097
0.480818
15.9789
9.64629
0.480868
13.6282
4.70501
14.159
15.3445
13.9744
22.622
22.622
18.7833
24.6983
14.5391
22.622
18.9755
16.9774
9.86378
3.78097
10.6176
18.1942
19.3515
21.6352
10.9754
9.36343
18.0102
30.5197
18.8553
14.0957
17.3551
19.745
18.3665
12.553
19.1199
16.48
19.7375
18.9782
19.7406
19.7008
19.0365
15.5734
18.6465
11.1069
19.2828
18.2238
16.5942
19.5859
24.3468
11.2074
19.7426
19.9553
17.9014
19.8366
16.7068
19.6336
8.19767
4.5047
18.6063
15.1791
11.4717
5.53065
2.36194
19.51
18.0882
19.6903
15.0478
20.2992
15.8541
17.9559
6.89681
20.3097
9.00915
20.3886
18.3816
14.7097
23.6488
20.3788
20.0224
20.6241
20.0004
28.8335
13.1174
21.6352
20.6916
23.3034
15.3294
5.54278
20.3602
18.6699
9.17758
13.8656
17.1752
19.9135
18.812
20.5664
20.2656
20.6121
20.2884
18.3948
20.8963
16.6709
11.612
27.4896
15.4696
19.1996
31.2308
11.8839
19.2916
18.1648
22.622
17.1139
20.6695
12.3253
20.7577
18.6768
20.0228
21.2843
20.9582
8.52904
19.3477
14.3701
18.7875
20.1115
19.9481
20.6991
21.149
18.5587
21.5447
9.33208
17.8656
19.9947
21.309
5.91757
21.2867
12.9302
19.4006
21.6195
19.0205
18.6768
14.8965
18.1946
21.2637
21.3715
18.3176
17.1944
21.2843
18.6538
10.7594
6.67385
16.581
19.3113
20.492
21.9586
10.6181
18.5914
21.0234
19.9115
21.7054
22.0829
15.6363
21.9306
0.480816
20.2745
28.8335
26.4558
17.0917
21.7782
26.1065
17.5821
11.6035
20.7221
14.3247
20.2219
21.0361
21.9826
11.2883
22.1175
22.2138
19.4153
21.9436
22.6171
29.8354
0.481381
12.5236
16.1369
21.432
20.1581
21.1445
17.255
22.622
17.4956
0.48082
16.0553
22.948
22.9609
22.8425
11.6578
6.94598
18.0957
17.4956
22.8022
18.0622
22.9609
23.2629
12.7076
15.17
19.2482
22.3074
30.5197
21.4604
19.5324
19.8953
20.6564
6.29035
18.4332
25.0507
2.20509
22.3074
23.5974
19.9664
0.480817
23.3221
16.307
22.5347
0.48082
30.5197
23.6488
9.61058
23.2532
23.7733
15.1666
23.6582
23.5758
23.9211
13.0683
24.2806
15.4454
24.332
19.6376
23.5384
24.3108
23.1526
7.25495
23.4174
18.1394
28.5005
24.0156
24.3353
20.93
8.88077
0.48086
22.7092
21.1685
14.8076
24.3259
17.123
14.4009
16.8465
15.2089
21.853
24.6881
21.4818
23.9785
0.480821
18.6341
20.4811
10.1554
23.7226
20.7917
24.0557
3.33511
25.012
11.7123
24.8465
20.204
25.1466
25.1466
14.1976
4.83347
23.5248
9.47192
22.681
19.6131
29.8354
21.8742
21.8741
25.3231
31.2308
25.6794
24.443
24.3904
25.7037
21.5463
25.7314
9.87513
24.3511
9.20025
18.7547
26.8029
25.4852
31.2308
22.5122
26.8029
25.9031
16.245
23.6155
24.7665
21.8956
26.2885
8.12305
25.7342
23.388
18.6367
26.2885
21.538
23.7195
26.5367
26.7903
26.2554
26.7992
26.7674
25.784
27.4896
27.4896
23.6407
23.1528
26.422
19.206
8.2444
27.1202
17.9196
0.480821
26.7413
28.5005
31.2308
17.9938
27.7203
27.4763
23.7065
23.4412
27.0117
15.014
9.17282
25.421
27.5077
18.7829
24.113
24.0244
31.2308
20.016
20.5725
21.7046
24.7944
26.8861
23.7979
28.3847
21.2291
28.5005
27.4783
24.881
23.5991
22.3941
26.7474
19.5412
3.33657
16.1308
27.6103
28.6254
24.6585
25.9563
22.2486
23.5877
25.6124
21.0602
27.9654
28.5432
23.5877
28.8028
28.575
28.9249
25.8513
26.2047
22.5681
27.9654
28.4874
14.4633
29.3726
29.3726
29.3044
23.1244
29.0897
28.3224
6.97139
29.495
12.6644
25.6131
14.294
29.8339
3.95281
7.97468
17.2642
29.1613
19.0504
31.2308
0.480828
21.182
25.533
16.3862
24.8822
30.5197
14.7695
23.1425
21.9141
19.8394
30.3222
28.5512
27.9258
29.4047
29.8563
30.8438
0.480831
29.9712
29.2596
21.1133
30.1835
0.480831
19.646
25.6181
28.0003
30.3589
)


// ************************************************************************* //
