/*--------------------------------*- C++ -*----------------------------------*\
  =========                 |
  \\      /  F ield         | OpenFOAM: The Open Source CFD Toolbox
   \\    /   O peration     | Website:  https://openfoam.org
    \\  /    A nd           | Version:  7
     \\/     M anipulation  |
\*---------------------------------------------------------------------------*/
FoamFile
{
    version     2.0;
    format      ascii;
    class       scalarField;
    location    "0.7/lagrangian/reactingCloud1";
    object      T;
}
// * * * * * * * * * * * * * * * * * * * * * * * * * * * * * * * * * * * * * //


2457
(
591.013
590.848
590.408
590.391
590.311
589.42
589.106
589.895
588.986
588.247
589.487
588.416
589.047
588.759
588.056
588.383
589.995
588.32
588.168
588.135
588.23
588.572
588.321
588.494
588.343
588.641
588.563
588.383
588.418
588.689
588.443
588.432
588.443
588.541
588.518
588.478
588.511
588.516
588.491
588.527
588.499
597.435
597.875
597.819
594.213
591.864
596.951
592.57
590.121
590.445
593.224
590.801
596.661
590.801
591.445
591.8
590.077
595.967
591.821
591.504
593.154
593.646
591.598
595.189
595.79
593.458
594.261
592.784
594.86
592.489
592.858
593.079
594.211
593.812
594.932
595.306
594.084
593.881
593.963
593.453
593.021
593.231
592.946
593.53
593.769
593.695
594.195
593.259
593.813
593.773
592.743
593.126
593.156
595.443
592.929
593.53
592.455
594.149
592.323
592.654
593.223
593.509
593.502
594.022
591.874
592.371
592.047
591.31
591.812
554.739
556.811
554.372
562.557
564.692
565.361
565.726
569.088
573.403
582.543
585.003
578.145
582.663
582.268
582.028
583.127
584.122
582.416
586.266
585.093
588.31
588.36
589.625
588.233
587.96
590.106
521.14
525.213
525.946
525.765
529.488
537.626
536.788
538.669
542.611
552.94
299.271
484.8
508.352
508.846
498.691
437.407
509.737
461.58
511.022
510.854
511.399
513.453
498.128
515.833
505.052
519.245
506.762
506.843
480.887
456.788
506.71
507.048
487.629
506.824
507.359
406.215
441.618
442.44
507.867
507.336
507.711
448.731
507.86
508.259
507.939
430.457
505.329
505.391
497.319
505.421
236.705
494.73
505.504
504.353
460.792
406.301
505.856
505.894
505.673
505.921
503.648
506.028
498.746
506.178
425.991
506.107
440.944
441.888
403.586
506.127
506.515
506.441
506.633
359.445
506.675
506.651
505.849
504.658
230.642
227.959
504.689
361.411
504.738
335.766
504.74
461.007
503.96
454.336
336.051
504.68
504.788
430.935
353.998
440.226
500.26
504.781
383.979
383.979
439.55
337.595
459.092
504.937
503.413
504.914
486.116
276.299
505.075
505.074
349.556
487.158
433.818
504.865
501.535
465.132
456.623
484.687
497.395
505.254
505.156
362.51
470.458
505.217
504.448
504.531
500.465
504.34
503.106
381.029
492.856
424.876
504.439
350.476
420.561
395.832
457.692
504.478
504.488
463.609
504.442
504.511
504.483
504.522
504.517
425.379
272.064
373.578
407.144
504.441
502.1
504.547
480.306
389.352
503.802
504.562
296.974
504.478
504.488
504.569
504.58
478.038
288.38
503.314
504.546
454.927
403.836
504.64
500.075
227.77
504.64
265.666
374.952
487.016
454.341
408.479
408.479
441.192
504.648
504.427
504.427
504.425
504.424
504.425
504.426
504.426
504.427
504.425
504.427
504.424
504.424
223.715
240.477
430.092
374.104
406.88
332.538
502.421
504.404
441.297
475.838
386.239
395.083
278.911
494.869
363.304
465.144
503.799
411.823
476.077
388.281
335.167
492.364
504.3
477.191
469.61
359.93
503.874
470.739
488.408
480.533
504.429
357.217
301.41
504.426
372.597
377.136
422.88
242.48
439.004
399.74
464.848
504.386
501.364
462.303
416.205
457.346
504.429
332.873
504.43
338.436
423.288
504.402
409.033
503.866
504.275
406.906
423.619
440.163
503.019
461.64
351.273
504.438
503.866
504.133
501.411
380.132
425.594
485.06
500.834
494.092
427.624
461.223
504.434
273.577
317.912
504.459
317.912
503.955
470.374
503.998
504.291
504.322
504.307
504.336
504.375
504.291
504.25
504.168
504.389
504.322
504.389
504.322
504.049
504.404
504.291
504.399
504.291
504.307
503.936
504.307
504.199
504.416
504.418
504.358
504.272
504.307
504.399
504.423
504.375
504.42
504.424
504.424
504.367
226.375
241.183
239.896
270.747
332.039
417.835
393.518
270.007
310.393
376.633
330.862
361.489
470.205
327.807
452.419
475.068
238.775
365.497
503.903
485.33
366.44
426.921
462.644
336.41
282.463
364.224
494.133
433.383
338.371
354.518
362.792
424.57
257.537
279.527
438.034
501.698
293.351
406.958
478.276
504.267
329.493
370.58
412.229
421.707
483.946
375.772
481.548
459.86
330.619
259.026
456.96
360.242
504.367
502.313
442.707
418.343
504.379
459.171
475.457
240.521
485.379
325.97
472.659
267.332
487.389
461.633
501.999
393.301
503.87
256.5
277.57
458.556
502.274
498.173
385.998
448.96
409.245
328.441
383.035
470.1
433.402
493.847
460.78
444.302
467.231
400.628
407.011
420.495
486.071
434.875
469.341
489.419
415.89
492.343
444.792
496.874
420.495
482.337
459.728
499.823
411.393
434.875
500.833
496.874
486.071
500.833
478.266
464.596
402.747
407.011
411.393
449.79
501.613
402.747
402.747
496.874
498.523
415.89
469.341
499.823
499.823
415.89
486.071
439.812
434.875
402.747
496.874
444.792
439.812
496.874
407.011
449.79
500.833
411.393
494.825
482.337
492.343
503.025
434.875
478.266
503.025
478.266
503.3
494.825
407.011
411.393
503.3
429.999
449.79
503.5
420.495
407.011
402.747
402.747
425.202
501.613
459.728
503.651
503.651
420.495
500.833
464.596
503.768
464.596
402.747
503.651
238.766
429.999
248.914
268.256
242.512
478.266
260.261
238.298
402.747
291.494
275.264
248.784
287.314
323.665
346.713
360.793
318.836
293.509
298.287
332.562
302.846
254.037
375.299
250.516
262.15
272.579
407.011
342.224
400.484
399.987
332.695
386.135
315.95
329.277
396.281
303.601
280.62
429.999
344.274
298.488
331.211
320.1
236.751
319.375
308.304
428.57
313.82
391.814
407.687
346.913
382.419
394.095
381.717
396.668
369.12
327.82
365.108
301.919
373.948
379.983
336.259
424.255
369.83
408.242
372.846
306.802
462.118
377.859
294.941
453.419
494.825
389.574
266.724
282.028
426.792
361.333
415.745
377.284
330.533
377.284
411.363
285.57
457.13
299.739
439.078
273.598
256.045
356.436
276.542
487.258
404.41
493.36
395.819
403.082
278.132
366.1
431.556
435.313
281.666
324.316
494.51
441.671
455.505
328.036
455.505
372.955
303.446
360.49
483.472
495.939
376.48
291.983
420.624
314.871
261.222
309.786
333.844
226.16
503.861
478.166
493.369
458.373
373.516
358.28
433.056
414.816
500.929
295.021
360.776
343.014
343.014
336.567
350.123
316.008
363.671
347.675
338.647
347.675
336.567
330.706
343.014
314.599
340.795
327.091
313.229
347.675
345.306
357.977
325.364
355.271
317.457
320.482
313.229
352.654
350.123
350.123
317.457
350.123
369.763
340.795
332.599
369.763
323.688
323.688
347.675
320.482
332.599
318.948
325.364
327.091
318.948
350.123
314.599
325.364
317.457
357.977
372.967
347.675
372.967
322.062
317.457
317.457
313.229
369.763
357.977
317.457
376.28
330.706
340.795
376.28
355.271
372.967
366.666
323.688
336.567
340.795
316.008
369.763
322.062
316.008
372.967
376.28
338.647
366.666
318.948
322.062
340.795
350.123
343.014
316.008
350.123
369.763
376.28
334.551
343.014
345.306
332.599
379.705
314.599
317.457
350.123
325.364
379.705
314.599
369.763
369.763
336.567
369.763
347.675
328.871
317.457
336.567
360.776
383.246
330.706
320.482
350.123
383.246
369.763
317.457
352.654
379.705
355.271
323.688
355.271
357.977
330.706
328.871
355.271
383.246
318.948
363.671
360.776
343.014
347.675
386.905
325.364
314.599
355.271
334.551
327.091
336.567
327.091
340.795
334.551
347.675
372.967
383.246
328.871
386.905
345.306
343.014
328.871
363.671
390.683
390.683
390.683
338.647
347.675
369.763
357.977
316.008
386.905
372.967
390.683
360.776
390.683
350.123
334.551
338.647
317.457
332.599
328.871
390.683
366.666
336.567
352.654
334.551
383.246
334.551
323.688
347.675
363.671
325.364
394.582
357.977
350.123
328.871
363.671
386.905
314.599
383.246
355.271
369.763
336.567
332.599
336.567
345.306
360.776
313.229
352.654
390.683
372.967
347.675
376.28
398.603
330.706
394.582
212.362
347.675
338.647
398.603
336.567
235.048
390.683
292.618
295.379
239.199
283.054
293.315
310.546
241.033
313.004
297.676
311.939
314.578
270.597
236.72
278.614
316.008
297.676
301.544
308.424
274.623
271.557
245.972
301.583
305.161
315.163
272.088
269.033
318.672
320.402
261.457
320.482
273.786
294.869
291.84
275.411
248.124
266.73
294.203
321.978
240.069
293.33
320.217
256.58
326.405
300.225
321.726
328.871
288.754
324.707
306.521
298.295
272.574
330.351
324.866
257.946
268.055
324.88
284.537
398.603
323.275
312.811
285.526
272.572
308.478
303.543
328.811
321.977
321.411
334.251
284.098
326.99
338.522
264.977
330.949
321.957
289.59
294.905
286.478
291.206
339.846
226.825
287.508
290.033
291.57
320.387
334.721
340.062
338.473
341.257
334.391
336.158
347.108
316.824
351.424
291.341
351.424
282.767
250.557
341.42
328.346
341.337
398.603
329.466
352.231
350.522
273.708
359.737
353.75
286.976
322.902
353.831
257.03
349.583
332.7
362.463
310.885
301.253
369.521
340.232
244.89
358.173
340.405
374.872
379.614
289.661
316.406
289.661
368.645
367.328
318.206
349.049
268.586
350.943
398.603
237.933
270.721
365.002
315.787
340.095
390.683
347.234
393.8
393.8
341.624
319.167
296.477
299.342
291.318
286.787
300.344
292.13
281.416
285.384
301.37
297.409
301.37
286.787
292.96
302.423
302.423
292.96
300.344
289.747
284.024
288.986
302.423
301.37
299.342
294.678
287.506
293.809
292.13
294.678
295.567
289.747
286.08
297.409
297.409
295.567
288.986
281.416
284.024
293.809
304.61
283.359
303.503
301.37
287.506
294.678
282.055
282.055
304.61
286.08
295.567
284.024
300.344
285.384
295.567
284.699
298.364
290.524
284.699
288.239
281.416
300.344
285.384
294.678
289.747
289.747
286.787
301.37
298.364
288.986
305.746
301.37
305.746
305.746
304.61
296.477
303.503
288.239
290.524
301.37
305.746
294.678
282.055
300.344
285.384
293.809
296.477
306.912
301.37
295.567
288.239
300.344
305.746
298.364
287.506
294.678
306.912
306.912
306.912
282.055
306.912
282.703
305.746
306.912
303.503
288.986
303.503
293.809
306.912
294.678
281.416
284.024
305.746
291.318
297.409
308.109
282.055
281.416
288.239
308.109
284.699
292.13
282.703
285.384
308.109
284.699
308.109
288.986
308.109
306.912
297.409
285.384
286.08
296.477
288.986
304.61
287.506
295.567
309.338
293.809
309.338
308.109
297.409
286.08
293.809
303.503
309.338
296.477
286.787
309.338
304.61
289.747
293.809
288.239
308.109
304.61
282.703
284.699
305.746
306.912
299.342
297.409
309.338
309.338
288.239
285.384
286.08
300.344
289.747
298.364
295.567
294.678
310.6
282.703
287.506
302.423
284.699
310.6
283.359
310.6
297.409
301.37
295.567
310.6
297.409
310.6
298.364
301.37
286.08
292.13
292.96
310.6
291.318
289.747
310.6
292.13
302.423
288.239
310.6
310.6
310.6
286.787
290.524
301.37
311.897
305.746
302.423
298.364
311.897
295.567
291.318
284.024
290.524
310.6
292.96
299.342
287.506
286.08
311.897
214.486
219.479
308.109
225.589
216.539
212.496
215.948
301.37
270.071
255.269
256.712
286.787
277.041
281.416
278.415
270.817
280.966
273.383
276.244
282.055
238.759
272.867
235.327
225.588
258.826
266.643
280.752
281.805
271.987
260.326
282.394
247.466
276.679
258.826
282.876
275.425
310.6
292.96
282.807
295.567
235.473
266.324
271.253
282.778
262.934
244.726
266.32
279.08
241.444
277.163
262.477
251.654
259.126
264.808
223.342
277.464
279.051
252.551
250.819
280.192
288.394
288.598
288.502
284.555
220.432
289.747
290.412
279.007
249.518
283.871
287.723
229.898
291.203
289.642
285.525
288.917
268.828
273.977
263.063
270.504
280.324
291.099
276.237
292.615
212.381
282.733
277.166
287.541
274.205
291.896
281.55
289.304
268.415
237.91
289.687
288.476
243.108
294.684
296.438
289.184
305.746
297.326
269.793
296.153
292.349
299.025
273.24
296.529
293.536
263.774
287.64
299.694
247.714
281.473
304.61
284.365
297.784
302.169
234.294
283.103
265.705
264.052
256.34
298.769
228.645
294.279
304.321
300.169
306.38
304.937
299.234
296.712
301.48
306.912
298.75
255.278
309.033
306.927
294.338
282.353
310.539
277.501
281.414
311.897
311.679
273.626
263.15
267.483
265.306
273.626
271.922
264.765
273.055
275.941
266.937
275.941
277.121
271.36
263.15
269.686
273.055
262.079
273.055
267.483
269.133
263.15
263.688
264.765
265.848
274.199
269.133
272.487
266.391
269.686
266.937
268.581
262.615
277.718
271.922
268.031
268.581
262.079
263.688
265.306
271.36
265.848
264.765
274.776
269.133
269.133
261.547
264.765
264.225
273.055
273.626
274.199
276.529
261.547
262.079
263.15
270.799
267.483
261.547
266.937
269.133
269.686
270.242
262.615
275.941
263.15
267.483
264.765
268.581
278.32
273.055
270.799
272.487
265.306
276.529
271.36
273.055
262.615
263.15
263.688
274.199
266.937
263.688
274.199
275.357
270.799
274.199
271.36
266.937
277.718
268.031
266.937
272.487
264.765
269.686
275.357
263.15
265.848
262.615
268.031
264.765
278.32
273.055
268.031
278.927
268.581
265.306
277.121
264.765
262.079
269.133
264.225
265.848
278.32
261.547
268.031
277.718
268.031
275.941
278.927
262.079
265.306
274.776
277.121
276.529
274.776
263.688
266.937
274.776
270.799
275.357
271.922
268.581
262.079
277.121
268.031
263.15
277.121
279.539
276.529
269.133
275.941
270.242
270.242
262.079
269.133
277.718
279.539
261.547
266.391
265.306
278.927
271.36
274.199
261.547
275.941
266.937
263.688
271.922
270.242
278.32
266.937
274.199
263.688
280.158
269.133
272.487
280.158
261.547
268.581
265.848
266.937
267.483
264.225
280.158
269.686
263.688
275.357
278.927
262.615
266.391
273.626
265.848
274.776
280.783
262.079
275.357
280.783
270.242
267.483
262.079
280.158
273.055
263.15
212.13
277.718
246.961
247.86
244.283
246.508
253.455
218.514
253.115
254.989
233.237
228.436
260.347
260.824
261.475
256.901
237.825
261.337
262.079
254.739
244.187
254.242
243.578
260.377
271.922
248.51
255.728
259.456
238.922
226.236
280.783
262.579
261.754
262.368
262.368
243.824
266.391
262.291
221.336
261.33
261.703
261.46
263.113
258.907
215.356
231.565
256.861
241.057
263.101
260.653
264.083
222.291
239.274
261.94
264.652
259.746
264.048
249.643
252.381
232.163
258.613
215.535
259.004
231.47
258.185
255.298
259.787
258.126
263.869
229.755
269.133
236.672
248.652
264.673
247.565
280.158
265.836
261.61
265.648
254.714
250.742
264.35
254.97
264.979
249.925
235.324
266.933
253.4
258.741
262.37
263.42
266.174
266.691
266.843
263.42
266.87
267.479
233.53
257.352
266.229
248.313
267.438
255.796
267.355
255.769
267.985
264.977
251.738
260.165
239.539
264.802
249.499
263.07
234.984
234.635
269.686
264.511
251.027
235.767
255.477
270.055
231.01
269.956
271.36
262.244
270.055
266.374
235.163
270.385
246.997
265.845
280.783
248.689
268.568
237.493
271.337
271.306
228.471
269.387
263.634
271.554
271.839
269.733
267.618
256.149
244.122
272.891
250.381
280.783
270.236
266.692
259.498
269.51
273.41
266.108
273.536
228.694
262.84
262.54
272.086
274.108
274.108
243.561
274.55
270.978
274.204
273.707
244.951
273.924
272.807
270.08
267.601
274.017
273.302
270.119
273.506
276.529
231.04
275.902
246.448
260.178
266.971
270.061
268.427
212.293
280.783
256.552
267.659
262.8
276.582
237.249
271.756
248.82
275.059
269.969
272.998
218.801
242.378
276.542
275.456
263.318
240.96
274.194
256.932
230.182
280.616
271.021
254.706
259.422
258.891
253.679
244.873
254.706
254.198
252.674
255.234
251.188
253.184
250.184
257.836
253.679
251.188
250.184
257.836
253.679
246.115
247.042
257.315
259.422
244.564
255.748
245.298
251.676
245.298
253.184
252.674
256.271
258.891
251.676
246.531
248.579
253.679
248.068
247.521
250.184
247.042
255.234
249.648
249.648
256.787
246.115
255.234
258.366
253.679
244.564
248.579
245.65
253.679
247.521
250.184
258.366
243.894
254.706
247.521
251.188
256.787
245.65
259.422
257.836
249.648
254.198
255.748
249.134
244.873
254.198
258.366
244.15
245.298
244.564
259.422
253.679
248.068
245.65
248.068
248.068
244.15
255.234
255.748
256.787
259.949
252.186
244.15
243.894
257.315
245.65
259.949
249.134
244.15
259.949
244.564
254.198
248.068
252.674
251.188
244.15
252.674
246.531
258.891
253.679
259.422
250.184
250.184
252.186
257.836
245.298
248.068
245.65
257.836
253.679
256.787
244.15
251.188
256.271
256.271
252.186
260.483
249.134
254.198
259.422
250.184
249.134
248.579
254.706
244.564
246.531
249.134
248.068
256.271
252.186
257.836
249.648
259.422
258.891
251.671
256.271
247.042
259.949
260.483
248.068
254.198
252.186
250.184
250.675
252.674
257.315
249.648
244.15
248.579
248.579
253.679
246.531
259.422
259.422
254.198
246.115
249.134
256.787
252.674
257.836
244.564
257.315
257.836
254.706
252.674
247.521
256.787
247.521
245.298
243.894
256.787
257.315
244.15
246.531
251.188
243.894
246.115
258.366
213.616
223.926
215.134
212.028
236.825
225.093
212.088
232.339
216.446
233.661
235.958
233.304
248.068
248.068
242.694
251.188
234.068
248.068
243.073
239.145
225.242
215.134
226.599
241.533
243.816
246.531
227.381
224.285
241.171
259.949
242.403
233.225
239.483
244.146
241.872
230.147
242.921
237.79
244.132
242.643
244.138
243.826
242.757
236.046
241.763
227.279
243.006
240.94
237.789
243.601
250.675
227.556
243.908
244.326
240.314
244.093
238.006
243.694
222.158
216.347
241.685
234.875
228.032
217.89
213.492
243.452
240.676
243.511
234.629
244.698
236.004
239.997
220.023
244.719
223.668
244.873
240.976
233.86
249.648
244.854
244.158
245.159
244.115
257.315
230.917
246.531
245.291
249.134
234.847
217.848
244.644
241.368
223.89
232.037
238.181
243.538
241.421
245.046
244.077
244.889
244.262
240.624
245.441
237.357
227.976
255.234
234.99
242.164
261.013
228.46
242.34
240.054
248.068
238.192
244.858
229.156
245.172
240.861
243.749
246.051
245.418
222.546
242.136
232.96
241.24
243.78
243.465
244.915
245.788
240.637
246.355
223.892
239.486
243.371
245.899
218.344
245.856
230.238
242.236
246.5
241.513
240.861
233.734
239.948
245.812
246.02
240.181
237.983
246.051
240.724
226.34
219.508
237.064
241.969
244.22
247.042
225.982
240.606
245.239
243.111
246.552
247.127
235
246.988
212.1
243.668
257.315
253.679
237.617
246.693
253.184
238.599
227.696
244.52
232.547
243.568
245.12
246.934
227.145
247.193
247.379
241.961
246.766
248.059
258.891
212.275
229.251
235.767
245.66
243.248
245.239
237.826
248.068
238.203
212.035
235.617
248.554
248.579
248.352
227.675
219.759
239.385
238.203
248.177
239.157
248.579
249.057
229.523
233.868
241.462
247.1
259.949
245.5
241.886
242.563
244.106
218.696
239.942
251.676
213.339
247.1
249.55
242.696
212.107
249.026
235.933
247.53
212.054
259.949
249.648
224.044
248.774
249.76
233.801
249.542
249.509
250.041
230.054
250.55
234.228
250.647
241.872
249.15
250.607
248.424
220.173
248.922
239.116
256.787
249.905
250.505
244.267
222.779
212.273
247.46
244.595
233.024
250.636
237.184
232.237
236.683
233.668
245.725
251.169
245.04
249.835
212.056
239.827
243.325
224.868
249.194
243.898
249.816
214.53
251.604
227.509
251.294
242.692
251.707
251.707
231.823
216.501
248.693
223.703
247.133
241.513
258.891
245.647
245.517
251.871
261.013
252.533
250.24
250.143
252.578
244.918
252.629
224.351
249.942
223.238
239.857
254.198
252.034
261.013
246.573
254.198
252.807
235.248
248.464
250.57
245.338
253.37
221.472
252.348
248.049
239.482
253.37
244.691
248.554
253.708
254.175
253.19
254.191
254.132
252.325
255.234
255.234
248.411
247.525
253.376
240.363
221.637
254.656
238.089
212.227
253.864
256.787
261.013
238.123
255.549
255.209
248.354
247.875
254.256
232.941
223.124
251.366
255.161
239.509
249.004
248.844
261.013
241.64
242.623
244.686
250.233
253.858
248.306
256.576
243.787
256.787
254.93
250.191
247.95
245.86
253.542
240.736
214.508
234.822
255.099
256.937
249.846
252.119
245.545
247.883
251.501
243.405
255.667
256.788
247.883
257.179
256.767
257.4
251.87
252.503
246.03
255.667
256.609
231.942
258.137
258.137
258.014
247.015
257.627
256.245
219.652
258.358
228.901
251.396
231.654
258.888
215.297
221.232
236.736
257.679
239.824
261.013
212.163
243.537
251.203
235.229
250.009
259.949
232.473
246.948
244.772
241.17
259.508
256.372
255.268
257.881
258.681
260.434
212.083
258.885
257.535
243.362
259.163
212.151
240.827
251.211
255.323
259.473
)


// ************************************************************************* //
