/*--------------------------------*- C++ -*----------------------------------*\
  =========                 |
  \\      /  F ield         | OpenFOAM: The Open Source CFD Toolbox
   \\    /   O peration     | Website:  https://openfoam.org
    \\  /    A nd           | Version:  7
     \\/     M anipulation  |
\*---------------------------------------------------------------------------*/
FoamFile
{
    version     2.0;
    format      ascii;
    class       scalarField;
    location    "0.7/lagrangian/reactingCloud1";
    object      tTurb;
}
// * * * * * * * * * * * * * * * * * * * * * * * * * * * * * * * * * * * * * //


2457
(
0.004115
0.00401
0.003905
0.0038
0.003695
0.00359
0.003485
0.00338
0.003275
0.00317
0.003065
0.00296
0.002855
0.00275
0.002645
0.00254
0.000352
0.00233
0.002225
0.00212
0.002015
0.00191
0.001805
0.0017
0.001595
0.00149
0.001385
0.00128
0.001175
0.00107
0.000965
0.00096125
0.00086
0.000755
0.00065
0.000545
0.00044
0.000335
0.00023
0.000125
2e-05
0.0001235
0.00126287
0.00205
0.0028805
0.0025705
0.0002485
0.00356537
0.01021
0.010105
0.0024
0.00999625
0.0002735
0.0098
0.0097
0.0095
0.0096
0.0014
0.0093
0.0092
0.0091
0.0089
0.009
0.0037985
0.000772
0.0086
0.0085
0.0084
0.00421656
0.0082
0.0081
0.008
0.0079
0.0078
0.000816006
1e-05
0.0075
0.0074
0.0073
0.0071
0.0072
0.0069
0.007
0.0068
0.0067
0.0066
0.00138703
0.0064
0.0063
0.0061
0.0062
0.006
0.005795
0.0014285
0.00569
0.00548
0.005585
0.00100071
0.00527
0.005165
0.00506
0.004955
0.00485
0.000271888
0.00464
0.004535
0.00443
0.004325
0.00422
3.5e-06
0.012205
0.001367
0.00207229
0.000810462
0.0118862
5.22842e-05
0.011785
4.80807e-05
0.00422776
0.0017735
0.01147
0.00289247
0.0112562
0.011155
0.01126
0.00215
0.010945
0.003135
0.01105
0.001032
0.01084
0.0019405
0.010735
0.01042
0.01063
0.01357
0.013255
0.01336
0.0009585
0.00413
0.01294
0.00311
0.012835
0.00140293
0.01231
0.000752
0.001232
0.014935
0.00311631
0.0021734
0.00148
0.002545
0.000122
0.002535
0.0142
0.014095
0.0022061
0.000407
0.001357
0.00087
0.0026405
0.01688
0.005215
0.0025505
0.000147
0.01658
0.01648
4.85e-05
0.01608
0.00428101
0.0015635
0.000357
0.001705
0.0024585
0.00371767
0.01525
0.000392
0.015145
0.00351093
0.01504
0.001807
0.01988
0.0030135
0.00193684
0.0048555
0.0067035
0.0036035
0.01908
0.0049185
0.0002205
0.003122
0.00654
0.012882
0.01848
0.0065135
0.00658185
0.01828
0.0015105
0.01798
0.0028105
0.01788
0.000207
0.000901105
0.0017085
0.01728
0.004452
0.00569
0.00549567
0.001442
0.00590168
0.004747
0.005345
0.00126611
0.0131305
0.009162
0.011862
0.0021205
0.0076055
0.0012235
0.023865
0.00123068
0.0110005
0.001677
0.000165
0.023445
0.0005305
0.00474659
0.0012955
0.0042635
0.007592
0.022815
0.00126
0.0044885
0.0040385
0.00476
0.003775
9.2e-05
0.000316603
0.021765
0.0029305
0.0004905
0.007047
0.0003785
0.000547
0.000327
0.002387
0.02061
0.000841871
0.00227002
0.00240034
0.000922
0.000655307
0.0003435
0.02019
0.00041
0.0002605
0.014862
0.00066895
0.000571003
0.0087185
0.002877
0.000575998
0.006112
0.00252664
0.0068655
0.02886
0.0021735
0.005272
0.0041955
0.00610276
0.02846
0.002602
0.0049905
0.02806
0.00349
0.02776
0.0130455
0.004695
0.0010335
0.005052
0.002142
0.004522
0.004632
0.00752647
0.02696
0.000975
0.0035785
0.0055505
0.000702
0.002047
0.02636
0.02626
0.0140485
0.02606
0.000980178
0.0049385
0.01379
0.025125
0.0051485
0.004452
0.02502
0.0066955
0.0063858
0.00153766
0.0068805
0.0060105
0.00270097
4.2e-05
0.0038305
0.0033035
0.00327248
0.02397
0.00437521
0.00436904
0.00345464
0.00398181
0.00116813
0.00179897
0.00165835
0.00166666
0.000633646
0.00226503
0.000299786
0.000132497
0.0137379
0.0148135
6.05e-05
0.00157
0.0049955
0.01149
0.0075435
0.0220055
0.0004355
0.0011255
0.00721507
0.0072435
0.0005285
0.00179018
0.0035155
0.0103905
0.0058955
0.00236
0.0030435
0.003685
0.0045905
0.0078805
0.0038005
0.0077305
0.0038085
0.0028335
0.0050555
0.002722
0.00549119
0.000565
0.00343977
0.0056735
0.006452
0.0012685
0.000432
0.006827
0.00851005
0.000252521
0.00782767
0.008022
0.00958333
0.0023
0.004472
0.004005
0.0040805
0.0074105
0.0006185
0.00675
0.0001135
0.0064105
0.0024535
0.005362
0.008207
0.0064285
0.0044555
0.0043905
0.0039235
0.0023185
0.0073735
0.00577769
0.0035255
0.03122
0.005267
0.003637
0.014015
0.00652
0.0035555
0.000607
0.0018305
0.0109335
0.001017
0.0016285
0.03038
0.0043935
0.0082655
0.03017
0.005192
0.003382
0.006045
0.00402048
0.00228051
0.00366076
0.00358521
0.003562
0.00480065
0.00301509
0.00297466
0.00268046
0.00332293
0.00264447
0.0027506
0.00232977
0.00214418
0.00551668
0.00168525
0.00181074
0.00154521
0.0013852
0.00138261
0.00139014
0.00143278
0.00188782
0.00208732
0.000936916
0.000870899
0.000773698
0.00075123
0.00102391
0.000652626
0.00167918
0.00199589
0.00117078
0.000154721
0.016665
0.0062355
0.0165305
0.0159035
0.0094885
0.0066055
0.0014005
0.0120135
0.009542
0.0025405
0.007285
0.003397
0.0028055
0.0043535
0.012555
0.00437
0.000292
0.0076435
0.0018935
0.00485245
0.0081105
0.0080285
0.0001605
0.007172
0.0047985
0.0080335
0.01165
0.0019585
0.010512
0.0005355
0.007112
0.0032135
0.0099255
0.010475
0.0034035
0.009517
0.0023635
0.009657
0.00058
0.0247854
0.0110835
0.012417
0.005552
0.0064285
0.000245
0.0091435
0.0001955
0.0018085
0.0071
0.0108085
0.00938174
0.0057105
0.0021935
0.0087405
0.0042335
0.0083635
0.0277485
0.009577
0.0023355
0.003812
0.00309
0.0030155
0.0120605
0.0080755
0.0106785
0.0010155
0.00280285
0.0075585
0.013887
0.0048135
0.011167
0.000277
0.005417
0.0068355
0.0036555
0.00259
0.00404
0.004872
0.005997
0.0046585
0.0011835
0.0078055
0.003685
0.001032
0.00886234
0.0036785
0.00863455
0.0035846
0.00401164
0.00387533
0.00365299
0.00360648
0.0129902
0.00349134
0.00333311
0.0137461
0.00308202
0.00194646
0.00332001
0.00332523
0.00286562
0.00284431
0.0129103
0.00886547
0.00466773
0.00291332
0.00402518
0.0114633
0.00256862
0.00252367
0.00253117
0.00253563
0.00264742
0.00242574
0.00238881
0.00244743
0.00246382
0.00229699
0.00228807
0.00231043
0.00162837
0.00204675
0.00193113
0.00162635
0.000641565
0.00221469
0.00184709
0.00427014
0.00730312
0.00172113
0.00546987
0.00160905
0.00165817
0.015425
0.00894737
0.00147558
0.00145709
0.00275831
0.00114849
0.0012885
0.00239964
0.00121894
0.00327569
0.00127198
0.00103143
0.00100426
0.0011858
0.000114359
0.000926994
0.00184098
0.000783218
0.00804242
0.000772728
0.000708758
0.000609503
0.00164059
0.000474255
0.0017015
0.00358507
0.00856512
0.00176986
0.00369934
0.00213501
0.00213779
0.00168674
0.000188262
0.0023385
0.00394915
0.00404
0.013652
0.0136785
9.89995e-05
0.008555
0.0181835
2.22014e-05
0.000422
0.019177
0.0100255
0.005392
0.0082205
0.014652
0.0072235
0.0101005
0.0156955
0.014235
0.0068255
0.010952
0.0011235
0.0141103
0.0099255
0.0011485
0.0083435
0.0017935
0.012352
0.0037805
0.0053435
0.0100355
0.000637
0.0081905
0.013352
0.0125185
0.015497
0.0062305
0.0001335
0.00336
0.00663074
0.0048755
0.0059655
0.015792
0.009512
6e-05
0.0117835
0.013792
0.0004585
0.002322
0.0147385
0.0034935
0.0048685
0.00291
0.006082
0.013062
0.01425
0.0147035
0.0133405
0.0119005
0.002645
0.010192
0.0074435
0.005877
0.0121285
0.0066505
0.003472
0.00211612
0.01016
0.0158435
0.00324
0.004914
0.001715
0.00176601
0.010397
0.0072535
0.0104005
0.0042985
0.0100985
0.010222
0.0008805
0.0078585
0.014357
0.0039055
0.0045585
0.0067924
0.0001955
0.0095455
0.001107
0.0049185
0.0011908
0.011512
0.0114855
0.0041635
0.0016135
0.0036105
0.005752
0.010517
0.004702
0.00801603
0.0089035
0.0113885
0.0076505
0.0029085
0.0043405
0.00482
0.008642
0.0021285
0.010862
0.0080935
0.0055605
0.004937
0.013117
0.010412
0.0091585
0.0131635
0.009755
0.011482
0.017582
0.00259704
0.003662
0.0012935
5.05e-05
0.0010835
0.0076755
0.0032935
0.00878
0.0120955
0.013162
0.00398528
0.0125762
0.00394227
0.00392776
0.0155788
0.00260424
0.000564162
0.00586049
0.00137989
0.00377282
0.00866023
0.00385179
0.00363364
0.00356027
0.00361134
0.00849826
0.00350889
0.0035015
0.00351581
0.000567582
0.00778979
0.0022472
0.00116884
0.00326484
0.00323218
0.00104165
0.000847021
0.000985011
0.0192209
0.00314324
0.00105763
0.0113635
0.00305584
0.00977172
0.00338433
0.00329248
0.000966044
0.00161721
0.00565659
0.00285811
0.00285228
0.00287965
0.00289938
0.00286942
0.00273445
0.00273269
0.0027141
0.00279499
0.00197614
0.00276234
0.00384916
0.0212806
0.00263021
0.00064436
0.00254915
0.00264458
0.0025731
0.000107079
0.00381775
0.00242621
0.00242871
0.00275325
0.00365918
0.00247755
0.00247411
0.00233237
0.00236284
0.00235351
0.00222948
0.00841718
0.00223805
0.00304053
0.00234283
0.00355259
0.00359352
0.00221674
0.0021107
0.00209614
0.00222211
0.00214133
0.00211674
0.00207843
0.00432345
0.00213092
0.00214349
0.00167527
0.00315505
0.0047054
0.00192406
0.00234328
0.00186761
0.00188485
0.00368465
0.00188779
0.00291862
0.0010207
0.00189591
0.00212553
0.00183887
0.00183591
0.00177165
0.00171583
0.00164998
0.00165177
0.00171727
0.00567305
0.00165772
0.00164595
0.00170706
0.000610012
0.00170253
0.00867605
0.000878002
0.00174492
0.00162797
0.00154345
0.00157733
0.00158406
0.00153035
0.00149676
0.00153192
0.00167618
0.00142338
0.00148231
0.00239708
0.00165218
0.00148336
0.000708382
0.00130915
0.00127411
0.00131466
0.00126834
0.00158339
0.0012581
0.000231117
0.00124366
0.00122597
0.00124222
0.00126827
0.00128614
0.0051476
0.00177082
0.00114345
0.00121553
0.00098088
0.00102
0.00282538
0.00340593
0.00205401
0.000936519
0.00518409
0.000941616
5.91982e-05
0.0160051
0.000942304
0.000938063
0.00739146
0.000870212
0.00348352
0.000807364
0.000761404
0.000738901
0.00272428
0.0122123
0.000645915
0.000870484
0.000703353
0.000638739
0.000685823
0.00499054
0.00180591
0.000595121
0.00150321
0.000597546
0.000620078
0.000590622
0.000512152
0.000561906
0.000558043
0.000440999
0.00181104
0.000537369
0.000344434
0.000482402
0.00126431
0.00037248
0.00100621
0.000278632
0.000276178
0.000256668
0.00804876
0.000158071
0.000294037
0.000589057
0.000270462
0.000306939
0.000256283
0.00150426
0.000142617
0.000235825
0.0396785
0.000130292
0.000112915
0.000973073
0.00523112
0.0200885
0.000177847
0.0123685
0.0119005
0.025097
0.0141505
0.0237585
0.0021685
0.0217935
0.0225205
0.0137485
0.000152
0.020755
0.017465
0.01055
0.0155005
0.00401
0.0005455
0.0185605
0.0072835
0.024265
0.017345
0.0051305
0.007237
0.0060985
0.01979
0.0203355
0.0061205
0.003902
0.01904
0.0108134
0.0208315
0.0174835
0.013692
0.0209335
0.0179935
0.020792
0.0044735
0.016495
0.001705
0.0235085
0.0156355
0.005975
0.0094185
0.000827
0.014767
0.015775
0.01942
0.0023335
0.0088705
0.0079185
0.020347
0.011177
0.0069885
0.0006555
0.0053935
0.0220285
4.35e-05
0.015532
0.0150257
0.001227
0.022027
0.0118405
0.0193435
0.0032535
0.0061555
0.0088
0.01934
0.001357
0.0149435
0.0194155
0.0192355
0.0072705
0.0165205
0.0026585
0.0178185
0.0010035
0.0112605
0.0058735
0.007492
0.0142805
0.006217
0.0141135
0.0102285
0.011245
0.0079255
0.0154135
0.018392
0.001067
0.001982
0.0171605
0.0097435
0.012297
0.0165885
0.0071235
0.00095
0.0145755
0.0021985
0.0098185
0.009522
0.0034305
0.018832
0.00122387
0.0061585
0.0103753
0.013817
0.008842
0.0064535
0.0139835
0.0081435
0.0042855
0.015362
0.0178605
0.016442
0.004342
0.013605
0.0180085
0.00153
0.0090885
8.85e-05
0.0163235
0.0047035
0.013765
0.00884528
0.0051935
0.0068005
0.01541
0.016812
0.0170535
0.0101585
0.0135
0.0128305
0.003432
0.0074005
0.000664256
0.0079185
0.0007435
0.01153
0.0084985
0.0144935
0.0128885
0.0068135
0.0101935
0.0056635
0.0150005
0.0177135
0.00383059
0.00651791
0.0037752
0.00372698
0.0017265
0.00376006
0.00364651
0.00363094
0.00370381
0.00479134
0.00364208
0.00160448
0.00354456
0.00344826
0.00355824
0.00543392
0.00221933
0.00057299
0.00334557
0.00337251
0.00223489
0.0252494
0.00348348
0.00076908
0.00172117
0.000217958
0.00322903
0.000746311
0.0032038
0.00315355
0.015275
0.0125139
0.00312222
0.00383423
0.0102044
0.00323184
0.00291675
0.0312055
0.0033374
0.00276303
0.00873345
0.00285122
0.000693401
0.0038008
0.00264113
0.0288702
0.025467
0.00259267
0.000673905
0.00193199
0.00265318
0.00254316
0.00260489
0.00107515
0.00247452
0.00246194
0.00238034
0.00858159
0.0126019
0.00251581
0.00234642
0.0154346
0.00236121
0.00235054
0.00651332
0.00242188
0.00234285
0.00225767
0.000889363
0.00226009
0.00381372
0.00223453
0.025018
0.0104599
0.0241651
0.00210617
0.00206657
8.24303e-05
0.0030793
0.00216202
0.026901
0.0020518
0.0019441
0.0127282
0.00194059
0.00130157
0.00451638
0.00185465
0.00187259
0.00187389
0.00187958
0.0085789
0.0031965
0.00177134
0.00375002
0.00204213
0.00221054
0.00490144
0.0036172
0.00164307
0.00182732
0.00768496
0.00175531
0.00922977
0.00173301
0.00168627
0.00104525
0.00164876
0.00233316
0.000726678
0.00169213
0.00159637
0.00892739
0.0207057
0.00037476
0.00153235
0.025745
0.00353257
0.00977992
0.00351373
0.00849777
0.00137713
0.00726336
0.00151519
0.00981934
0.00137222
0.00275386
0.00141485
0.00344929
0.00118213
0.00212605
0.00126812
0.0224163
0.0224133
0.00113405
0.0011725
0.00387517
0.000611264
0.00173108
0.00117584
0.00793606
0.0190441
0.00104023
0.00131758
0.00119029
0.00101442
0.000937646
0.0202319
0.00100373
0.0129546
0.0305129
0.000863912
0.000951677
0.00229401
0.000790258
0.000783803
0.000912588
0.00253947
0.00086632
0.00417556
0.00672927
0.0133133
0.000732251
0.0178526
0.00160619
0.0120713
0.0133448
0.000768192
0.0118549
0.00133537
0.00581636
0.00530463
0.000787309
0.000712129
0.000617222
0.00348918
0.000586666
0.00141049
0.0102963
0.0266186
0.00299237
0.00339149
0.000563599
0.00145836
0.00920711
0.000532032
0.0132424
0.000481365
0.00418852
0.00175542
0.0145784
0.0297787
0.00249184
0.000423
0.00937845
0.000393369
0.00231334
0.00538124
0.0225843
0.0335506
0.00408054
0.000387305
0.00870145
0.000371382
0.000350605
0.00199864
0.00124632
0.00269374
0.00916771
0.000174875
0.0111549
0.000285838
0.000189745
0.00361677
0.000120136
0.00425128
0.00436867
0.0357005
0.0355385
6.30576e-05
0.0036985
0.020582
0.0259385
5.5e-06
0.0216151
0.0053
0.034317
0.0016585
0.010312
0.020617
2.13035e-05
0.0139105
0.0237305
0.0070135
0.0094685
0.0071935
0.0156835
0.026052
0.0354005
0.035812
0.005682
0.019542
0.015472
0.0229235
0.0075485
0.0125355
0.0298935
0.0292435
0.0043005
0.0288955
0.0210055
0.025497
0.0098885
0.000150556
5.93485e-05
0.010835
7.96816e-05
0.001777
0.0201255
0.019772
0.0173735
0.024772
0.0104435
0.029375
0.0109285
0.0326405
0.029762
0.001637
0.021297
0.0056035
0.019647
0.00503
0.0025405
0.007825
0.0269085
0.0173135
0.009052
0.033173
0.011737
0.0195735
0.0031685
0.003212
0.0227185
0.029882
0.0239335
0.0119405
0.0324185
0.0232635
0.004097
0.029727
0.0231735
0.028472
0.0105135
0.023812
0.031627
0.0158705
0.0088835
0.0147705
0.0259535
0.0069585
0.0070335
0.04559
0.017927
0.0176
0.0306535
0.0077885
0.0021635
0.0229052
0.0117635
0.0166035
0.0237805
0.017082
0.0055605
0.009992
0.016052
0.0079635
0.012042
0.0271972
0.0205535
0.010082
0.0240185
0.003865
0.0147335
0.006027
0.0267285
0.0091155
0.000547
0.0265935
0.0164805
0.0068485
0.0143985
1.07875e-05
0.018315
0.009467
0.0068285
0.002662
0.0145705
0.0150985
0.0156185
0.0107505
0.0022755
0.0226755
0.011602
0.0071685
0.0249705
0.0196705
0.0122105
0.0114105
0.015775
0.0235205
0.007272
0.016777
0.011267
0.0003105
0.000967
0.007792
0.0255405
0.006532
0.0233335
0.018505
0.00297402
0.0200155
0.00414651
0.00344379
0.00508888
0.00344053
0.00355223
0.00349752
0.00338318
0.0034757
0.000816749
0.00331569
0.00342937
0.0332223
0.00334624
0.00884113
0.00325547
0.00324811
0.00302824
0.00354523
0.0128379
0.000425959
0.0456432
0.00306241
0.0029231
0.00317119
0.00303189
0.00296236
0.00540409
0.00287988
0.00292335
0.00287829
0.026765
0.00459663
0.00318532
0.00280728
0.0020105
0.0128744
0.00562514
0.00258717
0.00262188
0.00269419
0.00255906
0.00259503
0.00523842
0.00260475
0.0319158
0.0279946
0.00219313
0.002386
0.00240323
0.00250168
0.0112464
0.000321047
0.00230753
0.00227413
0.00227951
0.00238159
0.0106133
0.0128777
0.00529847
0.00226715
0.00632482
0.00222389
0.0020848
0.00843463
0.00207583
0.0140153
0.00208163
0.00215255
0.00332171
0.00209533
0.00209602
0.0022838
0.00196044
0.00380289
0.0019948
0.00201351
0.000104347
0.00183254
0.0136472
0.00194811
0.017555
0.00191227
0.0376946
0.00187134
0.00179823
0.00180012
0.0100819
0.00168744
0.00182647
0.00169569
0.00165256
0.00147025
0.000999733
0.00853123
0.00166451
0.0164471
0.00219469
0.00427582
0.00152034
0.00144267
0.00157028
0.00573218
0.00144404
0.00717658
0.00140766
0.00133315
0.00147345
0.00310269
0.00125593
0.00158508
0.00437955
0.000875668
0.00144735
0.00854643
0.00129866
0.00141876
0.021471
0.00136443
0.00348515
0.0101467
0.000936283
0.00235071
0.00544229
0.00238739
0.00124866
0.0092464
0.0176795
0.00120747
0.00122305
0.00119488
0.00112003
0.00714731
0.000917265
0.00815552
0.00564865
0.000893117
0.018225
0.00799102
0.00596553
0.000921395
0.00100901
0.000938207
0.00370909
0.00075386
0.000879846
0.000959989
0.00207056
0.000864114
0.00659574
0.0213414
0.000683696
0.0110266
0.00090649
0.000636398
0.000839095
0.00397323
0.0502086
0.000723703
0.00071333
0.00685815
0.002618
0.00729513
0.0115677
0.00170359
0.00308939
0.0104826
0.00310371
0.000456377
0.00317478
0.000493839
0.0138763
0.000466639
0.00726115
0.00172749
0.000435332
0.0308925
0.0014823
0.000506841
0.00027
0.000320752
0.0414003
0.000290952
0.000393442
0.00097114
0.000189463
0.000402167
0.00417566
0.000247232
0.000224013
0.0313038
0.00689279
0.0021165
0.00881004
0.0819605
0.0105238
0.0182555
0.0266735
0.001747
0.01044
0.0068805
0.0509685
0.0088505
0.0034805
0.0184185
0.028752
0.0376935
0.038287
0.0173635
0.009375
0.0278455
0.034247
0.035687
0.016485
0.0088635
0.0194185
0.0304855
0.012512
0.000154143
0.0354
0.01327
0.0047535
0.031617
0.0380185
0.00132615
0.0371485
0.0442905
0.008197
0.008127
0.0425835
5.04576e-05
0.0435385
0.0313435
0.049032
0.038977
0.0424835
0.0012805
0.0448355
0.018372
0.007382
0.04849
0.047715
0.0339735
0.0147255
0.0149035
0.012025
0.00175608
0.0333866
0.0276785
0.0461585
0.019682
0.0324285
0.026152
0.0113385
0.041062
0.0321805
0.0471635
0.0141405
0.025762
0.0307535
0.0184805
0.036392
0.0003035
0.0370855
0.0396131
0.031865
0.0023085
0.0046535
0.0192905
0.000171
0.022962
0.0279935
0.015825
0.0425935
0.042082
0.0143
0.0375605
0.0450285
0.0200305
0.0048235
0.037445
0.0148635
0.0345885
0.0049185
0.0337705
0.0217485
0.0168735
0.0037085
0.0263905
0.017047
0.0087585
0.044887
0.024292
0.0161305
0.0055405
0.0132785
0.0025885
0.034677
0.029272
0.0451605
0.0146855
0.0018735
0.0009505
0.0436085
0.0232055
0.021297
0.0446455
0.013817
0.004627
0.00571427
0.0180705
0.0366455
0.040003
0.0378985
0.021547
0.013077
0.031777
0.00690801
0.0129785
0.0033235
0.0153235
0.0275585
0.0436735
0.0274155
0.012872
0.00131242
0.0042405
0.012257
0.0304705
0.021757
0.014407
0.0305755
0.0126955
0.0413155
0.0090435
0.0172955
0.030582
0.0407505
0.0408735
0.0122135
0.0377785
0.0011905
0.00366751
0.0390855
0.03326
0.0226985
0.0127235
0.016028
0.0409685
0.0088955
0.0172735
0.032702
0.011565
0.0330355
0.00758
0.0414585
0.0193885
0.0409135
0.0080935
0.0136555
0.023865
0.0072335
0.04094
0.0199355
0.0263785
0.0393555
0.0301635
0.0028055
0.0387405
0.004652
5.71163e-06
0.035357
0.002717
0.0166555
0.000737
0.0337235
0.0142835
0.006532
0.0421585
0.0036215
0.0332705
0.0073
0.0033605
0.0250385
0.0191535
0.026587
0.0169885
0.011482
0.012097
0.0230285
0.0223269
0.0239185
0.0035155
0.007597
0.019055
0.019447
0.0284335
0.025347
0.024252
0.0272155
0.0026185
0.00332717
0.00543647
0.00376221
0.00331381
0.0110354
0.00321271
0.000435811
0.00314365
0.00717146
0.00866517
0.00312569
0.00299908
0.0310949
0.00312294
0.00249999
0.00297724
0.00321873
0.00311041
0.0103857
0.000354576
0.00316121
0.00598575
0.00412037
0.00303569
0.0034142
0.00289489
0.00389449
0.0105402
0.00282818
0.00293323
0.00297798
0.00366458
0.00308139
0.0025727
0.000190942
0.00154834
0.00251354
0.00256836
0.002423
0.0491215
0.00251695
0.00251904
0.0069448
0.00359571
0.00227055
0.00572196
0.00260015
0.00521805
0.0492423
0.00297743
0.00253306
0.00226045
0.00420466
0.0187611
0.00459467
0.00283229
0.00219233
0.00686982
0.00244658
0.0756776
0.00253541
0.0108724
0.00497143
0.00228707
0.000726294
0.00800386
0.00718418
0.00223143
0.00235134
0.0222662
0.00258978
0.00398128
0.00229957
0.0206698
0.00191898
0.00281797
0.00864777
0.0193839
0.00240634
0.00226644
0.00214996
0.00215288
0.00112302
0.00195731
0.00354433
0.00696529
0.00200873
0.0023135
0.0228204
0.0291544
0.00941915
0.00203585
0.00321433
6.42248e-05
0.00164962
0.00232917
0.0017272
0.0141404
0.00427594
0.0015903
0.0130397
0.0020753
0.00199306
0.00156664
0.00345452
0.00158988
0.0331938
0.046874
0.00139773
0.00266988
0.00419541
0.00155034
0.00765409
0.00270335
0.012945
0.00155402
0.0152519
0.00141564
0.0342183
0.0218282
0.00143149
0.00255067
0.00128269
0.00126164
0.0190107
0.0052301
0.00216023
0.00123367
0.00112932
0.0427598
0.00129282
0.005822
0.00130273
0.00106255
0.00417645
0.00129266
0.0161835
0.00122504
0.000897209
0.0012641
0.00522247
0.000955077
0.0632905
0.00102317
0.000967488
0.000946338
0.00114498
0.00109908
0.00620095
0.0351242
0.0407039
0.000735381
0.000907989
0.00113483
0.00101195
0.000995772
0.000856709
0.00672824
0.000699928
0.00088946
0.00323717
0.0264258
0.00585598
0.00407284
0.000853739
0.00101751
0.000705298
0.013916
0.00486057
0.000476326
0.000428201
0.057798
0.000725123
0.0582814
0.0397104
0.00500772
0.0503605
0.0231336
0.000257292
0.000622859
0.0309305
0.031312
0.045615
0.165498
0.0108105
0.0192135
0.0107805
0.0552335
0.0532132
0.0745135
0.0279285
0.0783885
0.000265502
0.00535979
0.018917
0.0561645
0.0215905
0.000238324
0.0277485
0.004957
0.018432
0.00521
0.0680913
0.071552
0.0098355
0.000282639
0.031305
0.0217535
0.021685
0.00479132
0.0819785
0.0020805
0.025257
0.0473585
0.0496155
0.047532
0.025827
0.0138735
0.0845885
0.081022
0.0832705
0.022547
0.012182
0.0046285
0.0703885
0.0785935
0.0470755
0.045935
0.077822
0.0264385
0.000297824
0.0069585
0.0453955
0.083185
0.0157585
0.0711785
0.0612685
0.06559
0.07138
0.0435255
0.0173905
0.037347
0.0522605
0.0554385
0.0065555
0.0584905
0.0004305
0.036495
0.0505605
0.0056185
0.0190785
0.0221435
0.043477
0.0362285
0.0611655
0.041915
0.0771435
0.009662
0.00335503
0.082087
0.0182835
0.018032
0.0253635
0.000439057
0.010862
0.000144777
0.0617335
0.000174248
0.0528235
0.0245005
0.057835
0.062622
0.0303985
0.053682
0.0592305
0.0791585
0.0259435
0.0083755
0.043503
0.045422
0.0726185
0.02412
0.0257635
0.00568
0.00691
0.00330896
0.031802
0.061317
0.000933915
0.0441285
0.07688
0.0112235
0.0198103
0.0207635
0.0035235
0.019985
0.0133835
0.025482
0.0705885
0.0172085
0.0611805
0.0083085
0.028595
0.0304935
0.054922
0.0473455
0.026155
0.0163
0.0140885
0.0397585
0.0300335
0.0069205
0.0565556
0.0778185
0.0742855
0.049212
0.0776505
0.002592
0.0268485
0.01483
0.056757
0.0456855
0.062597
0.0291085
0.062342
0.0243955
0.0733805
0.0691635
0.0675905
0.038055
0.044377
0.022662
0.0553385
0.056282
0.056767
0.00263071
0.0320185
0.017767
0.041542
0.0671855
0.0694135
0.0491685
0.0116805
0.0356985
0.097342
0.03786
0.000325993
0.000225585
0.013407
0.0218235
0.00275676
0.052022
0.0458455
0.0048955
0.0002485
0.070787
0.014502
0.053637
0.035097
0.0499635
0.0744205
0.0703485
0.0053235
0.0093285
0.00033194
0.0377555
0.0555335
0.0608085
0.0017685
0.018067
0.041887
0.0446755
0.005567
0.032492
0.104602
0.0674135
0.0357705
0.0601205
0.024457
0.0053735
0.0061135
0.061977
0.05132
0.0034335
0.03996
0.0270585
0.0458905
0.000117
0.0244235
0.0106355
0.0290485
0.00488917
0.023273
0.0569835
0.045485
0.048857
0.065195
0.0298785
0.00675448
0.031197
0.0052085
0.0474535
0.0255255
0.0423835
0.0149085
0.0182935
0.070187
0.123045
0.000295945
0.0628655
0.064797
0.045322
0.0465555
0.0088605
0.05137
0.0516335
0.006747
0.00519
0.038675
0.0329635
0.0024985
0.006097
0.034967
0.0508585
0.066257
0.010187
0.0273555
0.0631005
0.0196833
0.0313905
0.0089085
0.0328055
0.00573558
0.0660705
0.003502
0.0328035
0.021047
0.001757
0.0100405
0.027807
0.0540405
0.0484405
0.0044105
0.031192
0.0192905
0.065557
0.0858485
0.0345735
0.0130535
0.0515805
0.0253055
0.058212
0.0067105
0.040747
0.040905
0.0161579
0.0292605
0.0177155
0.0378685
0.058942
0.0124055
0.0280385
0.0034835
0.0049605
0.0446185
0.0020455
0.0108348
0.058242
0.056022
0.0094985
0.00347695
0.0043155
0.064427
0.0590785
0.0431755
0.00413
0.049382
0.062445
0.047527
0.015807
0.0164355
0.0105532
0.0278905
0.0028313
0.001667
0.0185454
0.012422
0.037247
0.0192885
0.024787
0.0051885
0.0200465
0.0120905
0.006967
0.0520035
0.0495885
0.0289085
0.0446285
0.019922
0.0296005
0.011757
0.0278335
0.0015485
0.05162
0.0225885
0.0357889
2.72491e-05
0.0048705
0.0525035
0.052397
0.0144055
0.051352
0.0004355
0.0246885
0.0914805
0.0344785
5.37834e-05
0.00125081
0.0161755
0.038892
0.0031785
0.0155205
0.0477755
0.0360935
0.029085
0.003032
0.031815
0.034395
0.0088035
0.0467785
0.0390705
0.0157051
0.0011055
0.0185285
0.0313085
0.018272
0.035402
0.018037
0.0254805
0.0050985
0.005323
0.0284435
0.0028805
0.0168685
0.018002
0.0315485
0.0483705
0.0095285
0.006357
0.0462055
0.00975
0.051182
0.0482205
0.0225385
0.023832
0.0218985
0.0468005
0.006167
0.0530785
0.0491305
0.009432
0.0194155
0.0171455
0.0319935
0.0410735
0.0418035
0.0183655
0.021775
0.0067035
0.0083105
0.0019105
0.037955
0.036992
0.0373735
0.0396505
0.0237835
0.0431385
0.006312
0.012935
0.034237
0.0070515
0.058357
0.0479505
0.0319505
0.0494955
0.001467
0.000395099
0.0842385
0.024887
0.050707
0.0103735
0.0463955
0.031625
0.0356605
0.0127185
0.0142905
0.026275
0.000877
0.0527555
0.041615
0.0138605
0.0080005
0.049275
0.10361
0.0068285
0.0429955
0.0227135
0.031652
0.062647
0.0356585
0.001497
0.0318035
0.036322
)


// ************************************************************************* //
