/*--------------------------------*- C++ -*----------------------------------*\
  =========                 |
  \\      /  F ield         | OpenFOAM: The Open Source CFD Toolbox
   \\    /   O peration     | Website:  https://openfoam.org
    \\  /    A nd           | Version:  7
     \\/     M anipulation  |
\*---------------------------------------------------------------------------*/
FoamFile
{
    version     2.0;
    format      ascii;
    class       vectorField;
    location    "0.7/lagrangian/reactingCloud1";
    object      U;
}
// * * * * * * * * * * * * * * * * * * * * * * * * * * * * * * * * * * * * * //


2457
(
(134.82 9.762 0)
(136.088 12.1533 0)
(137.872 13.4894 0)
(139.201 5.55081 0)
(139.986 0.594855 0)
(144.915 18.3319 0)
(147.36 18.5929 0)
(143.312 3.74951 0)
(149.333 12.0481 0)
(155.321 17.456 0)
(145.975 2.56575 0)
(153.061 8.94709 0)
(149.146 4.69391 0)
(151.284 5.18748 0)
(156.288 5.7723 0)
(153.908 4.51899 0)
(144.674 -3.11392 0)
(154.351 3.26587 0)
(155.471 2.40956 0)
(155.88 1.20802 0)
(155.009 1.43017 0)
(152.706 1.61542 0)
(154.38 1.08993 0)
(153.251 1.2371 0)
(154.513 0.0508894 0)
(152.242 0.422374 0)
(152.783 0.696925 0)
(153.951 0.115393 0)
(153.84 -0.211429 0)
(152.874 -0.30331 0)
(153.561 0.141276 0)
(153.634 0.0146674 0)
(153.556 -0.0167042 0)
(152.928 0.194207 0)
(153.074 0.251816 0)
(153.332 0.0576674 0)
(153.12 0.204974 0)
(153.097 0.0464716 0)
(153.245 -0.0660641 0)
(152.887 -0.19564 0)
(153.199 0.0548845 0)
(48.8657 2.05417 0)
(-4.43548 -1.50423 0)
(-8.32235 -0.636815 0)
(84.1984 -28.7155 0)
(129.439 -35.8148 0)
(69.6089 -8.47567 0)
(127.598 -30.083 0)
(140.151 -23.5423 0)
(138.458 -22.3188 0)
(118.802 -25.6732 0)
(135.119 -21.4312 0)
(89.9793 -11.5272 0)
(136.337 -17.3722 0)
(128.857 -18.9432 0)
(128.444 -16.1041 0)
(142.975 -3.29949 0)
(85.9733 -9.24507 0)
(127.707 -13.0723 0)
(129.977 -9.85958 0)
(115.462 -14.7084 0)
(111.867 -13.1585 0)
(129.026 -7.13545 0)
(102.508 -11.5516 0)
(92.8673 -9.27993 0)
(113.007 -10.0918 0)
(106.607 -9.28493 0)
(119.787 -6.57301 0)
(99.0788 -10.203 0)
(122.826 -2.00624 0)
(119.318 -4.48745 0)
(117.329 -4.64649 0)
(106.557 -4.20836 0)
(110.193 -4.03467 0)
(100.482 -0.806913 0)
(102.576 3.88702 0)
(108.101 -1.65742 0)
(109.708 -1.41931 0)
(109.117 -0.601469 0)
(113.763 -0.666655 0)
(117.769 -0.99483 0)
(115.907 -0.0986033 0)
(118.489 -0.366892 0)
(113.027 1.00793 0)
(110.96 2.34589 0)
(111.42 2.64391 0)
(101.666 1.3836 0)
(115.581 2.11375 0)
(110.721 4.57441 0)
(111.454 5.14132 0)
(120.425 0.452693 0)
(116.722 3.85927 0)
(116.344 5.28876 0)
(89.851 7.38769 0)
(118.279 5.08623 0)
(113.426 7.94862 0)
(123.047 1.44197 0)
(108.279 4.89838 0)
(123.725 4.4522 0)
(120.693 8.30263 0)
(115.75 11.1741 0)
(113.64 12.348 0)
(113.652 13.6916 0)
(104.625 16.1039 0)
(127.32 9.63055 0)
(122.275 16.3238 0)
(125.541 16.3409 0)
(132.398 8.11455 0)
(126.952 20.7594 0)
(298.282 -16.2681 0)
(301.354 -11.6107 0)
(291.75 -32.0572 0)
(269.786 -45.0146 0)
(265.65 -58.0474 0)
(267.307 -17.4714 0)
(264.05 -34.2507 0)
(254.065 -20.0838 0)
(235.064 -42.4457 0)
(182.021 -49.9697 0)
(167.557 -48.2949 0)
(210.38 -29.8996 0)
(186.177 -46.8701 0)
(187.972 -31.4298 0)
(190.617 -25.7047 0)
(183.486 -33.5373 0)
(179.128 -49.9109 0)
(189.068 -15.079 0)
(166.332 -41.5129 0)
(172.522 -31.2087 0)
(151.389 -37.5331 0)
(152.412 -32.2566 0)
(146.237 -33.359 0)
(150.317 -30.8855 0)
(154.937 -20.8498 0)
(138.206 -31.5759 0)
(406.606 -0.466104 0)
(396.778 -0.429404 0)
(393.421 -2.0464 0)
(393.626 -0.883895 0)
(372.81 -8.20187 0)
(362.797 -5.57598 0)
(356.934 -21.6243 0)
(359.503 -4.5004 0)
(346.786 -21.7537 0)
(314.453 -9.15847 0)
(341.81 9.03998 0)
(424.062 2.41913 0)
(438.449 0.825748 0)
(437.52 2.80361 0)
(426.189 1.90469 0)
(401.808 3.38074 0)
(439.094 -1.16317 0)
(403.847 1.54848 0)
(429.115 3.48119 0)
(432.286 0.857934 0)
(431.219 0.41558 0)
(423.803 6.27509 0)
(415.872 4.31625 0)
(417.011 5.28278 0)
(403.223 -0.0927942 0)
(399.576 -21.5683 0)
(442.367 -0.0639014 0)
(452.905 -5.23451 0)
(436.505 -0.214583 0)
(407.277 6.0874 0)
(442.475 -0.0388865 0)
(441.708 -0.0499067 0)
(418.363 2.33426 0)
(442.226 -0.00663535 0)
(440.505 0.272398 0)
(377.937 -5.11539 0)
(415.9 -1.76766 0)
(398.719 -0.0834569 0)
(439.312 0.304015 0)
(436.737 2.96771 0)
(440.062 0.38028 0)
(405.299 0.220529 0)
(439.632 0.506851 0)
(440.087 -1.58827 0)
(439.55 0.483954 0)
(412.014 0.33584 0)
(445.736 0.0552841 0)
(445.396 -0.595103 0)
(433.95 -3.32382 0)
(446.621 0.00326552 0)
(371.874 8.72882 0)
(450.937 -6.71528 0)
(445.268 0.0439924 0)
(443.418 -1.71048 0)
(414.23 -5.93257 0)
(397.914 -0.975135 0)
(446.836 -0.321216 0)
(444.916 -9.85944 0)
(444.978 0.0197181 0)
(435.521 -4.04479 0)
(443.04 0.147922 0)
(444.096 0.0165881 0)
(446.95 1.04509 0)
(443.757 -0.000784466 0)
(416.826 -2.63771 0)
(443.898 -0.00247496 0)
(414.867 0.0776823 0)
(416.894 2.82379 0)
(400.069 9.57824 0)
(443.942 -0.00608591 0)
(447.095 -2.03172 0)
(441.98 -1.88211 0)
(442.735 -2.16691 0)
(379.198 -1.52492 0)
(435.852 -7.33762 0)
(438.53 -1.71039 0)
(441.966 -2.01133 0)
(448.659 -1.93911 -0.0338474)
(361 7.62249 0)
(365.427 18.4845 0)
(433.42 -5.20855 0)
(392.81 0.960832 0)
(447.057 -4.05582 0)
(387.278 -0.123629 0)
(447.099 0.010606 0)
(434.631 1.36237 0)
(439.472 -5.3542 0)
(426.8 -5.08027 0)
(381.21 5.12085 0)
(447.279 0.00926725 0)
(445.991 -2.7612 0)
(415.177 3.35485 0)
(393.177 6.32187 0)
(420.569 -0.491331 0)
(443.572 -1.34661 0)
(447.023 0.014237 0)
(388.873 1.59978 0)
(398.148 -1.29928 0)
(418.682 -1.42139 0)
(360.06 10.2183 0)
(427.274 1.71856 0)
(446.172 0.329293 0)
(445.047 0.795514 0)
(446.736 0.0239771 0)
(442.467 -2.55501 0)
(365.034 2.66983 0)
(446.535 -4.54988 0)
(446.542 -1.67707 0)
(390.752 6.73681 0)
(437.793 1.54315 0)
(411.382 0.022652 0)
(447.008 0.00240914 0)
(442.394 2.54113 0)
(426.993 3.55258 0)
(418.233 -0.35464 0)
(435.05 -2.94437 0)
(441.586 -0.183557 0)
(446.324 -0.130717 0)
(446.114 0.0432017 0)
(384.944 -0.407216 0)
(438.606 12.6556 0)
(443.186 -12.364 0)
(449.031 -0.269575 0.00470546)
(446.385 -0.448869 0.00783504)
(446.6 -0.0347113 0)
(446.44 0.966929 0)
(446.508 0.894 0)
(404.276 -1.53666 0)
(446.431 -1.84994 0)
(424.972 -3.78257 0)
(448.036 0.00154285 0)
(391.632 -1.02545 0)
(414.733 0.152416 0)
(405.702 -2.43607 0)
(429.452 0.311675 0)
(447.852 0.00394222 0)
(454.358 -4.72117 0)
(433.066 -0.168008 0)
(448.051 0.000602393 0)
(458.543 -30.3069 0)
(447.85 0.00367488 0)
(441.388 -4.7541 0)
(447.423 -7.00964 0)
(412.56 3.44079 0)
(378.06 7.86666 0)
(399.371 6.11912 0)
(419.771 4.16718 0)
(444.658 -0.781451 0)
(440.448 -6.69804 0)
(447.604 0.00589479 0)
(439.09 9.99419 0)
(399.888 6.91228 0)
(446.992 0.340874 0)
(450.974 4.3441 0)
(377.838 -6.39681 0)
(447.914 0.00267171 0)
(447.882 0.00334686 0)
(450.83 -4.77668 0)
(447.534 0.00717411 0)
(431.037 4.35956 0)
(366.666 5.55618 0)
(446.443 -2.42286 0)
(447.67 0.00514495 0)
(426.708 3.49713 0)
(406.632 -0.21811 0)
(447.358 0.00860896 0)
(446.223 -0.90935 0)
(310.382 8.35542 0)
(449.424 6.04614 0)
(362.516 8.30507 0)
(398.657 -4.61013 0)
(438.36 -0.195469 0)
(426.915 2.35683 0)
(407.56 -0.0302572 0)
(414.864 2.32536 0)
(419.38 4.83966 0)
(447.369 0.00773056 0)
(447.216 -0.291092 -0.00508103)
(449.108 0.478517 -0.828815)
(447.754 -0.59262 2.78806)
(449.215 -0.0118259 0.00294854)
(443.675 -2.15967 -0.0376971)
(448.106 0.012225 -0.00570063)
(447.267 0.178982 0.0834608)
(448.038 0.0216825 -0.000757171)
(445.768 -0.14082 -0.00245802)
(448.277 0.288405 0.128406)
(449.598 -1.20074 -0.0209589)
(448.127 -0.528344 -0.00922228)
(300.748 11.3706 0)
(349.316 -3.29278 0)
(420.265 6.89344 0)
(398.188 -3.97697 0)
(413.913 -0.433474 0)
(389.712 2.28343 0)
(446.261 0.278675 0)
(433.258 -10.2883 0)
(419.259 4.57414 0)
(438.564 -7.69846 0)
(405.265 -0.493334 0)
(411.525 1.79812 0)
(386.347 -8.38425 0)
(440.635 3.53276 0)
(401.651 -1.71246 0)
(432.719 2.93865 0)
(447.749 -0.147428 0)
(409.449 -3.532 0)
(445.374 0.584372 0)
(404.661 -0.986405 0)
(389.079 2.20358 0)
(437.118 -1.91797 0)
(449.045 0.337998 0)
(437.044 0.073825 0)
(440.659 -1.06582 0)
(402.766 -0.783872 0)
(446.711 1.17415 0)
(441.18 -3.65951 0)
(440.866 -0.163202 0)
(440.511 1.42634 0)
(448.13 -0.00474077 -0.271599)
(393.753 -2.34484 0)
(373.407 7.58076 0)
(446.676 -0.400306 0)
(399.824 0.430034 0)
(414.331 7.61086 0)
(418.185 4.87897 0)
(359.169 9.95163 0)
(427.979 2.17108 0)
(407.17 1.31288 0)
(432.097 -2.27204 0)
(447.581 2.24108 0)
(446.883 5.54483 0)
(431.562 0.136576 0)
(415.712 0.561228 0)
(432.604 -5.95571 0)
(447.248 0.515842 0)
(384.956 0.339947 0)
(450.997 -0.601309 0)
(388.461 -0.560228 0)
(397.262 -1.44084 0)
(445.492 -4.9762 0)
(412.945 -0.198236 0)
(448.207 0.239292 0)
(447.848 -1.20336 0)
(409.89 -4.93572 0)
(415.984 -0.51854 0)
(421.494 -2.44381 0)
(446.14 -0.532734 0)
(430.298 0.27527 0)
(392.229 5.34381 0)
(448.021 0.00132802 0)
(447.937 0.281221 0)
(446.93 -0.436521 0)
(443.314 -7.05499 0)
(413.536 5.77372 0)
(419.041 0.35166 0)
(441.412 2.39255 0)
(445.606 0.628457 0)
(443.163 -0.113703 0)
(420.219 -0.35806 0)
(440.609 -11.7409 0)
(448.058 0.00146935 0)
(370.197 7.18204 0)
(382.888 6.11801 0)
(447.895 0.00309067 0)
(385.114 0.608324 0)
(447.982 4.03877 0)
(434.242 -0.729851 0)
(446.731 -1.77901 -0.0310527)
(447.969 0.0274066 -0.0229969)
(446.013 -0.847223 -0.0147883)
(448.434 -0.36432 -0.00635923)
(445.438 -0.563418 0.507304)
(448.14 -1.42498 0.024873)
(447.989 0.384476 1.97796)
(447.403 0.00119933 0.0687093)
(448.263 -3.46654 0.0605087)
(448.752 1.56382 1.35941)
(448.286 -2.96428 0.0517417)
(447.108 -0.581857 0.0101564)
(450.485 -2.3862 0.0416514)
(444.777 -0.842209 -0.0147008)
(448.752 -1.96095 0.0342285)
(447.693 -2.01609 -0.035191)
(447.599 0.0124165 -0.71134)
(448.605 0.776722 0.136957)
(450.203 -3.20889 -0.0560114)
(444.446 -0.386378 -0.531804)
(447.991 0.11183 0.148404)
(448.496 0.0529545 -0.00933731)
(453.361 -0.79104 -0.0138077)
(448.089 -1.10743 -0.0193303)
(446.632 -0.504302 0)
(448.354 -0.294728 0.420915)
(448.971 2.74023 3.63641)
(450.53 -1.74851 0.0305204)
(447.281 0.830327 -0.989545)
(449.426 -0.314186 -0.00548414)
(447.288 -2.79262 7.67265)
(449.136 -0.424403 0.00740798)
(449.564 -2.69158 -0.0469817)
(449.342 -2.16722 -0.037829)
(306.175 9.68675 0)
(326.078 5.59677 0)
(327.226 12.599 0)
(354.309 1.41223 0)
(383.155 -0.763661 0)
(396.239 4.68976 0)
(403.937 -5.74663 0)
(357.48 14.5094 0)
(369.693 7.37458 0)
(396.297 -1.50611 0)
(383.279 -0.798628 0)
(392.29 -4.37205 0)
(439.634 -5.69936 0)
(385.792 -1.28194 0)
(427.781 -4.16038 0)
(429.972 -18.91 0)
(317.084 -21.6212 0)
(399.401 0.344561 0)
(448.792 0.484383 0)
(439.682 -0.815217 0)
(401.61 0.559695 0)
(419.497 -4.60554 0)
(432.196 0.972492 0)
(384.246 -2.07294 0)
(381.373 23.6256 0)
(397.946 -4.45979 0)
(444.089 -0.0107351 0)
(439.104 -7.98796 0)
(383.792 0.199619 0)
(394.696 -2.07594 0)
(396.846 0.142759 0)
(415.74 -8.06492 0)
(343.897 6.20765 0)
(363.888 1.37911 0)
(419.037 1.02379 0)
(447.884 0.201543 0)
(361.795 -2.55225 0)
(411.05 0.265421 0)
(439.549 -0.777015 0)
(436.608 -8.40632 0)
(381.694 0.0859277 0)
(402.46 2.87141 0)
(413.471 1.34011 0)
(415.337 1.97633 0)
(439.708 -1.25962 0)
(401.404 0.50198 0)
(437.175 6.53038 0)
(432.716 12.9125 0)
(385.383 5.1006 0)
(348.316 -1.22399 0)
(429.716 -0.899838 0)
(397.34 5.60739 0)
(447.769 0.225376 0)
(447.254 -0.0532614 0)
(418.696 5.29878 0)
(418.287 0.281864 0)
(448.46 -5.87974 0)
(435.474 1.89365 0)
(436.59 -0.258386 0)
(333.789 -1.44679 0)
(444.399 0.114791 0)
(384.887 -3.00892 0)
(433.64 1.29966 0)
(359.123 17.9137 0)
(439.733 0.748319 0)
(445.7 5.92192 0)
(446.357 0.261593 0)
(407.896 0.0764889 0)
(446.125 -4.69699 0)
(354.974 17.8934 0)
(371.767 8.35739 0)
(432.016 -4.84978 0)
(450.051 -3.65354 0)
(446.674 3.77799 0)
(403.302 4.88928 0)
(429.685 0.57277 0)
(414.464 -2.18729 0)
(378.047 6.88192 0)
(403.467 -2.74535 0)
(434.755 1.04818 0)
(417.746 -0.690035 0)
(443.957 2.62472 0)
(432.058 1.83699 0)
(445.006 -7.37926 0)
(435.719 -2.36273 0)
(410.917 6.64267 0)
(410.106 -1.49999 0.0261824)
(415.989 -1.79092 -0.0312606)
(441.659 -0.292985 -0.575015)
(425.866 -0.682559 0.785194)
(436.747 0.0305268 -0.0939518)
(450.274 -3.47656 0.0606836)
(416.946 -0.944092 0.0164792)
(445.895 -0.977159 0.0170564)
(432.947 -0.337434 0.00588994)
(444.909 -0.667256 -0.011647)
(417.855 -1.42902 -0.728125)
(440.262 -1.89 0.0329901)
(436.503 -2.75032 0.048007)
(447.213 -0.693599 -0.856523)
(415.709 0.185768 -1.76747)
(423.716 -5.69038 -0.0993259)
(449.7 -0.699495 0.0122097)
(445.959 -0.00201181 -3.51163e-05)
(448.748 0.616322 -1.89684)
(446.968 -0.337136 0.00588474)
(442.932 -1.56942 3.21779)
(433.379 -0.324979 -0.00567254)
(413.479 -2.10876 -0.0368086)
(416.032 -7.87829 -0.137516)
(400.774 -3.64643 -0.0636487)
(428.249 -0.545727 -0.00952571)
(447.132 -0.0667088 -0.0988999)
(410.719 -3.15403 0.331502)
(409.198 -5.64275 0.593076)
(445.127 -0.0476842 -0.1071)
(446.482 0.223997 -0.00390988)
(413.747 -1.34473 0.685175)
(440.604 -2.29073 -0.0399849)
(446.929 -0.0619168 -0.00108076)
(446.789 0.00508958 -0.00117502)
(413.561 -0.657375 -0.0114745)
(445.615 -5.25203 0.0916746)
(416.622 0.595336 0.115722)
(411.794 0.48929 -0.112961)
(415.17 -1.87527 0.0327329)
(445.917 -0.455664 -0.00795364)
(426.977 -0.259315 0.00452636)
(421.752 0.289874 0.717463)
(445.933 -0.00313517 0.00282292)
(419.115 -4.03813 0.0704858)
(424.957 -6.33273 -0.110538)
(447.399 -2.85934 0.04991)
(414.631 -0.288719 0.00503961)
(445.719 -1.19288 -0.125377)
(442.521 1.9914 4.47275)
(445.602 -3.05916 0.0533978)
(446.189 -0.0299696 -0.000523122)
(420.698 -0.198731 0.0386294)
(444.558 -1.22257 -2.50664)
(450.231 -0.810255 -0.0141431)
(442.897 -1.37975 -0.0240836)
(447.625 -0.632671 -0.205567)
(445.779 0.00534432 0.0508478)
(409.681 -15.1069 0.263692)
(405.903 -20.1965 -0.352532)
(449.9 -7.93894 0.138575)
(426.173 -1.4115 -0.0246378)
(428.152 0.00640333 -0.0329423)
(447.578 -0.0794971 -0.00138763)
(399.846 1.09126 3.35856)
(410.94 -0.325702 0.00568515)
(408.499 0.187783 -0.00327776)
(412.671 -1.64198 0.0286608)
(391.264 -1.87304 -0.644938)
(442.472 1.55824 0.0544148)
(429.254 -2.62292 -0.0457833)
(448.034 -0.308715 0.00538863)
(446.869 -0.345478 0.00603035)
(415.968 0.174837 -0.538092)
(446.893 -0.927585 -0.016191)
(439.143 -3.7843 2.95662)
(446.41 -0.402472 0.00702518)
(436.736 -3.55651 5.27275)
(408.129 4.79528 2.76856)
(448.972 1.22892 -1.69146)
(310.026 -0.0356948 0)
(416.74 -2.44884 0.0427446)
(315.336 -0.175491 0)
(323.836 0.947121 0)
(321.29 17.343 0)
(441.126 -1.9182 0.0334823)
(326.097 8.76251 0)
(317.696 10.1823 0)
(409.726 -9.05301 -0.158021)
(347.712 -17.417 0)
(338.698 7.30442 0)
(319.357 -0.0793008 0)
(344.58 0.069181 0)
(362.323 -4.20977 0)
(385.829 3.80533 0)
(387.247 -2.68685 0)
(360.796 0.37675 0)
(348.641 7.59993 0)
(360.288 0.0268872 0)
(375.404 -2.13828 0)
(358.22 14.1088 0)
(331.636 -29.0826 0)
(398.19 2.12862 0)
(323.761 3.66266 0)
(322.714 -10.5874 0)
(340.563 5.34474 0)
(416.672 0.365689 0)
(379.409 0.566005 0)
(422.74 4.84176 0)
(415.759 -0.986028 0)
(379.53 3.92556 0)
(400.498 -0.0628724 0)
(352.614 12.2241 0)
(374.588 1.88997 0)
(402.969 -0.984354 0)
(367.39 2.35376 0)
(349.882 0.0687324 0)
(421.255 2.3463 0)
(359.396 4.43283 0)
(355.758 -2.0932 0)
(362.884 -17.058 0)
(367.334 5.53975 0)
(308.537 0.85056 0)
(390.925 3.02969 0)
(358.597 -10.0146 0)
(424.244 -6.63825 0)
(367.339 4.11398 0)
(390.879 1.32292 0)
(405.216 -4.32442 0)
(383.96 0.6379 0)
(396.24 -16.1597 0)
(394.568 0.488499 0)
(392.528 -7.67883 0)
(405 -0.121822 0)
(393.679 3.14655 0)
(383.534 1.43903 0)
(394.086 -5.73045 0)
(360.665 1.65053 0)
(397.389 -0.306995 0)
(399.716 -2.10794 0)
(379.411 -7.19166 0)
(421.288 -3.86849 0)
(386.606 4.54146 0)
(418.728 -5.64966 0)
(398.155 -4.38013 0)
(360.372 0.899627 0)
(434.456 -0.491689 0)
(406.751 -2.19457 0)
(356.565 1.18308 0)
(433.049 -0.233484 0)
(444.938 -2.39243 0.0417599)
(381.399 -7.87047 0)
(339.843 2.3744 0)
(351.957 13.0388 0)
(417.397 -2.12256 0)
(389.138 0.195623 0)
(405.455 6.2754 0)
(408.058 -1.60549 0)
(379.427 0.306402 0)
(392.339 -8.08368 0)
(399.964 0.260753 0)
(360.426 5.05323 0)
(430.187 -2.00521 0)
(364.886 10.6326 0)
(431.079 -1.8736 0)
(344.02 12.8865 0)
(331.457 -0.218849 0)
(387.491 -5.45367 0)
(350.219 -0.961494 0)
(449.597 -1.2298 0)
(417.215 0.447887 0)
(446.71 -3.83231 0)
(408.672 -0.451366 0)
(424.834 9.4774 0)
(360.432 23.6621 0)
(399.127 -2.98558 0)
(418.803 0.410357 0)
(410.833 1.08666 0)
(352.649 0.416054 0)
(385.074 4.93086 0)
(449.013 1.76214 0)
(423.932 3.10377 0)
(428.27 -4.1233 0)
(376.951 -1.04758 0)
(428.96 -0.757058 0)
(407.557 6.93267 0)
(358.529 -1.50004 0)
(397.001 -6.35808 0)
(443.256 1.11469 0)
(444.7 -0.23129 0)
(398.055 2.82394 0)
(368.421 7.99303 0)
(417.788 -0.565865 0)
(386.603 11.0903 0)
(339.756 7.0919 0)
(388.959 9.36734 0)
(380.294 1.22987 0)
(291.651 6.29831 0)
(439.948 2.25472 2.03016)
(440.384 1.23404 0)
(443.561 -6.89703 0)
(433.079 11.2111 0)
(406.276 -7.36282 0)
(394.132 -3.34878 0)
(429.18 6.61891 0)
(413.427 -2.3163 0)
(448.156 -1.41774 0)
(367.699 1.89094 0)
(385.261 -6.4237 -0.112126)
(380.107 -3.12759 0.0545922)
(372.089 -3.0558 0.0533392)
(372.335 -7.98595 0.139395)
(382.194 -0.610515 0.0106566)
(366.456 -10.1289 0.176801)
(394.541 -1.7704 0.0309025)
(387.569 -6.12806 0.106966)
(370.199 6.05713 1.28748)
(379.808 -0.668252 0.0116644)
(375.29 -1.88653 0.0329295)
(378.623 2.42456 -6.001)
(376.993 -2.99472 -0.0522731)
(353.213 1.3466 0.0470242)
(363.125 -3.86269 0.0674236)
(374.699 -3.12705 -0.0545829)
(355.903 -2.6003 5.84037)
(378.887 -2.94304 0.0513709)
(381.589 0.0550465 -0.258973)
(386.852 -14.9953 0.261744)
(367.134 0.518628 -1.22181)
(389.179 -3.1314 -0.0546588)
(373.671 -18.1865 0.317446)
(364.867 -3.16896 0.0553143)
(347.946 -4.66158 0.0813682)
(382.588 -4.22052 -2.15046)
(380.793 -0.989165 0.321399)
(374.488 -5.33729 0.0931628)
(360.023 -0.603106 -0.0105273)
(374.443 8.25761 7.70035)
(401.186 0.419091 -1.28983)
(375.887 -2.37755 -1.42857)
(374.965 12.7614 -0.222751)
(390.672 -2.1544 -0.0376053)
(387.328 -6.84133 0.119416)
(370.216 -0.0573697 0.00100139)
(366.141 -11.2917 -0.197097)
(361.733 -0.724668 -0.0126491)
(354.011 -3.17379 -0.0553987)
(362.296 -3.58084 -0.0625038)
(365.379 -7.85043 0.13703)
(367.366 -0.453939 0.0718968)
(364.017 -6.27857 -0.109593)
(365.155 -6.11393 4.95097)
(360.228 7.16261 0.250124)
(362.705 -2.24394 -0.0391681)
(362.47 -0.803407 -0.185481)
(403.582 -3.89952 -0.0680663)
(396.814 -2.48336 -0.0433473)
(386.912 0.440231 0.864003)
(391.138 -1.70241 0.0297158)
(360.116 -1.98332 -0.034619)
(355.241 -2.73736 -3.76766)
(362.709 -16.1938 3.73864)
(386.63 -8.43682 -0.147265)
(396.652 2.33007 -3.58799)
(388.808 -2.53361 -0.0442242)
(358.669 -13.5094 -8.11726)
(390.366 -1.11565 -0.0194737)
(374.43 3.19798 1.84635)
(365.233 -3.16162 3.63703)
(397.396 -0.137349 -0.00239744)
(385.479 -0.0166533 -0.000290685)
(392.779 -0.244107 -0.0042609)
(390.953 -0.224482 0.460257)
(387.036 3.63981 2.01758)
(385.269 -15.8422 0.276526)
(385.995 -2.41372 -0.0421316)
(348.646 -14.7083 0.256735)
(390.034 2.25698 0.733338)
(340.558 -8.22182 9.45812)
(357.283 -7.05854 -0.123207)
(393.391 -3.63312 -0.0634163)
(395.217 1.13589 0.529675)
(413.339 10.6759 -2.66181)
(394.234 10.1883 1.9804)
(362.405 -2.20273 0.0384488)
(380.776 -7.34477 0.128203)
(376.878 -0.37886 0.00661302)
(384.309 -14.373 -0.250881)
(392.37 -2.53923 -5.70321)
(361.077 0.392232 0.0905539)
(395.42 -3.3662 -2.7259)
(395.973 -3.08383 0.0538285)
(408.432 -4.231 -0.0738523)
(362.917 -13.1852 -0.230148)
(377.942 -7.23699 -0.126322)
(380.687 -6.71337 0.117182)
(371.152 3.53269 -16.62)
(397.112 -1.19099 0.188634)
(357.567 5.75934 0.20112)
(361.07 -1.02685 -0.0179238)
(393.232 -2.8103 1.43192)
(348.407 -4.83417 0.0843808)
(409.803 -5.64451 -0.0985253)
(365.51 -2.25227 0.0393136)
(397.053 -2.48885 -0.043443)
(392.937 -1.42703 -0.0249089)
(375.23 -1.24631 0.0217544)
(390.518 -5.61288 -0.0979732)
(371.654 4.5305 -8.89161)
(372.587 -1.99999 -0.0349099)
(357.165 -0.457108 4.34909)
(384.417 12.5392 0.218872)
(391.334 -9.7114 0.169513)
(397.332 4.00408 0.851093)
(386.345 -4.58672 -0.482084)
(358.833 0.530612 1.19177)
(383.116 0.166884 1.18744)
(398.341 -2.00711 -0.0350342)
(395.063 -3.92752 -0.0685551)
(353.741 -4.70148 0.0820647)
(382.097 -0.311789 -0.61192)
(390.656 -0.29878 0.00521523)
(417.19 -7.06972 -0.123402)
(369.228 24.2344 -0.423013)
(391.28 -8.99304 0.156974)
(401.581 -2.74268 0.0478737)
(378.435 1.84342 0.032177)
(371.902 6.33158 -15.6712)
(384.268 -5.3197 0.0928558)
(404.627 -3.34762 -0.0584329)
(368.272 -9.48082 0.165488)
(366.397 2.62143 7.61317)
(378.492 -13.3171 -0.232451)
(373.218 -5.5642 0.0971235)
(381.033 -0.352326 -0.00614987)
(368.061 -10.3563 -0.18077)
(350.985 11.1733 2.7858)
(368.03 -5.10561 -0.0891188)
(387.639 2.71805 -1.56927)
(357.405 -15.3917 -0.268663)
(368.661 -0.0584392 0.00925586)
(369.108 1.29925 -6.11251)
(373.48 -0.967081 0.0168805)
(377.094 -0.71921 1.19697)
(384.161 -5.89876 1.25382)
(381.285 -1.46583 0.0255861)
(397.788 -9.01342 -10.7418)
(392.578 1.46099 3.28143)
(371.598 -9.26737 -0.161763)
(402.565 -4.58713 4.13027)
(388.954 11.244 -9.77423)
(377.301 -1.04558 -0.0182507)
(363.784 -4.62149 0.0806685)
(392.159 9.05408 27.8656)
(398.548 -9.88056 -0.172466)
(401.86 -1.51651 -0.0264707)
(400.747 -8.67269 0.151382)
(363.666 6.90308 1.4673)
(375.755 -5.11202 0.0892306)
(401.848 -2.29722 -0.0400981)
(403.928 -6.08462 0.106207)
(362.413 -0.623977 0.0108916)
(394.307 15.4813 8.93815)
(395.706 -1.38047 0.0240961)
(389.666 -2.09451 0.0365598)
(390.19 -0.375228 0.736427)
(412.749 -6.56795 -0.114644)
(379.519 -11.6483 5.93512)
(388.981 -22.826 0.39843)
(405.796 -5.75516 0.100457)
(370.879 -9.01592 0.157373)
(373.106 -3.36651 0.0587626)
(365.506 -5.19818 0.0907345)
(397.094 -6.25568 0.109193)
(395.249 -27.1912 -0.474624)
(384.354 34.6855 0.605438)
(381.815 -0.902521 -0.0157536)
(400.388 1.6811 -3.77581)
(391.349 -1.05397 0.224028)
(366.316 -12.4986 -0.218163)
(361.277 15.5705 -8.63084)
(371.422 -33.4035 0.583061)
(385.686 -9.03567 -0.157718)
(368.407 -0.363195 0.0063396)
(409.073 -3.2919 -0.0574602)
(396.784 -15.9721 -0.278795)
(386.063 -1.1808 0.020611)
(370.621 -7.7778 -0.135762)
(375.717 4.93221 15.1798)
(412.65 -14.2074 -0.247991)
(355.641 2.89288 0.829521)
(400.145 -0.759899 0.0132641)
(393.96 -3.40941 -0.0595115)
(391.933 -5.44593 -0.095059)
(410.271 -10.8392 0.1892)
(378.513 -0.831089 15.8581)
(373.622 -0.743023 -1.10158)
(374.407 6.77438 -3.91119)
(388.708 -4.60789 -0.0804311)
(380.322 -21.4623 -0.374625)
(382.994 1.20959 -0.0633917)
(403.582 -0.0249815 0.000436054)
(386.923 -28.591 0.499058)
(382.165 -0.193116 -0.00337085)
(358.866 1.74861 -16.6369)
(410.127 -11.344 -0.19801)
(350.541 -5.50891 8.1673)
(424.431 6.26763 3.61862)
(257.916 22.0204 0)
(371.17 -3.00861 0.0525155)
(399.731 -3.07258 -0.0536321)
(406.298 -2.4745 -5.55782)
(368.252 -2.88931 -6.48951)
(285.396 10.5681 0)
(404.453 -2.26261 0.039494)
(329.877 -2.40412 0)
(343.431 0.870385 0)
(300.607 8.84696 0)
(336.06 0.164746 0)
(347.05 0.259899 0)
(343.127 -34.483 0)
(259.028 17.1333 0)
(359.041 -2.05211 0)
(348.16 3.32811 0)
(358.589 2.00166 0)
(359.753 -1.94863 0)
(329.314 0.93402 0)
(295.223 0.974755 0)
(332.859 13.5146 0)
(361.338 -0.235243 0)
(351.74 -1.75086 0)
(363.923 4.85561 0)
(367.814 -4.16826 0)
(329.864 7.12181 0)
(317.421 16.3578 0)
(256.274 10.5809 0)
(349.928 -10.3421 0)
(351.557 -4.47937 0)
(357.954 -0.917834 0)
(348.45 10.3069 0)
(326.982 -1.38369 0)
(340.522 -10.9092 0)
(364.235 0.659697 0)
(329.301 24.7487 0)
(368.389 0.188317 0)
(333.62 3.25166 0)
(329.718 -5.93395 0)
(341.434 5.76328 0)
(335.284 2.12396 0)
(310.135 -0.248277 0)
(352.074 25.4138 0)
(346.016 3.58585 0)
(367.031 -0.0823201 0)
(296.862 7.86758 0)
(358.582 2.65717 0)
(351.57 -1.07937 0)
(316.272 0.0343768 0)
(378.107 -14.1022 0)
(351.357 3.24545 0)
(365.041 0.00676289 0)
(370.079 0.0871977 0)
(343.486 0.931618 0)
(394.797 -16.8758 0)
(347.677 -0.0686493 0)
(380.027 -5.11103 0)
(354.244 22.4887 0)
(363.429 3.00813 0)
(363.9 10.9913 0)
(320.993 2.02723 0)
(327.167 1.72566 0)
(365.715 0.779158 0)
(342.551 -0.0266748 0)
(407.955 1.59344 -0.456911)
(387.482 -0.822995 0)
(361.894 0.328932 0)
(381.702 5.56508 0)
(337.747 -2.46518 0)
(344.961 6.39515 0)
(354.985 8.10994 0)
(369.386 -0.787983 0)
(367.882 -0.454801 0)
(362.522 -0.950428 0)
(367.142 4.42038 0)
(340.804 -4.28906 0)
(368.495 -0.928722 0)
(355.95 -18.918 0)
(336.646 -0.254861 0)
(381.459 12.0573 0)
(365.529 -0.349523 0)
(321.585 -7.50955 0)
(348.386 -1.57784 0)
(340.817 11.5543 0)
(347.369 13.9989 0)
(358.411 -3.4871 0)
(286.872 0.0389367 0)
(354.533 10.0989 0)
(345.997 -0.455241 0)
(332.827 17.6884 0)
(368.509 -2.07741 0)
(370.77 -2.70782 0)
(380.111 -5.24531 0)
(384.753 -13.1808 0)
(369.734 -2.06837 0)
(374.261 2.29622 0)
(353.688 -11.3618 0)
(373.091 -2.59922 0)
(365.086 1.86004 0)
(368.911 3.96666 0)
(360.839 -5.43824 0)
(383.142 -0.129893 0)
(333.435 1.04262 0)
(320.913 8.07502 0)
(393.507 -1.55326 0)
(323.322 -14.6652 0)
(377.259 0.608981 0)
(407.884 -15.3754 -0.268379)
(365.713 2.36955 0)
(383.877 -0.0624625 0)
(383.04 0.390601 0)
(335.459 -2.14262 0)
(394.02 3.9208 0)
(384.924 -0.353525 0)
(348.035 5.90924 0)
(377.394 3.45489 0)
(384.763 -0.521301 0)
(316.371 6.18535 0)
(381.593 -0.245496 0)
(377.234 -1.03471 0)
(390.956 0.283967 0)
(366.729 -0.322528 0)
(356.454 9.48452 0)
(400.304 -0.799392 0)
(377.505 1.02297 0)
(305.9 6.64509 0)
(386.754 -1.77144 0)
(377.324 1.79468 0)
(400.282 -0.85066 0)
(397.267 -8.90466 0)
(347.745 1.99118 0)
(363.468 0.748036 0)
(361.947 5.96415 0)
(386.758 -2.12713 0)
(393.918 1.95284 0)
(365.832 -0.170609 0)
(377.154 -2.37358 0)
(273.137 34.9532 0)
(377.493 13.5607 0)
(404.033 -7.97315 0.139172)
(310.848 10.4061 0)
(320.446 16.4718 0)
(392.915 -3.55362 0)
(367.119 -0.472479 0)
(369.201 1.30011 0)
(403.49 0.212384 0)
(375.851 3.64349 0)
(398.777 -12.4604 0)
(412.777 2.40545 0)
(380.807 -0.816317 0)
(363.356 4.65256 0)
(343.844 -6.97862 0.121812)
(343.467 -7.44013 -0.129868)
(339.274 -12.5002 -0.218192)
(318.046 7.9798 6.93673)
(358.973 -20.4532 -0.357011)
(352.247 -10.46 -0.18258)
(334.748 -3.81552 0.811015)
(341.769 -6.8026 0.11874)
(338.317 2.49227 6.16858)
(364.808 -11.4463 0.199795)
(357.21 -6.78709 0.118469)
(327.701 -20.5568 -0.35882)
(336.813 -9.71681 0.169608)
(356.115 -7.66699 -0.133828)
(337.494 2.94124 4.04827)
(349.133 4.11396 0.0718095)
(350.734 0.0816861 -0.0188587)
(341.673 -6.90344 -0.1205)
(321.613 14.6442 -12.288)
(338.365 -2.97803 0.0519818)
(351.448 -7.06323 -0.123289)
(347.062 -0.891424 0.0155599)
(356.382 -15.54 -0.271251)
(347.233 -11.3223 0.197632)
(345.102 -3.69967 -4.25598)
(343.324 -1.16895 -0.0204041)
(336.291 0.763493 -1.05086)
(344.843 -0.969276 -0.0169188)
(348.618 13.8419 -2.94219)
(368.997 -9.97655 -3.05014)
(345.746 1.53421 -0.326107)
(341.488 -2.32067 -0.0405074)
(346.227 -1.97001 0.0343866)
(337.232 6.14451 -13.8008)
(336.922 -5.33899 -0.0931924)
(346.53 -10.8506 0.189397)
(333.432 -2.99712 0.0523149)
(339.731 -1.38519 -0.0241786)
(350.117 -0.433563 -0.00756787)
(341.967 -0.251774 2.39547)
(364.183 -4.53767 -0.0792053)
(374.544 3.67414 -9.09383)
(335.658 -2.55467 -2.93881)
(347.096 2.94508 6.61477)
(333.535 -7.24762 0.126508)
(332.524 -1.97632 -0.0344968)
(354.093 -0.638975 -0.0111533)
(340.585 -12.1315 0.211756)
(345.821 -2.04374 0.43441)
(353.373 -18.9462 0.330707)
(352.143 -0.681031 0.0118874)
(337.164 4.02313 3.37581)
(343.729 -3.04663 -0.0531792)
(334.481 -5.37023 0.0937377)
(359.148 -17.0893 0.298295)
(341.262 -0.25437 -0.00444005)
(351.906 0.66407 -0.557221)
(353.006 -2.08809 -0.0364477)
(326.614 -5.28402 0.0922329)
(355.225 -0.33821 0.00590348)
(318.286 -2.14517 0.0374442)
(346.569 -2.78041 0.0485322)
(342.254 -11.6817 0.203906)
(336.518 -1.37897 0.0240699)
(338.702 -2.98217 -0.052054)
(343.633 1.68355 -3.96618)
(370.532 -0.802773 1.98693)
(331.662 -2.04172 0.0356384)
(376.92 -22.8156 -0.398248)
(349.663 1.91741 4.74576)
(351.11 0.856459 2.01769)
(339.947 -2.81326 -0.0491056)
(350.295 -2.21491 0.0386613)
(352.117 -3.40234 -0.0593881)
(348.54 -1.39054 -0.024272)
(340.551 -3.88711 0.0678497)
(369.542 -24.9693 -0.43584)
(350.514 3.39966 -8.41445)
(355.876 -1.96135 0.381248)
(337.754 0.0348907 -0.0783659)
(327.343 1.0926 -0.232239)
(340.091 -7.06944 -0.123397)
(336.486 -2.35411 -0.0410911)
(345.261 -1.36712 -0.0238631)
(343.294 0.72194 -1.6215)
(354.104 -8.34931 0.145738)
(356.7 -9.22373 0.161001)
(323.681 -14.111 -2.9994)
(337.704 -0.260001 0.00453834)
(338.368 -20.2268 0.35306)
(362.012 4.16489 -0.961541)
(355.838 -0.553729 -3.14035)
(338.622 -0.0218974 0.00038222)
(348.464 -3.5709 -0.0623304)
(353.979 0.280575 0.630182)
(354.339 3.40801 7.65452)
(353.535 -5.63395 -0.0983409)
(338.503 -0.833961 0.0145568)
(359.161 -8.37609 -0.146205)
(347.673 -3.62715 -4.99234)
(353.217 -0.54741 -0.00955507)
(356.004 3.17033 -2.75593)
(353.009 -6.0177 8.28265)
(341.415 -5.89757 0.102943)
(361.855 -9.82237 -0.17145)
(342.732 -2.03684 -0.0355532)
(335.013 -12.2877 -0.214483)
(344.119 -6.13036 -0.107006)
(318.302 -13.3424 -0.232892)
(320.729 -18.0301 0.314717)
(350.034 -5.73813 0.100159)
(344.465 -0.0505425 1.44735)
(348.956 -2.22035 0.0387563)
(358.186 -2.13973 0.0373491)
(334.116 -0.14432 -0.00251911)
(332.769 -0.3446 0.073247)
(340.61 -0.862336 1.43517)
(373.184 -9.22122 1.79242)
(335.986 -1.88513 -0.0329052)
(337.613 -11.8025 0.206013)
(341.867 -7.86152 -0.137223)
(336.006 -2.05246 -0.0358258)
(349.912 -3.55167 -0.0619946)
(333.631 -12.8028 -0.223474)
(366.417 -5.12426 -0.996055)
(334.814 -7.42794 8.54487)
(346.478 -2.13869 -0.0373309)
(341.052 -7.99297 -0.139518)
(303.547 -7.4607 0.130227)
(331.02 5.14159 -7.07679)
(334.92 -18.4607 0.322233)
(344.801 -1.00369 0.0175195)
(361.89 -1.95864 0.0341882)
(354.883 0.811434 -1.82251)
(346.648 2.2597 1.96432)
(314.554 -16.0558 -0.280255)
(357.268 -2.77002 -0.0483508)
(343.258 1.27971 0.0446886)
(355.859 -0.0467221 0.000815537)
(346.475 -9.81009 -0.171236)
(338.24 -4.91815 0.0858466)
(343.649 -2.17803 0.0380176)
(335.759 -2.22957 0.0389173)
(356.012 -8.24965 -0.143998)
(350.19 -11.3914 -0.198837)
(343.699 -5.87565 -0.10256)
(319.088 11.9607 10.3973)
(355.732 -0.246321 -0.00429954)