/*--------------------------------*- C++ -*----------------------------------*\
  =========                 |
  \\      /  F ield         | OpenFOAM: The Open Source CFD Toolbox
   \\    /   O peration     | Website:  https://openfoam.org
    \\  /    A nd           | Version:  7
     \\/     M anipulation  |
\*---------------------------------------------------------------------------*/
FoamFile
{
    version     2.0;
    format      ascii;
    class       vectorField;
    location    "0.7/lagrangian/reactingCloud1";
    object      UTurb;
}
// * * * * * * * * * * * * * * * * * * * * * * * * * * * * * * * * * * * * * //


2457
(
(0 0 0)
(0 0 0)
(0 0 0)
(0 0 0)
(0 0 0)
(0 0 0)
(0 0 0)
(0 0 0)
(0 0 0)
(0 0 0)
(0 0 0)
(0 0 0)
(0 0 0)
(0 0 0)
(0 0 0)
(0 0 0)
(1.88429 -3.08835 -1.86376)
(0 0 0)
(0 0 0)
(0 0 0)
(0 0 0)
(0 0 0)
(0 0 0)
(0 0 0)
(0 0 0)
(0 0 0)
(0 0 0)
(0 0 0)
(0 0 0)
(0 0 0)
(0 0 0)
(0 0 0)
(0 0 0)
(0 0 0)
(0 0 0)
(0 0 0)
(0 0 0)
(0 0 0)
(0 0 0)
(0 0 0)
(0 0 0)
(0.117841 -2.22628 9.03249)
(-4.1467 -2.51922 -0.637128)
(0.085791 1.62633 -2.17101)
(-15.7067 -3.63161 -2.04433)
(3.50446 -6.61609 0.449525)
(-1.75655 -0.538681 -0.153165)
(4.08078 -1.2844 1.18914)
(0 0 0)
(0 0 0)
(1.68149 -0.665413 -2.22364)
(0 0 0)
(14.9289 -1.79172 -3.77103)
(0 0 0)
(0 0 0)
(0 0 0)
(0 0 0)
(0.0357442 1.01852 1.77871)
(0 0 0)
(0 0 0)
(0 0 0)
(0 0 0)
(0 0 0)
(3.06108 -0.777727 0.675925)
(1.09072 -1.89171 1.83326)
(0 0 0)
(0 0 0)
(0 0 0)
(-2.0063 -5.29718 -0.244779)
(0 0 0)
(0 0 0)
(0 0 0)
(0 0 0)
(0 0 0)
(0.00248799 0.347975 0.354992)
(3.02577 3.72696 -4.8696)
(0 0 0)
(0 0 0)
(0 0 0)
(0 0 0)
(0 0 0)
(0 0 0)
(0 0 0)
(0 0 0)
(0 0 0)
(0 0 0)
(-6.4519 -3.4782 3.17657)
(0 0 0)
(0 0 0)
(0 0 0)
(0 0 0)
(0 0 0)
(0 0 0)
(0.237816 1.21073 -1.32514)
(0 0 0)
(0 0 0)
(0 0 0)
(-0.202768 -3.81273 2.70218)
(0 0 0)
(0 0 0)
(0 0 0)
(0 0 0)
(0 0 0)
(-4.04711 -0.98633 -4.47588)
(0 0 0)
(0 0 0)
(0 0 0)
(0 0 0)
(0 0 0)
(-9.30768 0.0796814 5.67648)
(0 0 0)
(-1.01796 -1.72962 -2.3781)
(-2.9403 2.40284 -2.98526)
(-1.32549 -8.33675 1.97502)
(0 0 0)
(-1.93622 -1.44099 -2.76498)
(0 0 0)
(5.31204 2.91271 0.28525)
(-0.0575242 0.128002 0.026405)
(2.11655 0.516931 0.122501)
(0 0 0)
(-0.7462 0.410767 -1.11665)
(0 0 0)
(0 0 0)
(0 0 0)
(3.09083 -7.90022 -3.22228)
(0 0 0)
(0.347795 1.04405 0.397607)
(0 0 0)
(-2.05559 0.365562 -0.635564)
(0 0 0)
(2.68883 2.93878 1.70877)
(0 0 0)
(0 0 0)
(0 0 0)
(0 0 0)
(0 0 0)
(0 0 0)
(-0.164296 1.67098 0.79921)
(0.0077335 -0.0092899 0.0160576)
(0 0 0)
(-5.52834 -11.6201 -1.95291)
(0 0 0)
(-1.05517 -9.88374 -7.92257)
(0 0 0)
(-4.89543 7.87262 5.33752)
(-1.22773 1.06577 0.428083)
(0 0 0)
(0.719104 1.33913 -1.33548)
(-3.39897 -0.0969745 -0.785424)
(-1.7456 1.51533 0.608656)
(4.04663 -2.81029 0.826455)
(-4.51676 -0.749772 -0.208777)
(-3.11336 1.44723 -2.07788)
(0 0 0)
(0 0 0)
(-2.501 4.31111 -3.19681)
(-0.208684 2.12243 1.01513)
(-2.59322 4.17031 2.82741)
(-0.456463 -0.27751 -0.207876)
(-11.2781 -21.6776 2.39022)
(0 0 0)
(11.2101 -5.13824 -2.14859)
(7.18309 0.0402299 0.347716)
(-8.09042 6.47275 -4.27597)
(0 0 0)
(0 0 0)
(-12.4793 2.50773 2.56159)
(0 0 0)
(-0.347674 0.264742 0.999151)
(-13.8099 -5.07872 -1.26175)
(5.93057 -1.86477 7.33743)
(-6.08666 -0.173656 -1.40649)
(-0.180866 -0.185673 0.0906298)
(-1.78993 2.27598 1.48813)
(0 0 0)
(-0.784299 -0.47682 -0.357174)
(0 0 0)
(1.62652 -2.50868 0.898565)
(0 0 0)
(-0.0730299 0.636153 -0.359693)
(0 0 0)
(-0.138616 -0.66001 2.59861)
(-5.91941 -3.34733 1.53924)
(1.40491 -0.0708977 -0.161175)
(13.3645 8.66978 -1.58011)
(10.4926 -6.72803 0.964329)
(0 0 0)
(-0.181277 -1.77155 -0.335431)
(-11.7072 -5.79413 -4.89801)
(-1.48986 -0.569378 1.27669)
(2.39656 -0.375208 -2.50725)
(0.658137 -9.90188 0.57751)
(0 0 0)
(-8.81899 -4.07466 -0.416046)
(0.688642 0.138688 0.235472)
(0 0 0)
(7.48501 1.08828 1.79126)
(0 0 0)
(11.8885 -2.21267 2.76288)
(0 0 0)
(2.62192 0.453208 -1.36677)
(4.24043 3.20173 8.04272)
(1.5555 10.0964 2.53525)
(0 0 0)
(4.14061 -1.98277 -2.08387)
(-0.378623 -1.80731 -0.591819)
(0.0914573 -2.10165 0.829559)
(-0.625858 -0.903525 1.16212)
(-6.66757 -7.26531 -0.710289)
(-4.1057 -1.64493 1.47348)
(0.188106 -1.90114 -0.62283)
(1.15535 -1.93941 2.8595)
(-0.740041 7.54002 1.39391)
(4.2287 18.2727 1.57682)
(-13.8384 -5.21713 -1.67872)
(0.0818742 1.50458 1.56081)
(-0.0180459 -4.06662 -2.63078)
(3.32976 0.422118 1.59323)
(0 0 0)
(6.38686 1.60883 0.198779)
(-6.99448 -5.36416 -0.0475434)
(0.591631 -4.81138 -1.69352)
(-1.50436 5.66226 -1.929)
(0 0 0)
(-0.971745 -2.77457 -2.16337)
(-2.06082 3.72218 1.81177)
(5.57143 6.8688 -2.74984)
(0.30118 -0.159234 0.326887)
(-0.911186 -1.33294 -1.26937)
(0 0 0)
(-9.72561 2.09892 3.09039)
(-0.653211 -0.801172 1.96906)
(0.380749 -1.0896 -2.63424)
(-22.4752 10.742 -0.688187)
(2.8945 1.97599 0.895972)
(-0.461819 0.304136 0.220679)
(-0.609577 0.767409 -0.385119)
(0 0 0)
(4.62162 -2.48308 -3.36907)
(0.253373 2.97601 -1.78059)
(0.32706 -4.59435 -0.945864)
(0.2078 -1.71645 -5.90895)
(5.30175 7.23426 -5.47748)
(0.0686507 1.58271 1.82636)
(-2.78296 0.336765 -0.428688)
(0 0 0)
(-1.21008 2.50316 -2.54516)
(-1.13476 3.70336 3.23116)
(-6.03508 -0.16207 -2.55816)
(-1.65814 -2.90617 3.88291)
(-0.656118 -0.21173 0.474381)
(0.428736 -0.186197 0.30323)
(0 0 0)
(-3.53758 0.0591847 7.09212)
(10.3529 12.7813 -0.0612258)
(-2.78917 -12.4086 -0.118739)
(0.998097 -0.269616 0.664574)
(-1.43553 -0.448938 -1.01879)
(0.508558 -0.0112725 -0.514926)
(-1.13005 0.963592 -1.68549)
(-0.535888 0.899654 1.80585)
(2.29131 -1.0097 3.64302)
(3.37913 -1.77502 -2.51395)
(9.0009 -3.35739 -1.29558)
(0 0 0)
(0.0260637 -0.472445 0.48976)
(-0.710522 0.580868 -0.681273)
(0.0164289 -1.93119 2.17427)
(0.207624 0.585113 0.45909)
(0 0 0)
(6.69633 -4.72585 -4.14527)
(2.55296 0.0886497 1.56155)
(0 0 0)
(10.9139 -30.3121 -5.27575)
(0 0 0)
(-6.20588 -4.75937 -0.0421831)
(-0.235698 -7.01468 0.620965)
(-3.24527 3.8613 7.333)
(8.94029 8.20632 0.753866)
(0.64827 6.6565 -2.69339)
(9.52806 4.63494 -2.54059)
(-2.68109 -0.787903 -0.626665)
(-5.41679 -6.67977 1.57931)
(0 0 0)
(1.67689 10.1441 -0.453557)
(-4.14657 7.4211 -2.19778)
(0.0722865 0.33973 1.56123)
(3.50127 4.338 4.37514)
(3.14987 -5.93618 3.71689)
(0 0 0)
(0 0 0)
(3.29875 -4.78345 -1.10681)
(0 0 0)
(-4.19882 4.53292 -0.429626)
(-4.90904 5.97545 -2.22705)
(0.020389 -2.42037 0.126778)
(0 0 0)
(0.691985 3.78829 2.93882)
(-0.0691907 0.264509 -0.139228)
(0 0 0)
(1.12606 -0.886992 -0.597358)
(-2.34269 7.67668 2.71194)
(2.30045 6.0368 -2.53167)
(-3.79465 8.59571 0.956291)
(2.39528 -4.07155 2.0137)
(0.373601 -0.0700114 -0.0273993)
(0.4641 2.63539 -4.181)
(-0.225801 0.437686 0.67351)
(6.16938 2.78521 -0.124)
(-1.96071 5.17542 1.93181)
(0 0 0)
(-0.904177 -0.291137 2.08927)
(0.987016 -0.957034 -0.832182)
(-0.369435 -2.85034 0.0199735)
(1.09186 -0.012188 0.369849)
(-4.43495 -2.16 1.95863)
(-1.13915e-05 -0.0134888 -0.00715483)
(-0.837144 -0.197485 2.75394)
(-0.0644455 -0.0216958 -0.230209)
(-2.35533 -0.140842 1.03253)
(0.176362 -0.315698 0.339679)
(1.48044 -1.20092 -2.15372)
(0.00449538 -0.528424 0.594938)
(3.18834 10.8159 -1.99564)
(8.27908 -3.56697 1.81634)
(0.886826 7.30687 -1.9287)
(-3.18866 -3.42175 -7.12892)
(1.53997 0.0457874 1.66499)
(2.89694 2.86806 2.26626)
(-0.719221 0.298329 -1.72135)
(-14.8024 -10.2888 0.915214)
(-4.568 4.93796 -1.50339)
(1.51782 -7.50983 9.46494)
(0.0966906 0.0322327 -0.362491)
(4.01359 2.30965 -0.713235)
(17.4126 -7.97938 25.7821)
(-3.70198 3.60144 -1.59662)
(3.94201 -1.15574 1.83965)
(-0.42326 3.1832 -1.7888)
(0.00793172 -0.143775 0.149044)
(-3.6513 -3.06582 0.971298)
(9.23421 0.785141 2.37318)
(-1.35127 -0.470746 -0.0567919)
(0.486922 2.76498 -4.3866)
(-5.67143 -1.82366 1.54977)
(1.1145 0.338232 0.057065)
(-1.09592 0.243435 -0.0440349)
(5.5656 -0.851051 0.495678)
(7.46621 -0.227707 2.06025)
(-0.989976 1.1779 2.23695)
(5.98329 -3.44681 -7.08244)
(-0.00593515 -0.0386549 0.0456363)
(2.37837 1.59418 1.12403)
(0.0356611 -0.27164 0.384513)
(-1.62434 -1.7951 -0.956311)
(-4.74827 8.07611 -2.48353)
(-1.38465 -0.402056 -0.641461)
(-0.0282308 0.968357 0.406468)
(13.6588 8.14719 1.82847)
(1.77216 5.31119 0.489555)
(4.71505 9.84528 -30.7568)
(5.18233 2.53807 -0.0974929)
(-2.42467 1.79874 0.316423)
(-0.95853 -2.0335 0.424528)
(-0.330801 2.23961 -1.36069)
(0.216596 5.56542 -0.664116)
(0.43583 0.400412 -0.0184623)
(1.49684 1.01039 2.70965)
(3.3713 -5.66712 1.93266)
(-0.786598 0.514271 -0.852878)
(-1.33479 0.876571 -2.68901)
(2.93058 -0.602611 -2.26491)
(-0.0686156 -0.0176592 -0.0170679)
(-19.5098 -1.0155 -2.67394)
(-2.38737 -4.97868 -2.82271)
(0.492564 0.263672 -1.54884)
(0.660384 0.241197 -0.000934092)
(0.127593 -1.20415 -0.253433)
(-1.08598 -4.4636 -0.140213)
(-0.024614 -0.0885476 -0.0606549)
(-0.214637 -2.0707 -0.781539)
(-0.988852 -0.523156 0.600301)
(0.129759 0.547237 0.579037)
(0.281715 5.8904 -2.10909)
(0 0 0)
(0.455985 0.284063 0.372873)
(-0.652087 -0.435559 0.0475504)
(-3.20966 -7.03425 0.57319)
(12.6244 6.30424 -0.257057)
(0.629053 0.758382 -1.33584)
(2.05937 2.53289 4.17795)
(-0.623323 0.654125 -0.331826)
(-0.101405 -0.0370824 -0.909909)
(1.53452 0.0456253 1.6591)
(9.25882 -11.486 -11.3806)
(0 0 0)
(0.60639 7.51071 3.55036)
(0.709766 6.63368 1.33584)
(0 0 0)
(3.06885 1.12321 3.07184)
(0.636467 4.04055 -1.13694)
(-0.159108 -0.520091 0.0461118)
(-1.28198 -1.77928 1.26455)
(-0.0977289 -0.0357768 0.0887619)
(-2.06257 -0.847352 1.25678)
(0.360586 -0.364376 -0.474731)
(-2.6434 -0.758154 1.74074)
(0.049098 -1.42519 1.84912)
(-0.079051 -2.01498 0.876886)
(-0.657946 -0.0687198 -0.304059)
(0.21837 -3.46707 0.00557904)
(0.657778 -2.07208 0.971798)
(0.211052 -2.96473 -0.610365)
(-0.987884 -0.581946 -0.189909)
(2.40756 -2.38657 3.72322)
(-3.24605 -0.842337 -2.02007)
(0.651421 -1.96125 1.83442)
(-0.374818 -2.0164 2.95166)
(-0.499798 -0.711448 -0.279673)
(0.536282 -0.788704 -0.572226)
(2.13183 -3.20938 0.717546)
(-3.55495 -0.657346 -0.498975)
(-0.0818821 -0.185821 -0.680568)
(0.44863 -0.0537714 -0.158293)
(5.25354 -0.79116 -1.2372)
(-0.0182734 -1.1076 0.32845)
(-1.45463 -0.504302 4.79577)
(0.289952 -0.513843 0.36046)
(0.899277 -4.55328 7.07548)
(2.43052 -1.74878 0.87628)
(-0.830021 -1.29176 -0.354884)
(1.33499 -0.314234 0.337333)
(-0.821529 -8.16506 2.46393)
(1.02308 -0.424467 0.933343)
(1.45141 -2.69199 0.791034)
(1.25396 -2.16755 -0.915746)
(6.56398 9.18027 -1.71248)
(0.537183 5.30944 1.31359)
(3.62318 12.2911 -2.26782)
(2.67282 1.68544 -0.866455)
(-0.0709826 -0.0182684 -0.0176567)
(-19.9951 5.2452 0.904416)
(-3.27069 -5.09016 -1.39842)
(4.92429 14.7581 1.36032)
(-4.71298 8.01608 -2.46507)
(-4.71238 -0.813591 -9.37346)
(-0.0244832 -0.088077 -0.0603326)
(-3.96288 -3.65993 5.13718)
(4.1974 -5.4477 3.74676)
(3.46599 -0.578054 3.78918)
(-1.79653 -3.81129 0.795674)
(-7.38599 -18.6917 -1.1681)
(-8.08133 -21.9767 0.539523)
(1.5481 1.045 2.80246)
(0.808458 0.48683 0.481725)
(-1.41159 -0.664479 1.4459)
(3.43278 1.25641 3.43612)
(-1.00554 -4.13296 -0.129826)
(-0.0571321 1.27205 -0.530975)
(-2.04138 -1.36353 0.148858)
(19.9899 24.0527 -5.45436)
(0.399497 -3.77021 -0.793504)
(0.154918 0.0829284 -0.48713)
(16.1323 -7.55795 1.61373)
(-3.16885 0.901209 -3.84316)
(0.416343 -1.38443 -0.200818)
(0.687046 0.828298 -1.45899)
(-3.06173 -7.58978 -0.399792)
(-3.20017 6.26877 4.57565)
(3.07477 1.7694 -0.546401)
(-4.74074 1.43066 0.713431)
(0.60668 0.221582 -0.00085813)
(-7.39797 -2.0106 -6.10791)
(-1.23122 0.808554 -2.48035)
(1.46868 -0.586316 -1.38931)
(-11.4435 -8.40529 -0.250904)
(-3.45712 0.767925 -0.13891)
(3.31907 3.5236 3.02326)
(-1.75744 1.84429 -0.935577)
(-2.86392 2.44207 -4.2716)
(-0.806762 -1.11265 -1.87993)
(0.268907 1.13407 1.19997)
(-1.94461 6.70035 1.97194)
(1.17096 13.2002 -5.73329)
(0.276109 5.77318 -2.06712)
(-2.1242 -1.12381 1.28953)
(-0.180433 -0.5898 0.0522923)
(0.609524 6.25866 -2.53242)
(-0.31902 0.225386 -0.242072)
(-0.00540668 -0.035213 0.0415728)
(-6.22785 5.67243 -4.45187)
(1.2027 0.749243 0.983487)
(0.370323 -5.87963 0.00946122)
(4.37152 2.183 -0.0890126)
(0.2113 -0.050086 0.216741)
(-1.16337 -1.75321 1.05584)
(2.90049 0.239797 -0.0589554)
(0.0934112 -2.36222 1.55175)
(-1.90302 1.51995 -1.08799)
(0.707613 18.1821 -2.16965)
(-2.51601 0.859531 -1.96802)
(13.6113 6.19156 2.47987)
(-0.641058 0.283475 -0.435649)
(0.675629 0.620723 -0.0286205)
(-1.73184 -4.69316 -1.28159)
(2.97167 17.9768 -0.803763)
(6.7814 8.76883 2.61033)
(0.37101 -4.57502 2.89911)
(2.92973 -3.63447 -3.6011)
(0.60139 3.81787 -1.07428)
(-1.81312 5.44426 1.74168)
(2.34557 0.902724 -9.8276)
(1.55353 -1.69979 -0.724838)
(-6.95292 7.50616 -0.711427)
(-0.226429 -2.18447 -0.824477)
(-0.753499 1.26498 2.53917)
(-3.42844 -0.288839 -1.38071)
(0.218552 2.70697 1.2796)
(0.46991 2.10843 -0.329289)
(20.3774 -7.0197 -4.01835)
(1.55344 -2.12917 0.976491)
(0.787985 7.14349 -1.18431)
(-0.570182 -1.50022 -0.436544)
(-0.131018 -1.79119 1.09917)
(-0.975132 -0.645354 -1.43716)
(2.85901 -1.04039 -9.3495)
(-0.169264 -0.0987868 0.370379)
(6.61579 -3.47709 -3.15312)
(1.22617 -0.944236 -2.14304)
(0.958524 -0.977308 0.580366)
(5.98681 -0.337486 0.853488)
(-1.35416 -0.667358 1.06317)
(0.795353 -1.60383 1.08102)
(-1.01171 -1.89029 -1.61339)
(2.90809 -2.75074 -4.6136)
(0.164558 -1.10214 -4.48067)
(2.62285 -1.7772 -8.99244)
(1.80667 -5.69124 2.66917)
(2.61056 -0.699602 -0.617362)
(-0.203727 -0.00201212 -0.108646)
(6.7402 -1.99446 -0.327047)
(-0.118874 -0.337188 1.70049)
(3.06449 -3.58012 -1.22996)
(-0.604025 -0.325029 -0.202385)
(4.5148 -2.10908 16.7215)
(5.01874 -7.87949 0.747175)
(-12.8851 -3.64699 2.67198)
(0.315352 -0.54581 -1.18038)
(-0.196223 -0.119295 -0.0893608)
(1.36723 -3.17141 2.81603)
(-0.439567 -5.67383 0.618106)
(-0.887284 -0.117236 0.159747)
(0.0294109 -0.224031 0.317121)
(-0.0901761 -1.50923 0.331548)
(4.41213 -2.29108 -0.859453)
(-0.0244444 -0.0619262 -0.0136364)
(-0.020296 -0.00522346 -0.00504856)
(-0.580365 -0.657475 -0.404702)
(3.4401 -5.25283 4.5165)
(-8.89617 -0.606479 -1.38664)
(-10.9702 -0.50216 11.0296)
(6.87217 -1.87555 2.59166)
(-0.27261 -0.455733 -0.23418)
(0.514927 -0.259354 0.0151079)
(-2.4998 -0.773809 -1.49483)
(-0.0294372 -0.00421879 0.0104726)
(7.39589 -4.03874 -1.14153)
(-3.55919 -6.33369 -0.692577)
(0.140561 -2.85978 -0.591263)
(1.09317 -0.288763 -0.755225)
(0.470338 -1.19945 -0.414559)
(1.42667 -4.89604 -2.55255)
(0.616127 -3.05963 2.65224)
(-1.56279 -0.0299742 -3.40717)
(-1.89994 -0.202451 -0.566934)
(5.57435 -2.78889 -2.02417)
(2.44316 -0.810379 -0.114632)
(3.96175 -1.37996 -0.801725)
(-0.185921 -0.665229 -2.87896)
(0.132185 -0.0511279 0.577929)
(-0.609216 -15.1092 20.8084)
(-7.42787 -20.1996 0.495897)
(2.06107 -7.94015 -0.907568)
(4.78866 -1.41172 4.36933)
(-0.336624 -0.0335588 -0.141968)
(-0.28324 -0.0795092 -0.170498)
(-16.452 -3.5314 -8.8144)
(0.222702 -0.325752 1.33397)
(-0.48733 -0.187812 -0.276164)
(2.97639 -1.64223 1.74762)
(-27.8524 -1.98096 7.17266)
(-4.84893 -1.55919 1.32502)
(-3.1243 -2.62332 0.831108)
(0.0868712 -0.308762 -0.058456)
(-1.08002 -0.345531 1.16295)
(-0.635242 -0.565783 -0.133976)
(-0.279321 -0.927726 -2.10369)
(4.13348 -4.80235 -3.34676)
(-1.55474 -0.402534 4.65988)
(2.01481 -6.36008 0.566343)
(-1.04287 -5.53711 -4.02963)
(1.03495 -2.09076 0.985899)
(3.14489 -0.269896 0.281837)
(-4.21646 -2.44921 -11.4422)
(-2.80342 -0.267497 1.69907)
(-11.6729 1.13059 -5.93431)
(9.73598 17.1667 1.32146)
(0.720793 -1.91849 -10.1004)
(-2.48777 8.84117 2.63128)
(10.8224 9.93387 0.912567)
(0.754749 -9.05439 -0.736645)
(-3.58218 -16.9837 34.9234)
(-2.31204 7.57624 2.67646)
(0.121884 -0.186897 -0.116367)
(-4.76148 0.469805 -2.05703)
(-8.67604 -3.55371 -0.102646)
(3.63024 4.47558 -1.79175)
(-2.81398 -2.04314 -5.95796)
(-7.03907 1.0084 0.932573)
(-4.50007 8.05377 -2.38515)
(4.1191 0.522184 1.97092)
(-0.314474 -1.44935 0.0858159)
(-0.122903 14.637 2.64817)
(6.3707 -29.125 8.68619)
(1.99648 2.72421 -2.06265)
(2.00097 3.56908 -6.14067)
(-9.42049 -10.5064 2.59689)
(0.673487 5.56393 -6.64541)
(6.54552 0.370886 0.118527)
(-1.50537 1.27956 -1.348)
(14.7528 5.0483 -2.88628)
(7.7265 -0.664825 -2.91813)
(3.27019 4.62275 -5.50169)
(-0.751833 0.56384 0.50518)
(-14.7989 12.8502 -3.20986)
(0.111899 2.57978 2.97693)
(-2.85649 -0.386738 -4.49777)
(6.41931 2.89804 -0.129023)
(2.52027 0.39404 -0.908996)
(1.41094 2.34963 -2.08851)
(-22.5996 5.16742 12.2148)
(-2.74169 -1.58795 5.98884)
(-13.8966 -16.3505 -9.06888)
(-2.79678 6.19084 2.7303)
(-0.274569 0.532215 0.818972)
(21.626 3.67367 -5.17793)
(-5.51273 -9.43443 6.91833)
(4.65069 -6.48584 2.51679)
(0.402673 4.72962 -2.8298)
(-13.0722 1.99025 9.75126)
(-6.77871 -3.76405 5.2458)
(0.0752974 1.38372 1.43544)
(-5.08961 -15.433 -5.00633)
(-10.7068 1.18295 -1.38098)
(-7.7504 -6.9436 -15.3023)
(-1.05283 0.57084 -0.664183)
(-1.03748 3.90497 -1.33033)
(8.46233 2.13164 0.263374)
(0.610837 -4.96757 -1.7485)
(-1.74276 2.19399 -1.10104)
(0.482686 0.449484 0.602566)
(-0.612325 -1.36439 1.66537)
(-0.485052 -6.4643 -4.48446)
(2.23556 -3.32537 -1.54514)
(-8.12009 5.30414 -5.47228)
(6.94082 -4.99918 -0.901126)
(0.355802 -3.62402 -3.99544)
(-4.80461 1.47601 0.867633)
(0.792185 -0.329994 6.93197)
(7.64583 -1.44198 -2.28952)
(-2.65038 1.66488 1.06731)
(2.67351 0.120025 0.0675838)
(-0.362256 -2.39279 1.96738)
(-23.6924 -7.14953 13.4343)
(-0.858165 2.51117 -0.470578)
(-0.16039 13.3934 2.63745)
(-3.45091 -1.57504 0.43698)
(-2.75418 0.961612 3.18278)
(-9.97883 6.89765 -8.93569)
(9.33261 -0.851064 0.227522)
(0.726272 1.02113 2.51725)
(-6.86916 -7.33154 -9.57562)
(-14.1896 0.897393 2.40054)
(5.83002 5.4414 -3.35176)
(-1.38583 -1.6385 -0.715325)
(1.86317 11.1615 -0.177204)
(6.60656 -1.37978 -4.79769)
(-3.21987 13.1306 -4.25692)
(-2.30591 -0.245709 -0.688072)
(-3.68322 -4.6918 1.64901)
(-0.183776 -0.665013 -0.982645)
(6.89628 -1.11906 0.336465)
(6.06619 1.11103 -3.89083)
(2.19238 -3.76863 -1.2143)
(0.0999069 0.230406 0.242394)
(14.3809 10.142 -23.6173)
(8.92656 23.9744 -6.28779)
(3.13274 -2.23286 -1.30651)
(-2.76042 0.935987 -0.759481)
(-12.0659 1.59076 -0.539553)
(-1.3024 0.770177 -0.365966)
(7.82101 5.62511 5.35082)
(3.73704 1.83024 -0.0703033)
(-1.79342 3.56144 -3.27865)
(-2.19203 -3.7454 -0.168075)
(-2.55254 -0.332189 -0.688964)
(-1.385 -0.37641 -2.29034)
(8.47415 7.6768 -0.309472)
(-8.48607 -0.919596 -23.1952)
(3.32891 -5.59587 1.90836)
(1.52266 1.27711 2.34987)
(-0.873932 -0.156694 -0.0748223)
(-2.35931 3.57505 -8.66063)
(6.57351 8.50001 2.53031)
(0.0685953 0.0228669 -0.257162)
(12.2672 11.7812 -4.08434)
(-2.2929 7.19995 -4.7025)
(16.8265 10.0367 2.25252)
(-2.69948 2.0026 0.352286)
(-5.92165 5.8054 -3.23942)
(-8.04772 -3.03402 -0.976261)
(1.30949 1.44805 -6.1948)
(-0.621624 -6.79586 1.52157)
(0.917567 11.5472 -9.12804)
(5.72648 -6.61087 -0.676841)
(-0.466922 -2.5732 -0.448898)
(6.93888 7.10819 -2.21824)
(-1.55873 -1.72259 -0.917684)
(1.02238 -1.40129 0.642668)
(2.46658 2.442 1.9296)
(-2.4418 -6.42467 -1.8695)
(1.77726 -3.12806 0.368429)
(-6.64762 -3.05626 16.9518)
(-2.30985 -7.98717 -5.65988)
(0.544586 -0.610608 -0.802533)
(5.33075 -10.1305 -9.86105)
(5.17728 -1.77067 -0.122114)
(6.5433 -6.12899 1.56416)
(-5.34983 -6.19245 -6.89184)
(-0.451816 -0.668354 1.36776)
(0.469066 -1.88681 1.62409)
(7.85401 -6.47228 13.1049)
(-1.77029 -2.99518 2.67768)
(-6.6807 -1.34742 -11.7582)
(-13.3098 -3.86328 -1.57785)
(6.52842 -3.12753 -7.52249)
(-3.17042 -6.39309 -2.68723)
(-1.55546 -2.94349 0.104975)
(1.64744 -0.264759 0.58755)
(0.0937146 -14.9976 10.4371)
(0.0115312 -1.32733 0.795315)
(3.58274 -3.13188 1.89166)
(12.0822 -18.1892 4.06671)
(1.39835 -3.16944 -2.66963)
(-11.3486 -4.66229 6.91505)
(-0.530237 -4.73679 -0.0574525)
(-0.847989 -1.04007 2.5562)
(-8.14407 -5.3381 9.73391)
(-1.87334 -0.603198 4.3287)
(-8.53953 -11.2909 4.28732)
(8.72838 -1.35621 -6.35866)
(-1.24459 -2.77373 2.88163)
(3.30324 -12.7634 -7.28367)
(-2.76819 -2.15473 -1.59863)
(21.137 -6.84237 18.1985)
(3.92338 -0.0573784 -0.97786)
(-14.5557 -11.2934 -17.2606)
(-1.89649 -0.724778 1.62514)
(-18.2149 -3.17427 -12.1895)
(-0.588738 -3.58139 4.89308)
(-1.42052 -7.85163 -4.86241)
(-0.758962 -0.459597 -1.96158)
(1.57661 -6.27953 4.82656)
(-17.1977 -7.86716 11.0123)
(0.211686 -7.16698 -3.77085)
(-4.00562 -2.24428 27.4313)
(0.782215 -0.82454 -0.978765)
(16.9105 -3.90011 -10.791)
(2.18176 -2.48374 15.4865)
(6.46548 -0.969693 -1.1708)
(-3.62167 -1.70267 -1.79438)
(-5.39378 -1.98362 -0.492808)
(-6.72102 -4.65708 -2.17242)
(1.06325 -16.6198 -20.0201)
(28.0973 -8.43811 -18.2328)
(4.41221 -4.27818 -3.72007)
(1.6777 -2.53399 -1.78554)
(-3.5322 -15.7605 1.90303)
(-5.5324 -1.11582 -9.73712)
(3.71697 -3.69271 -2.06394)
(-11.8316 -4.81911 1.4584)
(1.35921 -0.13737 -2.96314)
(-0.0434455 -0.0166559 -0.0140979)
(-1.93979 -0.244144 -20.6068)
(-0.161395 -0.512082 -7.10523)
(20.8953 -4.16159 -31.9779)
(10.9267 -15.8446 -3.66618)
(8.47394 -2.41409 -0.496837)
(-12.0799 -14.7106 16.7834)
(-3.26906 -2.37313 2.34673)
(-24.4185 -12.5321 -15.0327)
(-3.48125 -7.05961 -0.140331)
(-1.64175 -3.63367 13.5763)
(-1.59348 -1.25332 -3.4809)
(37.1835 -11.0028 -1.80421)
(3.29477 -10.3789 4.86768)
(-0.919206 -2.20307 -0.015325)
(15.8468 -7.34589 4.64736)
(-0.496975 -0.378917 -1.55009)
(2.39829 -14.3752 13.5424)
(13.9838 -6.24294 -7.63945)
(0.156718 -0.402549 0.349762)
(13.0588 -4.33149 -0.612713)
(3.19792 -3.0843 -6.20262)
(11.9112 -4.23164 28.0113)
(-9.73903 -13.1872 11.7282)
(-0.851695 -7.23809 2.25868)
(0.692146 -6.71439 11.2586)
(-1.00764 -16.9913 -3.95937)
(-1.06517 -1.20583 -3.20903)
(-2.21589 -5.76285 0.346147)
(-0.933423 -1.02701 -3.50082)
(11.2443 -3.15407 12.5243)
(-18.6319 -4.83491 -11.5949)
(11.7892 -5.64537 -5.93321)
(5.42939 -2.25262 4.95318)
(4.89427 -2.48922 -7.70636)
(-0.0655998 -1.42725 -1.34833)
(0.720189 -1.2465 -2.6957)
(-2.84644 -5.61374 -4.90053)
(-8.72792 -9.97928 -5.50724)
(2.86657 -2.00029 -8.59476)
(-4.47637 -4.37305 12.7109)
(10.31 -12.5411 1.22407)
(3.22609 -9.71288 9.08477)
(-2.03004 -4.09353 -1.72065)
(15.3479 -4.61199 -0.874571)
(-5.00734 -1.30456 13.9425)
(0.15742 -1.19911 1.69737)
(-0.918801 -2.00741 -0.848862)
(1.69346 -3.92812 3.48795)
(-7.70963 -4.7022 -2.22964)
(-1.43243 -0.686774 0.0133245)
(-8.15814 -0.298826 5.00017)
(32.2546 -7.0708 -19.6921)
(2.73692 -24.2381 0.436265)
(5.83138 -8.99441 6.74905)
(14.7385 -2.7431 3.4252)
(8.12087 -1.8437 -6.17769)
(2.71434 -16.9019 5.65601)
(-1.54836 -5.32051 4.91457)
(4.4581 -3.34813 1.80383)
(5.10306 -9.48227 -7.09509)
(-23.9715 -8.05185 -18.6302)
(-9.03404 -13.3191 -4.6596)
(-4.37543 -5.56505 -1.14686)
(0.610354 -0.35238 -1.89752)
(-33.0771 -10.3579 -4.73978)
(-16.6636 -11.5153 11.8475)
(8.29557 -5.10639 1.1233)
(2.93233 -3.13853 10.8292)
(-15.1287 -15.394 -26.5425)
(0.722019 -0.0591677 -1.51629)
(-5.34669 -6.24906 -5.01262)
(5.29238 -0.967228 -11.2517)
(0.661297 -1.39642 0.107714)
(10.5262 -6.03054 7.23485)
(-0.260137 -1.46605 3.86017)
(2.96152 -14.0224 0.391193)
(-7.79152 -3.59198 7.29789)
(2.50405 -9.26879 -0.538302)
(0.700713 -6.17259 -5.80091)
(9.16372 -14.8984 -12.3536)
(-0.460806 -1.04574 -3.83001)
(-6.22841 -4.6222 1.28384)
(2.59539 -29.2996 -21.1014)
(-4.22522 -9.88206 -4.7946)
(-0.886612 -1.51674 10.7831)
(-2.06461 -8.67401 -2.75687)
(-12.212 -7.0573 10.076)
(-4.48887 -5.1128 4.24714)
(8.41845 -2.29757 3.1748)
(17.7765 -6.08554 4.08049)
(1.48337 -0.624072 -0.731309)
(-7.83466 -17.8763 0.903705)
(0.771304 -1.38068 1.48555)
(-13.8316 -2.09483 2.66768)
(1.64097 -0.826511 0.048146)
(9.31291 -6.56895 5.58579)
(-2.49515 -13.0732 -11.2613)
(16.4339 -22.8295 -20.8909)
(29.8243 -5.75603 -19.5393)
(8.71249 -9.01729 3.42952)
(0.786257 -3.36702 0.34582)
(-3.69575 -5.19897 -4.79338)
(-7.1632 -6.25663 5.02032)
(3.26328 -27.1953 -8.89315)
(10.5679 -34.6908 11.0283)
(-1.82449 -0.902658 1.60141)
(27.4452 -4.13314 -6.46333)
(-7.92297 -1.07752 15.5761)
(-7.02459 -12.5005 -1.3669)
(-5.1476 -17.8025 17.7217)
(-9.31912 -33.4086 -9.1199)
(-3.66693 -9.03704 -7.82879)
(1.32164 -0.363251 0.276964)
(4.35131 -3.2924 7.18264)
(9.86099 -15.9746 -2.03762)
(3.87921 -1.18098 -4.47904)
(0.676047 -7.77898 -3.10767)
(-13.9363 -15.961 11.8016)
(10.2792 -14.2096 9.11782)
(-4.14665 -3.00946 -6.42712)
(1.26228 -0.760015 4.50496)
(8.06673 -3.40993 6.47077)
(-0.840767 -5.44675 -8.95449)
(36.1689 -10.8409 1.31162)
(6.72072 -15.8799 1.94731)
(-0.778908 -1.32874 4.50776)
(-5.26368 -7.82238 2.64401)
(0.455991 -4.60859 -1.50981)
(21.2012 -21.4655 20.7534)
(-1.29661 -1.21125 -0.0353421)
(0.263316 -0.0249853 0.220819)
(-7.63629 -28.5954 2.26085)
(1.06598 -0.193145 3.88806)
(-37.4885 -16.7285 -10.7565)
(3.55666 -11.3457 -24.2135)
(-19.8936 -9.85154 -17.1967)
(20.0664 -7.23724 11.1149)
(7.36509 21.958 0.920725)
(-9.22607 -3.00907 1.57031)
(23.5546 -3.07305 -25.801)
(-0.745458 -6.08379 5.41383)
(-6.40316 -7.10365 -3.47731)
(-9.36683 10.4204 -3.56597)
(1.69729 -2.26296 9.58909)
(-15.1037 -2.13838 5.08238)
(-3.55256 1.13255 0.152096)
(1.45042 8.73603 0.82149)
(-2.25486 0.426275 1.50588)
(1.68422 0.528447 -1.31576)
(-14.0333 -34.3469 19.2695)
(-43.6561 17.0358 -2.12065)
(0.571739 -2.01464 0.705022)
(-0.0334821 3.60349 -2.37932)
(0.768843 2.1667 1.70003)
(-0.355207 -1.93656 -4.30187)
(0.518054 1.13318 0.929327)
(-2.24023 0.831064 1.5422)
(-2.15355 13.762 6.31427)
(0.604473 -0.233805 2.64284)
(3.3441 -1.47363 5.31689)
(12.8478 5.10746 -3.95924)
(11.4009 -3.97117 -2.30717)
(-2.02418 7.34951 3.86944)
(-12.088 16.564 -0.562815)
(-51.2571 10.5337 -10.7714)
(-1.70772 -10.048 -4.77265)
(-2.43331 -4.20073 -8.20828)
(-2.74444 -0.787859 -4.03593)
(18.1024 10.5204 1.063)
(-1.35387 -1.18912 0.707897)
(-22.1545 -10.7901 9.78422)
(0.294781 0.690754 -3.55152)
(7.44906 24.8745 -8.59043)
(4.62996 0.198249 -0.973831)
(1.61838 3.48323 0.903216)
(-17.3726 -5.59534 3.10576)
(-3.63008 6.08272 0.051085)
(1.9991 2.36806 -3.41773)
(-0.0764503 -0.272545 0.271974)
(25.8353 25.5857 -8.68834)
(-0.720431 3.91634 0.570133)
(2.21302 -0.0490532 -2.24074)
(-5.02333 7.74426 -3.59947)
(12.2103 2.98635 5.8457)
(-12.4911 -0.864647 -0.811129)
(-2.10258 0.102922 0.499253)
(10.6891 -14.0198 7.28647)
(0.108191 3.59694 -2.63156)
(0.134191 0.222989 2.90364)
(0.913046 0.0919996 -1.40322)
(-0.604433 1.27886 3.56391)
(27.6883 -16.7948 -8.16874)
(-8.18716 0.302215 2.43441)
(30.2751 -4.75501 0.577076)
(22.725 22.7163 0.211367)
(-6.8448 3.07371 -2.09731)
(-3.42514 11.2237 3.965)
(0.657907 2.11162 -1.62613)
(-1.43612 1.91722 -3.35834)
(-1.19578 0.977576 -1.14655)
(1.45165 0.295668 0.0220783)
(0.506616 -1.65765 0.542213)
(20.9152 -0.595516 14.9976)
(2.14476 0.682368 0.724911)
(40.3068 5.88307 8.66005)
(5.2441 -2.22899 5.11674)
(-12.1958 6.79009 14.2692)
(0.810035 8.50127 -0.63001)
(-0.468201 -0.548269 0.444557)
(2.713 -0.103169 1.43709)
(-3.11215 -0.609015 5.01593)
(-5.80991 4.6481 -0.104644)
(-0.773088 -3.95319 1.88807)
(-0.707144 -0.62488 0.589323)
(-20.0167 -18.8742 0.825595)
(9.78466 -0.0946453 4.15537)
(10.5233 12.3422 -5.77447)
(-0.243715 0.0407939 0.222526)
(-24.157 -7.13288 -33.8863)
(-0.606286 -1.17713 -1.42279)
(-1.96968 11.903 6.6778)
(0.637357 14.3811 3.68777)
(-18.3068 -3.37948 4.89628)
(0.234098 -0.242268 0.394277)
(10.987 10.4548 4.67589)
(0.497198 -0.0786968 0.716937)
(-14.2816 18.0823 -1.83024)
(3.09979 -1.63682 5.40652)
(-2.9306 -2.36549 -0.130144)
(3.56505 -4.94836 2.3799)
(8.61084 -12.816 -18.3635)
(-7.66932 -1.74597 -5.06853)
(1.03719 2.70321 3.93677)
(-20.8009 -10.9377 8.38326)
(-7.62962 -2.40017 -5.85168)
(1.5731 2.34641 2.37793)
(-14.6063 4.09991 -11.6094)
(13.5014 -5.03609 -1.94337)
(-0.00218393 0.000875088 -0.00512804)
(-8.15323 1.3811 20.3391)
(5.56734 8.04652 -0.354057)
(16.366 -1.1919 2.91975)
(-47.0218 -14.1535 14.4906)
(0.359263 1.01245 0.794387)
(0.172037 -15.3778 -31.695)
(-5.62351 2.85571 -9.40568)
(0.667305 0.218517 -0.886947)
(0.499015 0.701223 -3.00414)
(-0.25334 -1.88821 -8.08737)
(6.69428 4.05295 -7.66274)
(0.141103 -0.102373 0.304841)
(2.8424 6.28987 -8.21496)
(9.84466 3.9837 -0.544793)
(0.611681 -0.220484 0.00602624)
(-6.25366 6.24029 -0.891114)
(-0.0562712 0.215119 -0.113231)
(3.65078 -0.486442 11.7162)
(2.08313 0.530043 1.94477)
(6.07044 0.210791 3.71306)
(1.06747 9.97691 2.00907)
(7.63998 -0.725252 -4.28831)
(0.333079 1.5654 7.19378)
(-5.17407 6.52534 -1.96521)
(-0.445261 -1.35628 -0.0183248)
(-1.19021 2.37076 -0.52768)
(4.07841 -0.705232 7.68236)
(-0.223834 -8.85086 3.35065)
(-0.663756 2.40639 0.519794)
(-1.84196 1.32966 -1.9708)
(13.1237 6.38403 -3.49932)
(-5.8876 -1.73021 -1.37614)
(1.25698 2.382 -2.3864)
(-0.263112 0.425177 -0.265476)
(-5.78998 -1.77211 -1.39943)
(-60.4299 35.1371 15.3971)
(-6.22861 14.1697 9.26171)
(-3.90706 -7.97437 -3.93585)
(6.36449 10.1787 -0.152092)
(-15.2943 16.6896 10.9266)
(2.00172 -3.01754 3.86475)
(1.984 0.122438 1.23389)
(-9.00464 1.94333 2.8613)
(-0.355391 0.234046 0.169822)
(-5.95186 4.2875 -5.05826)
(-6.23365 -12.3485 -2.07549)
(7.43136 2.51284 9.92705)
(0.848841 -0.15907 -0.0622526)
(-4.33203 5.27309 -1.96528)
(-2.65274 -6.97969 -2.031)
(-5.50722 -7.44126 3.01597)
(-2.75017 -12.5021 -19.3483)
(-20.2584 -10.5733 6.28642)
(9.54834 -20.4563 4.53204)
(9.5457 -10.4616 -12.9079)
(1.26966 -3.90076 -3.81775)
(4.51474 -6.80364 4.38372)
(-12.1966 -6.65302 -1.76862)
(17.6377 -11.448 0.510794)
(7.24698 -6.78812 1.73238)
(-10.318 -20.5599 -3.27058)
(-7.00209 -9.71829 6.90686)
(5.12174 -7.66816 -8.66127)
(-13.3133 -5.00394 15.0833)
(5.7308 -4.11459 -0.469224)
(1.3184 -0.0838347 -0.567747)
(0.744236 -6.9045 25.2014)
(-14.3172 -19.1167 0.5257)
(-1.76043 -2.97849 2.66276)
(0.208654 -7.0643 -3.71683)
(-2.78673 -0.89156 3.0007)
(7.55637 -15.5423 -4.1857)
(2.52621 -11.3241 10.864)
(6.16303 -5.63923 -0.294974)
(-1.08192 -1.16913 11.5437)
(-6.4403 -1.29893 -11.335)
(-0.228664 -0.969424 -0.487483)
(3.04653 -14.1511 -2.01308)
(27.9533 -10.4324 16.6367)
(8.01975 -1.56849 7.95121)
(-5.2516 -2.32102 2.67506)
(-0.819544 -1.97031 1.08902)
(-8.56771 -15.1068 11.9797)
(-3.39956 -5.3398 4.51026)
(12.8089 -10.8522 -11.2782)
(-2.23013 -2.99758 0.130082)
(-4.21304 -1.3854 -2.1805)
(-2.24934 -0.433629 -1.44888)
(6.50842 -2.40866 -2.18384)
(12.0206 -4.53836 -8.62847)
(24.2331 -9.80801 9.23068)
(-3.33015 -3.89396 -1.63727)
(2.31072 -7.24076 1.75629)
(-0.531871 -7.24873 -5.68478)
(-1.33522 -1.97662 2.44634)
(1.42826 -0.639072 -1.35958)
(3.14019 -12.1334 -6.92415)
(-0.124841 -2.0894 0.459)
(17.7141 -18.9491 -18.3212)
(3.09652 -0.681135 -0.85456)
(0.00422191 -5.25183 27.6501)
(-1.87786 -3.0471 8.37395)
(-2.06524 -5.37105 0.322614)
(11.4818 -17.0919 3.7534)