/*--------------------------------*- C++ -*----------------------------------*\
  =========                 |
  \\      /  F ield         | OpenFOAM: The Open Source CFD Toolbox
   \\    /   O peration     | Website:  https://openfoam.org
    \\  /    A nd           | Version:  7
     \\/     M anipulation  |
\*---------------------------------------------------------------------------*/
FoamFile
{
    version     2.0;
    format      ascii;
    class       scalarField;
    location    "0.7/lagrangian/reactingCloud1";
    object      yH2O;
}
// * * * * * * * * * * * * * * * * * * * * * * * * * * * * * * * * * * * * * //


2457
(
0.022
0.022
0.022
0.022
0.022
0.022
0.022
0.022
0.022
0.022
0.022
0.022
0.022
0.022
0.022
0.022
0.022
0.022
0.022
0.022
0.022
0.022
0.022
0.022
0.022
0.022
0.022
0.022
0.022
0.022
0.022
0.022
0.022
0.022
0.022
0.022
0.022
0.022
0.022
0.022
0.022
0.022
0.022
0.022
0.022
0.022
0.022
0.022
0.022
0.022
0.022
0.022
0.022
0.022
0.022
0.022
0.022
0.022
0.022
0.022
0.022
0.022
0.022
0.022
0.022
0.022
0.022
0.022
0.022
0.022
0.022
0.022
0.022
0.022
0.022
0.022
0.022
0.022
0.022
0.022
0.022
0.022
0.022
0.022
0.022
0.022
0.022
0.022
0.022
0.022
0.022
0.022
0.022
0.022
0.022
0.022
0.022
0.022
0.022
0.022
0.022
0.022
0.022
0.022
0.022
0.022
0.022
0.022
0.022
0.022
0.022
0.0216894
0.0219521
0.0219878
0.022
0.022
0.022
0.022
0.022
0.022
0.022
0.022
0.022
0.022
0.022
0.022
0.022
0.022
0.022
0.022
0.022
0.022
0.022
0.022
0.022
0.022
0.022
0.022
0.022
0.0216691
0.022
0.0219709
0.022
0.0219989
0.022
0.00522738
0.0196296
0.022
0.0219729
0.0208686
0.0156176
0.0219998
0.0174819
0.0219982
0.022
0.022
0.0219988
0.0204686
0.022
0.020704
0.0219649
0.022
0.0219727
0.0193341
0.0173108
0.022
0.0219999
0.0199307
0.022
0.0219904
0.0133535
0.0160732
0.0161357
0.0219849
0.0218962
0.022
0.0166113
0.022
0.0219801
0.022
0.0153547
0.0219995
0.0219954
0.0209885
0.0219778
0.000821635
0.0207121
0.022
0.0217784
0.0177196
0.0134969
0.0219928
0.0219895
0.022
0.0219994
0.0216463
0.0219997
0.0210794
0.0219999
0.0149548
0.022
0.0160992
0.0161699
0.0132462
0.022
0.0219996
0.0219596
0.0219938
0.00997824
0.0219941
0.0219995
0.0218571
0.022
0.000398855
0.000109282
0.0219993
0.0102558
0.0219952
0.00837714
0.0219971
0.0178041
0.0218465
0.0172631
0.00839648
0.0219998
0.0219927
0.0154298
0.00971053
0.0161471
0.0213754
0.0219996
0.0119061
0.0119061
0.0160875
0.0084986
0.0176347
0.0219974
0.021742
0.0219996
0.0199414
0.0039355
0.0219883
0.0219979
0.00936294
0.0200238
0.0156268
0.022
0.0214857
0.0181081
0.0174131
0.0197872
0.0210152
0.0219983
0.0219999
0.0103004
0.018542
0.022
0.022
0.022
0.0214476
0.0219604
0.0217732
0.0116963
0.0206403
0.014974
0.0219999
0.00945894
0.0146459
0.0127915
0.0175507
0.0219992
0.021989
0.018036
0.022
0.0219922
0.0219996
0.021991
0.0219951
0.0150136
0.00366273
0.011152
0.013636
0.0219623
0.0216293
0.0219975
0.0194596
0.0123137
0.0218548
0.0219901
0.00553139
0.022
0.022
0.0219974
0.0219979
0.0192534
0.00488924
0.0217755
0.0219999
0.0173198
0.0133882
0.0219978
0.021375
3.31518e-05
0.0219798
0.00317146
0.0112516
0.0200545
0.0172689
0.0137332
0.0137332
0.0162274
0.0219998
0.0219987
0.0219988
0.0219996
0.0219997
0.0219999
0.0219999
0.0219999
0.022
0.0219996
0.022
0.0219998
0.0219997
7.83922e-05
0.000781083
0.0153382
0.0111096
0.013564
0.00801885
0.0216992
0.0219913
0.0162176
0.0190677
0.0120294
0.0126862
0.00393844
0.0208515
0.0103355
0.0181531
0.0218877
0.0139522
0.019091
0.0121903
0.00826509
0.0205989
0.0219689
0.0191896
0.0185334
0.0100983
0.0218981
0.0186304
0.0202149
0.0194881
0.022
0.00991516
0.00576447
0.0219971
0.0110471
0.0113797
0.0148036
0.000979715
0.0160515
0.0130615
0.018136
0.021984
0.0215641
0.0179253
0.0143004
0.0175179
0.0219971
0.00813967
0.0219986
0.00855175
0.0148412
0.0219859
0.0137634
0.0218908
0.0219566
0.0136076
0.0148715
0.0161502
0.0217691
0.0178733
0.00950441
0.021999
0.0218889
0.0219305
0.021565
0.0116221
0.0150238
0.0199002
0.0214951
0.0207676
0.0151807
0.0178397
0.0219998
0.00374208
0.00706615
0.0219976
0.00706615
0.0218973
0.0186047
0.0219146
0.0219664
0.0219727
0.0219697
0.0219754
0.0219838
0.0219664
0.0219587
0.0219437
0.0219868
0.0219727
0.0219868
0.0219727
0.0219231
0.0219904
0.0219664
0.0219893
0.0219664
0.0219697
0.0219044
0.0219697
0.0219493
0.0219938
0.0219944
0.02198
0.0219628
0.0219697
0.0219893
0.021996
0.0219838
0.021995
0.0219964
0.0219964
0.021982
0.000295742
0.00101046
0.000940082
0.003036
0.0075997
0.0141972
0.0122973
0.00298617
0.00600004
0.0110263
0.00754769
0.00987746
0.018506
0.0073255
0.0169992
0.0189392
0.000818046
0.0101837
0.0218998
0.0198812
0.0102663
0.0149483
0.0178665
0.00799818
0.00391813
0.0101178
0.0207552
0.0154764
0.00817809
0.00940848
0.0100397
0.0147976
0.00207577
0.00371955
0.0158717
0.0216037
0.00478351
0.0134458
0.0192509
0.0219628
0.00755344
0.0106746
0.0138611
0.0146048
0.019773
0.0110801
0.0195534
0.0176712
0.00766048
0.00218827
0.0174332
0.00991719
0.021982
0.0216843
0.0162813
0.0143713
0.0219846
0.017622
0.0190193
0.000829877
0.0199169
0.00738056
0.018776
0.00284777
0.0201082
0.0178402
0.0216456
0.01249
0.0218996
0.00200938
0.00366448
0.0175867
0.0216805
0.0212
0.0119505
0.0168106
0.0137153
0.0076227
0.0117396
0.0185618
0.0155824
0.0207453
0.0177805
0.0164457
0.0183232
0.0130859
0.0124799
0.01362
0.0197417
0.0148691
0.0180456
0.0201041
0.0132274
0.0204302
0.0157533
0.0209593
0.01362
0.0193486
0.0171272
0.0213254
0.0128473
0.0148691
0.0214566
0.0209593
0.0197417
0.0214566
0.018931
0.0175884
0.0121253
0.0124799
0.0128473
0.016207
0.0215606
0.0121253
0.0121253
0.0209593
0.0211614
0.0132274
0.0180456
0.0213254
0.0213254
0.0132274
0.0197417
0.0153068
0.0148691
0.0121253
0.0209593
0.0157533
0.0153068
0.0209593
0.0124799
0.016207
0.0214566
0.0128473
0.0207159
0.0193486
0.0204302
0.02176
0.0148691
0.018931
0.02176
0.018931
0.0218017
0.0207159
0.0124799
0.0128473
0.0218017
0.0144415
0.016207
0.0218332
0.01362
0.0124799
0.0121253
0.0121253
0.0140249
0.0215606
0.0171272
0.0218575
0.0218575
0.01362
0.0214566
0.0175884
0.0218766
0.0175884
0.0121253
0.0218575
0.0011433
0.0144415
0.00171423
0.00289763
0.00134837
0.018931
0.00240033
0.00110624
0.0121253
0.00441549
0.00334772
0.00168728
0.0041408
0.00660231
0.00816372
0.00914257
0.00628093
0.00455924
0.00488218
0.00723418
0.00518539
0.00198944
0.0101908
0.00177525
0.00249996
0.00317265
0.0124799
0.00792923
0.0119659
0.0119805
0.00727287
0.0111067
0.00612074
0.00707031
0.0118861
0.00527595
0.00370834
0.0144415
0.0081576
0.00492728
0.00723223
0.00644099
0.000948548
0.00638012
0.00561743
0.0143344
0.00599752
0.0116248
0.0128134
0.00837925
0.0110036
0.0118845
0.0109737
0.012107
0.0100499
0.00703384
0.00976868
0.00519359
0.0104303
0.0108851
0.0076573
0.0142767
0.0101395
0.0130515
0.0103661
0.00555246
0.0173824
0.0107631
0.0047212
0.0167477
0.0207159
0.0116757
0.00276624
0.00381686
0.0145947
0.00956878
0.0137366
0.0107739
0.00729747
0.0107739
0.0134115
0.00406982
0.0171534
0.00507893
0.0156631
0.0032332
0.00204584
0.0092475
0.00343857
0.0199258
0.0129236
0.0205632
0.0122716
0.0128382
0.00355133
0.0100082
0.0151245
0.0154306
0.0038035
0.00690676
0.0207223
0.0159697
0.0171433
0.00719427
0.0171433
0.0105628
0.00538114
0.0096305
0.0196405
0.0209062
0.010866
0.00455834
0.0143285
0.00623986
0.00236674
0.0058735
0.00766634
0.000316189
0.021892
0.0191878
0.0206562
0.0174585
0.0107186
0.00955459
0.0153804
0.0139385
0.0215028
0.00481673
0.00877485
0.00743473
0.00743473
0.00696076
0.00796522
0.00549947
0.00899781
0.00778163
0.00711294
0.00778163
0.00696076
0.0065361
0.00743473
0.00540242
0.00727084
0.00627725
0.00530845
0.00778163
0.0076049
0.00856047
0.00615447
0.00835431
0.00559974
0.00581048
0.00530845
0.00815601
0.00796522
0.00796522
0.00559974
0.00796522
0.00947097
0.00727084
0.00667258
0.00947097
0.00603587
0.00603587
0.00778163
0.00581048
0.00667258
0.00570336
0.00615447
0.00627725
0.00570336
0.00796522
0.00540242
0.00615447
0.00559974
0.00856047
0.00972196
0.00778163
0.00972196
0.00592127
0.00559974
0.00559974
0.00530845
0.00947097
0.00856047
0.00559974
0.00998306
0.0065361
0.00727084
0.00998306
0.00835431
0.00972196
0.00922972
0.00603587
0.00696076
0.00727084
0.00549947
0.00947097
0.00592127
0.00549947
0.00972196
0.00998306
0.00711294
0.00922972
0.00570336
0.00592127
0.00727084
0.00796522
0.00743473
0.00549947
0.00796522
0.00947097
0.00998306
0.00681406
0.00743473
0.0076049
0.00667258
0.0102547
0.00540242
0.00559974
0.00796522
0.00615447
0.0102547
0.00540242
0.00947097
0.00947097
0.00696076
0.00947097
0.00778163
0.00640439
0.00559974
0.00696076
0.00877485
0.0105372
0.0065361
0.00581048
0.00796522
0.0105372
0.00947097
0.00559974
0.00815601
0.0102547
0.00835431
0.00603587
0.00835431
0.00856047
0.0065361
0.00640439
0.00835431
0.0105372
0.00570336
0.00899781
0.00877485
0.00743473
0.00778163
0.0108309
0.00615447
0.00540242
0.00835431
0.00681406
0.00627725
0.00696076
0.00627725
0.00727084
0.00681406
0.00778163
0.00972196
0.0105372
0.00640439
0.0108309
0.0076049
0.00743473
0.00640439
0.00899781
0.0111363
0.0111363
0.0111363
0.00711294
0.00778163
0.00947097
0.00856047
0.00549947
0.0108309
0.00972196
0.0111363
0.00877485
0.0111363
0.00796522
0.00681406
0.00711294
0.00559974
0.00667258
0.00640439
0.0111363
0.00922972
0.00696076
0.00815601
0.00681406
0.0105372
0.00681406
0.00603587
0.00778163
0.00899781
0.00615447
0.0114537
0.00856047
0.00796522
0.00640439
0.00899781
0.0108309
0.00540242
0.0105372
0.00835431
0.00947097
0.00696076
0.00667258
0.00696076
0.0076049
0.00877485
0.00530845
0.00815601
0.0111363
0.00972196
0.00778163
0.00998306
0.0117832
0.0065361
0.0114537
5.22863e-05
0.00778163
0.00711294
0.0117832
0.00696076
0.0010832
0.0111363
0.00417308
0.00432544
0.00129118
0.00365408
0.00421155
0.00516107
0.00137424
0.00529607
0.00447817
0.00527334
0.00540125
0.00298081
0.00115599
0.00342239
0.00549947
0.00447817
0.0046798
0.00506104
0.00321111
0.00303902
0.0016344
0.00472465
0.00492667
0.00547159
0.00306393
0.00290921
0.00570813
0.00580597
0.00247909
0.00581048
0.00317942
0.0044036
0.00420648
0.00327217
0.00174691
0.00277894
0.00435365
0.00591654
0.00131628
0.00430318
0.00585794
0.00221287
0.00623753
0.00471533
0.00596626
0.00640439
0.00408454
0.00611667
0.00511273
0.00461546
0.00311924
0.00651529
0.00619332
0.00228999
0.00286884
0.00617168
0.0038272
0.0117832
0.00607802
0.00548361
0.00386934
0.00313876
0.00525988
0.00496519
0.00647286
0.00608668
0.00603198
0.00684834
0.00382979
0.0063875
0.00710544
0.00269729
0.00664931
0.00612688
0.00416888
0.00449204
0.00398029
0.00425807
0.00721339
0.000629398
0.00404268
0.00420412
0.00430663
0.00607068
0.0069544
0.00731092
0.00723947
0.00741316
0.00698457
0.00712065
0.00777769
0.00590381
0.00807901
0.00430904
0.00807901
0.0037843
0.00185689
0.00745143
0.00667244
0.00747401
0.0117832
0.0067219
0.00819537
0.00808666
0.00323517
0.00870839
0.00829199
0.00406323
0.00634401
0.00833034
0.00222542
0.00811888
0.0070185
0.00895696
0.0056012
0.00498005
0.00945519
0.00753463
0.00151981
0.00871222
0.00757084
0.00988965
0.0102485
0.00426204
0.00600312
0.00426204
0.0095138
0.00942548
0.00615071
0.00822549
0.00292211
0.00838071
0.0117832
0.00112137
0.00305616
0.0093389
0.00600215
0.00764304
0.0111363
0.00815292
0.0113996
0.0113996
0.00776906
0.00625564
0.00419543
0.0043807
0.00386735
0.0035857
0.00444602
0.00391847
0.00326014
0.00349984
0.00451324
0.00425547
0.00451324
0.0035857
0.00397095
0.00458244
0.00458244
0.00397095
0.00444602
0.00376893
0.00341722
0.00372152
0.00458244
0.00451324
0.0043807
0.00408017
0.00362997
0.00402483
0.00391847
0.00408017
0.00413702
0.00376893
0.00354234
0.00425547
0.00425547
0.00413702
0.00372152
0.00326014
0.00341722
0.00402483
0.00472709
0.00337699
0.0046537
0.00451324
0.00362997
0.00408017
0.00329849
0.00329849
0.00472709
0.00354234
0.00413702
0.00341722
0.00444602
0.00349984
0.00413702
0.00345815
0.0043172
0.00381752
0.00345815
0.00367523
0.00326014
0.00444602
0.00349984
0.00408017
0.00376893
0.00376893
0.0035857
0.00451324
0.0043172
0.00372152
0.00480271
0.00451324
0.00480271
0.00480271
0.00472709
0.00419543
0.0046537
0.00367523
0.00381752
0.00451324
0.00480271
0.00408017
0.00329849
0.00444602
0.00349984
0.00402483
0.00419543
0.00488064
0.00451324
0.00413702
0.00367523
0.00444602
0.00480271
0.0043172
0.00362997
0.00408017
0.00488064
0.00488064
0.00488064
0.00329849
0.00488064
0.00333743
0.00480271
0.00488064
0.0046537
0.00372152
0.0046537
0.00402483
0.00488064
0.00408017
0.00326014
0.00341722
0.00480271
0.00386735
0.00425547
0.00496097
0.00329849
0.00326014
0.00367523
0.00496097
0.00345815
0.00391847
0.00333743
0.00349984
0.00496097
0.00345815
0.00496097
0.00372152
0.00496097
0.00488064
0.00425547
0.00349984
0.00354234
0.00419543
0.00372152
0.00472709
0.00362997
0.00413702
0.00504382
0.00402483
0.00504382
0.00496097
0.00425547
0.00354234
0.00402483
0.0046537
0.00504382
0.00419543
0.0035857
0.00504382
0.00472709
0.00376893
0.00402483
0.00367523
0.00496097
0.00472709
0.00333743
0.00345815
0.00480271
0.00488064
0.0043807
0.00425547
0.00504382
0.00504382
0.00367523
0.00349984
0.00354234
0.00444602
0.00376893
0.0043172
0.00413702
0.00408017
0.00512927
0.00333743
0.00362997
0.00458244
0.00345815
0.00512927
0.00337699
0.00512927
0.00425547
0.00451324
0.00413702
0.00512927
0.00425547
0.00512927
0.0043172
0.00451324
0.00354234
0.00391847
0.00397095
0.00512927
0.00386735
0.00376893
0.00512927
0.00391847
0.00458244
0.00367523
0.00512927
0.00512927
0.00512927
0.0035857
0.00381752
0.00451324
0.00521745
0.00480271
0.00458244
0.0043172
0.00521745
0.00413702
0.00386735
0.00341722
0.00381752
0.00512927
0.00397095
0.0043807
0.00362997
0.00354234
0.00521745
0.000205364
0.000433513
0.00496097
0.000702014
0.000303029
3.24098e-05
0.000270747
0.00451324
0.00273668
0.00205515
0.00211856
0.0035857
0.00305865
0.00326014
0.003122
0.0027776
0.00323946
0.00288979
0.00302949
0.00329849
0.00129494
0.00287282
0.00113861
0.000697567
0.00223521
0.0025944
0.0032468
0.00329574
0.00284503
0.00230219
0.00332309
0.00169934
0.00306483
0.00223521
0.00335444
0.00300613
0.00512927
0.00397095
0.00336017
0.00413702
0.00114363
0.00259493
0.00283541
0.0033853
0.00244231
0.00157627
0.00260964
0.00320905
0.00142196
0.00312506
0.00242864
0.00190915
0.00227353
0.00255061
0.000585439
0.003162
0.00323921
0.00195233
0.00187076
0.00329466
0.00369288
0.00370277
0.00369808
0.00351593
0.000454572
0.00376893
0.00381203
0.00326872
0.00180962
0.00349164
0.00368043
0.000878863
0.00386168
0.00377437
0.0035823
0.00374931
0.00276931
0.0030124
0.00247829
0.00284684
0.00333408
0.00387859
0.00313858
0.00395386
3.2409e-05
0.00347129
0.0031924
0.00371185
0.00304405
0.00392941
0.00342917
0.00381056
0.00277017
0.00125131
0.0038405
0.00378975
0.00150454
0.00409252
0.00419342
0.00383625
0.00480271
0.00425121
0.00284564
0.00420408
0.00400922
0.00436439
0.00303422
0.00423601
0.00408187
0.00255124
0.00379802
0.00442612
0.00173457
0.00348455
0.00472709
0.00364551
0.00435306
0.00458366
0.00106772
0.00358777
0.00266796
0.00258492
0.00218068
0.00443182
0.000798253
0.00419263
0.00472705
0.00452022
0.00485224
0.00477521
0.0044702
0.00433507
0.00459038
0.00488064
0.00444428
0.00212866
0.00502737
0.00491366
0.00423201
0.00359043
0.00512596
0.00332639
0.00354732
0.00521745
0.00520558
0.00280072
0.00220834
0.00244354
0.00232196
0.00280072
0.00270092
0.00229269
0.00276729
0.00293631
0.00241257
0.00293631
0.00300557
0.00266798
0.00220834
0.00257037
0.00276729
0.00215537
0.00276729
0.00244354
0.00253827
0.00220834
0.00223584
0.00229269
0.00235173
0.00283432
0.00253827
0.00273402
0.00238195
0.00257037
0.00241257
0.00250642
0.00218152
0.00304067
0.00270092
0.00247484
0.00250642
0.00215537
0.00223584
0.00232196
0.00266798
0.00235173
0.00229269
0.00286811
0.00253827
0.00253827
0.00212989
0.00229269
0.00226397
0.00276729
0.00280072
0.00283432
0.00297079
0.00212989
0.00215537
0.00220834
0.00263524
0.00244354
0.00212989
0.00241257
0.00253827
0.00257037
0.00260269
0.00218152
0.00293631
0.00220834
0.00244354
0.00229269
0.00250642
0.00307615
0.00276729
0.00263524
0.00273402
0.00232196
0.00297079
0.00266798
0.00276729
0.00218152
0.00220834
0.00223584
0.00283432
0.00241257
0.00223584
0.00283432
0.00290209
0.00263524
0.00283432
0.00266798
0.00241257
0.00304067
0.00247484
0.00241257
0.00273402
0.00229269
0.00257037
0.00290209
0.00220834
0.00235173
0.00218152
0.00247484
0.00229269
0.00307615
0.00276729
0.00247484
0.00311202
0.00250642
0.00232196
0.00300557
0.00229269
0.00215537
0.00253827
0.00226397
0.00235173
0.00307615
0.00212989
0.00247484
0.00304067
0.00247484
0.00293631
0.00311202
0.00215537
0.00232196
0.00286811
0.00300557
0.00297079
0.00286811
0.00223584
0.00241257
0.00286811
0.00263524
0.00290209
0.00270092
0.00250642
0.00215537
0.00300557
0.00247484
0.00220834
0.00300557
0.00314832
0.00297079
0.00253827
0.00293631
0.00260269
0.00260269
0.00215537
0.00253827
0.00304067
0.00314832
0.00212989
0.00238195
0.00232196
0.00311202
0.00266798
0.00283432
0.00212989
0.00293631
0.00241257
0.00223584
0.00270092
0.00260269
0.00307615
0.00241257
0.00283432
0.00223584
0.00318509
0.00253827
0.00273402
0.00318509
0.00212989
0.00250642
0.00235173
0.00241257
0.00244354
0.00226397
0.00318509
0.00257037
0.00223584
0.00290209
0.00311202
0.00218152
0.00238195
0.00280072
0.00235173
0.00286811
0.00322235
0.00215537
0.00290209
0.00322235
0.00260269
0.00244354
0.00215537
0.00318509
0.00276729
0.00220834
3.2409e-05
0.00304067
0.00156418
0.0016007
0.00146207
0.00154656
0.00181812
0.000412353
0.00180237
0.00187749
0.00102353
0.000829637
0.00208386
0.00210217
0.00212712
0.00195129
0.00120752
0.00212674
0.00215537
0.0018747
0.0014596
0.0018591
0.001437
0.00209461
0.00270092
0.00163275
0.00191338
0.0020639
0.00125333
0.000736876
0.00322235
0.00218605
0.00215384
0.00217781
0.00217781
0.00145063
0.00238195
0.00217479
0.000532686
0.00213724
0.00215783
0.00214824
0.00220691
0.00204765
0.000261691
0.000955887
0.00196682
0.00134109
0.00221281
0.00211649
0.00225836
0.000571019
0.00127057
0.00217357
0.0022882
0.00209264
0.00225696
0.00168755
0.00179764
0.000980933
0.00204737
0.000269421
0.00206922
0.00095304
0.00203624
0.00191993
0.00210067
0.00204002
0.00226445
0.000882185
0.00253827
0.00116742
0.00165924
0.00229663
0.0016147
0.00318509
0.00235124
0.00219532
0.00235186
0.00191273
0.00174945
0.0023072
0.00192324
0.00234097
0.00171581
0.00111478
0.0024124
0.00186407
0.00208448
0.00222638
0.00226923
0.00238154
0.00240255
0.00240876
0.00226923
0.00240985
0.00244337
0.00104263
0.00203349
0.00239222
0.00165776
0.00244169
0.00196892
0.00243829
0.00196194
0.00247292
0.00235709
0.001815
0.00215701
0.00129912
0.00234981
0.00171594
0.00228539
0.00110509
0.00109335
0.00257037
0.00234563
0.00178962
0.00114307
0.0019786
0.00259484
0.000940514
0.00259069
0.00266798
0.00226534
0.00259484
0.00243982
0.00111895
0.00261771
0.00162597
0.00242544
0.00322235
0.00170264
0.0025493
0.00122061
0.00267593
0.0026657
0.00083494
0.00260091
0.00234605
0.00268519
0.00269737
0.00261579
0.00252482
0.00202958
0.00151483
0.00276024
0.0017881
0.00322235
0.00264571
0.00249247
0.00218045
0.00261435
0.00279138
0.00247441
0.00279685
0.000845549
0.00233841
0.00232528
0.00274236
0.00283035
0.00283035
0.00149547
0.00285821
0.00270195
0.00284312
0.0028214
0.00155907
0.00283087
0.00279009
0.00265493
0.00256076
0.00284326
0.00281186
0.00267907
0.00282884
0.00297079
0.000948658
0.0029346
0.00163017
0.00224294
0.00254598
0.00268361
0.00261084
3.2409e-05
0.00322235
0.00208508
0.00258306
0.00237058
0.00298156
0.00122395
0.00277346
0.00174345
0.00292946
0.00269991
0.00283658
0.000409144
0.00145589
0.00301222
0.00296285
0.0024094
0.00139184
0.00291277
0.00212514
0.000909078
0.0032147
0.00277412
0.00182986
0.0020339
0.00201101
0.00178321
0.00137418
0.00182986
0.00180662
0.00173602
0.00185292
0.00166482
0.00175967
0.00161756
0.00196591
0.00178321
0.00166482
0.00161756
0.00196591
0.00178321
0.00143669
0.00147998
0.00194348
0.0020339
0.00135311
0.00187579
0.00139484
0.00168855
0.00139484
0.00175967
0.00173602
0.00189849
0.00201101
0.00168855
0.00145814
0.00154768
0.00178321
0.00152479
0.0015022
0.00161756
0.00147998
0.00185292
0.00159411
0.00159411
0.00192104
0.00143669
0.00185292
0.00198838
0.00178321
0.00135311
0.00154768
0.0014156
0.00178321
0.0015022
0.00161756
0.00198838
0.00130691
0.00182986
0.0015022
0.00166482
0.00192104
0.0014156
0.0020339
0.00196591
0.00159411
0.00180662
0.00187579
0.00157081
0.00137418
0.00180662
0.00198838
0.00133084
0.00139484
0.00135311
0.0020339
0.00178321
0.00152479
0.0014156
0.00152479
0.00152479
0.00133084
0.00185292
0.00187579
0.00192104
0.00205714
0.0017123
0.00133084
0.00130691
0.00194348
0.0014156
0.00205714
0.00157081
0.00133084
0.00205714
0.00135311
0.00180662
0.00152479
0.00173602
0.00166482
0.00133084
0.00173602
0.00145814
0.00201101
0.00178321
0.0020339
0.00161756
0.00161756
0.0017123
0.00196591
0.00139484
0.00152479
0.0014156
0.00196591
0.00178321
0.00192104
0.00133084
0.00166482
0.00189849
0.00189849
0.0017123
0.00208083
0.00157081
0.00180662
0.0020339
0.00161756
0.00157081
0.00154768
0.00182986
0.00135311
0.00145814
0.00157081
0.00152479
0.00189849
0.0017123
0.00196591
0.00159411
0.0020339
0.00201101
0.00168834
0.00189849
0.00147998
0.00205714
0.00208083
0.00152479
0.00180662
0.0017123
0.00161756
0.00164114
0.00173602
0.00194348
0.00159411
0.00133084
0.00154768
0.00154768
0.00178321
0.00145814
0.0020339
0.0020339
0.00180662
0.00143669
0.00157081
0.00192104
0.00173602
0.00196591
0.00135311
0.00194348
0.00196591
0.00182986
0.00173602
0.0015022
0.00192104
0.0015022
0.00139484
0.00130691
0.00192104
0.00194348
0.00133084
0.00145814
0.00166482
0.00130691
0.00143669
0.00198838
0.000190039
0.000607641
0.000254848
3.2409e-05
0.00107695
0.000650192
3.24125e-05
0.000918541
0.000317134
0.00095434
0.00103423
0.000941896
0.00152479
0.00152479
0.00126597
0.00166482
0.000979925
0.00152479
0.00127892
0.00114428
0.000664837
0.000254848
0.000715647
0.00122628
0.00130426
0.00145814
0.000739758
0.000631106
0.00121387
0.00205714
0.00127078
0.000950045
0.00116969
0.00133073
0.00123789
0.000846085
0.00128861
0.00111072
0.00133023
0.00127906
0.00133043
0.00132782
0.00128299
0.00104963
0.00125676
0.000748608
0.00129965
0.00122828
0.00111845
0.00132008
0.00164114
0.000755391
0.00133064
0.00134497
0.00120655
0.00133697
0.00112604
0.00132329
0.000552529
0.000303626
0.00125406
0.00102307
0.000773203
0.000372776
0.000159201
0.00131496
0.00121914
0.00132712
0.00101422
0.00136815
0.00106855
0.0012102
0.000464853
0.00136886
0.000607228
0.00137418
0.00123891
0.000991422
0.00159411
0.00137352
0.0013495
0.00139002
0.00134802
0.00194348
0.000884105
0.00145814
0.00139457
0.00157081
0.00103317
0.000373596
0.00137224
0.00125832
0.000618575
0.000934524
0.00115756
0.00134211
0.00126788
0.00138613
0.00136583
0.00138919
0.00136737
0.00123976
0.00140834
0.00112358
0.000782645
0.00185292
0.00104262
0.001294
0.00210506
0.000800964
0.0013002
0.00122426
0.00152479
0.00115344
0.00139305
0.00083072
0.00139901
0.00125877
0.00134948
0.00143448
0.00141251
0.000574873
0.00130399
0.00096852
0.00126622
0.00135545
0.00134443
0.00139505
0.00142537
0.00125081
0.00145205
0.000628997
0.00120409
0.00134759
0.00143616
0.000398862
0.00143466
0.000871488
0.00130755
0.00145709
0.00128194
0.00125877
0.00100402
0.00122627
0.00143311
0.00144037
0.00123456
0.00115889
0.00143448
0.00125725
0.000725195
0.000449837
0.00111752
0.00130156
0.00138113
0.00147998
0.000715691
0.00125304
0.00141694
0.00134201
0.00146291
0.0014884
0.00105391
0.00147809
3.2409e-05
0.00136651
0.00194348
0.00178321
0.00115203
0.00146782
0.00175967
0.00118505
0.000782113
0.00139668
0.000965528
0.00136297
0.00141785
0.00148164
0.000760863
0.00149073
0.00149722
0.00130864
0.00147906
0.00152446
0.00201101
3.24469e-05
0.000844138
0.00108769
0.00144462
0.00135875
0.0014252
0.00116306
0.00152479
0.0011793
3.2409e-05
0.00108219
0.00154681
0.00154768
0.0015397
0.000785789
0.000468186
0.00121973
0.0011793
0.00153702
0.0012175
0.00154768
0.00156808
0.000856546
0.00102254
0.00129744
0.00150368
0.00205714
0.00144658
0.00131661
0.00134107
0.00139237
0.000423993
0.0012425
0.00168855
0.000148631
0.00150368
0.00159065
0.00134587
3.2409e-05
0.00157209
0.00109918
0.001519
3.2409e-05
0.00205714
0.00159411
0.000647792
0.00156743
0.0016025
0.0010223
0.00159474
0.00158919
0.00161246
0.000880865
0.00163667
0.00104109
0.00164014
0.00132368
0.00158664
0.00163871
0.00156063
0.000489011
0.00157848
0.00122269
0.00192104
0.0016188
0.00164034
0.0014108
0.000598595
3.24118e-05
0.00153073
0.00142687
0.000998096
0.00163973
0.00115417
0.000970677
0.00113553
0.00102514
0.001473
0.00166413
0.00144798
0.00161629
3.2409e-05
0.00125602
0.00138054
0.000684509
0.00159902
0.00140147
0.00162148
0.000224798
0.00168595
0.000789447
0.00167478
0.00136184
0.001695
0.001695
0.000956964
0.000325792
0.00158568
0.000638437
0.00152879
0.001322
0.00201101
0.00147441
0.00147439
0.00170687
0.00210506
0.00173089
0.00164755
0.001644
0.00173253
0.0014523
0.0017344
0.000665617
0.00164135
0.000620128
0.00126412
0.00180662
0.00171779
0.00210506
0.00151739
0.00180662
0.00174596
0.00109497
0.00159176
0.00166934
0.00147583
0.00177194
0.00054752
0.00173457
0.00157643
0.00125618
0.00177194
0.00145173
0.00159878
0.00178867
0.00180577
0.00176971
0.00180637
0.00180423
0.00173794
0.00185292
0.00185292
0.00159347
0.00156058
0.00178095
0.00129455
0.000555696
0.00182801
0.00120784
3.2409e-05
0.00180248
0.00192104
0.00210506
0.00121283
0.00186845
0.00185202
0.0015979
0.00158002
0.00182069
0.00101198
0.000618272
0.00171346
0.00185412
0.00126602
0.0016253
0.00161932
0.00210506
0.00134913
0.00138664
0.00146295
0.00167123
0.00181221
0.00160405
0.00191323
0.0014309
0.00192104
0.00185213
0.00167706
0.00159065
0.00150943
0.00180287
0.00131713
0.000224894
0.00108726
0.00186104
0.00192946
0.00166206
0.00174954
0.00149962
0.00158988
0.00172636
0.00141952
0.00188497
0.00192392
0.00158988
0.00194142
0.00192606
0.00194965
0.00174247
0.00176629
0.00152116
0.00188497
0.00192015
0.000974862
0.00197982
0.00197982
0.00197522
0.00155866
0.00196076
0.00190903
0.000469889
0.00198807
0.000853613
0.00172641
0.000963447
0.00201091
0.000266429
0.000537512
0.00116365
0.00196558
0.00128404
0.00210506
3.2409e-05
0.00142772
0.001721
0.00110447
0.00167713
0.00205714
0.000995496
0.00155987
0.00147706
0.00133723
0.00204382
0.00192444
0.00188229
0.00198197
0.00201241
0.00207898
3.2409e-05
0.00202016
0.00197219
0.00142309
0.00203446
3.2409e-05
0.00132419
0.00172673
0.00188731
0.00204629
)


// ************************************************************************* //
