/*--------------------------------*- C++ -*----------------------------------*\
  =========                 |
  \\      /  F ield         | OpenFOAM: The Open Source CFD Toolbox
   \\    /   O peration     | Website:  https://openfoam.org
    \\  /    A nd           | Version:  7
     \\/     M anipulation  |
\*---------------------------------------------------------------------------*/
FoamFile
{
    version     2.0;
    format      ascii;
    class       scalarField;
    location    "0.7/lagrangian/reactingCloud1";
    object      age;
}
// * * * * * * * * * * * * * * * * * * * * * * * * * * * * * * * * * * * * * //


2546
(
0.004115
0.00401
0.00400625
0.003905
0.0038
0.003695
0.00359
0.003485
0.00338
0.003275
0.00317
0.003065
0.00296
0.002855
0.00275
0.002645
0.00254
0.002435
0.00243125
0.00233
0.002225
0.00212
0.002015
0.00191
0.001805
0.0017
0.001595
0.00149
0.001385
0.00128
0.001175
0.00107
0.000965
0.00086
0.000755
0.00065
0.000545
0.00044
0.000335
0.00033125
0.00023
0.000125
2e-05
0.041725
0.040465
0.012205
0.010735
0.010525
0.01042
0.010315
0.010945
0.01021
0.010105
0.01
0.0099
0.0098
0.0097
0.0096
0.0095
0.0094
0.0093
0.0091
0.0092
0.009
0.0088
0.0087
0.0086
0.0085
0.0084
0.0089
0.0082
0.0081
0.008
0.0079
0.0083
0.0078
0.0077
0.0076
0.0074
0.0075
0.0073
0.0072
0.0071
0.007
0.0069
0.0068
0.0067
0.0065
0.0066
0.0064
0.0063
0.0061
0.0062
0.0059
0.006
0.005795
0.00569
0.005585
0.00548
0.00537125
0.005375
0.00527
0.005165
0.00516125
0.00506
0.004955
0.00485
0.004745
0.00474125
0.00464
0.004535
0.00443
0.004325
0.00422
0.012415
0.0119912
0.0121
0.01231
0.011785
0.011995
0.01252
0.0116762
0.01189
0.01168
0.01147
0.011365
0.011575
0.01378
0.011155
0.01105
0.01084
0.01126
0.01063
0.01399
0.01336
0.013465
0.01357
0.013045
0.013255
0.012835
0.01294
0.01273
0.012625
0.0128312
0.0125162
0.01315
0.01728
0.01718
0.015565
0.015145
0.014725
0.01483
0.01504
0.044665
0.01678
0.014305
0.014515
0.01525
0.014935
0.0150362
0.0142
0.01441
0.01462
0.014095
0.013675
0.013885
0.0180071
0.01698
0.01688
0.01778
0.01668
0.01748
0.01708
0.01638
0.01628
0.01648
0.01618
0.01658
0.015775
0.01608
0.01938
0.01798
0.015355
0.01588
0.01598
0.01546
0.01567
0.0255604
0.0207129
0.0184833
0.02061
0.023235
0.01988
0.0199762
0.020085
0.01978
0.01968
0.01948
0.01998
0.01918
0.01908
0.021345
0.01958
0.01848
0.01868
0.01878
0.01858
0.01898
0.01838
0.01808
0.01828
0.01888
0.01928
0.01758
0.01738
0.01768
0.01788
0.01818
0.0223501
0.0233847
0.02666
0.02376
0.024915
0.024285
0.02397
0.023655
0.023865
0.02523
0.02439
0.02355
0.024075
0.02502
0.02313
0.02334
0.023025
0.02418
0.02292
0.022815
0.023445
0.02646
0.02229
0.02271
0.021975
0.022185
0.02481
0.02187
0.02208
0.02766
0.022605
0.021555
0.022395
0.021135
0.0225
0.02103
0.02145
0.02166
0.0206062
0.020925
0.020505
0.02124
0.02019
0.021765
0.0204
0.020715
0.02082
0.020295
0.0295493
0.0287736
0.0441063
0.0273925
0.0292655
0.0256801
0.0579472
0.0248334
0.0264551
0.0271854
0.0279041
0.0265369
0.0369971
0.0294614
0.0278466
0.0247477
0.0260486
0.0266271
0.0249134
0.0300456
0.0322578
0.026213
0.028919
0.0275012
0.0283067
0.0264757
0.0286378
0.0293236
0.0241832
0.0313428
0.028027
0.0719759
0.0300716
0.0305221
0.0303178
0.0268409
0.0348481
0.0279029
0.0300303
0.0305619
0.03374
0.031745
0.030905
0.02996
0.030695
0.030065
0.03353
0.02966
0.02956
0.030275
0.03038
0.02916
0.02886
0.031535
0.02936
0.02866
0.02976
0.02876
0.02856
0.02926
0.02816
0.02806
0.02846
0.02836
0.02746
0.02786
0.02756
0.02776
0.037745
0.02906
0.02896
0.02736
0.02716
0.02946
0.032795
0.02706
0.02676
0.02796
0.02626
0.02656
0.02686
0.02636
0.02726
0.02606
0.02696
0.025755
0.025545
0.02826
0.02616
0.02544
0.02586
0.03206
0.02596
0.025335
0.025125
0.0246
0.024495
0.024705
0.02565
0.0324726
0.0349921
0.0337511
0.0335616
0.0349235
0.0316293
0.0358926
0.0383108
0.0340223
0.0351278
0.0365683
0.0331433
0.0321419
0.031844
0.0341637
0.0340507
0.081825
0.0371812
0.0307984
0.0305045
0.0341152
0.0378333
0.0345745
0.034063
0.0384312
0.0354177
0.0358002
0.0303451
0.034007
0.0354392
0.031556
0.0361274
0.0341865
0.0360266
0.0321494
0.0342401
0.0323897
0.0306458
0.0482354
0.0346935
0.0364184
0.0357978
0.0362416
0.0388924
0.0358068
0.0363534
0.03502
0.034413
0.0363884
0.0372242
0.035878
0.0313445
0.0395656
0.125965
0.0364025
0.0351227
0.0369093
0.0346159
0.033261
0.0579892
0.0346131
0.0357192
0.0312734
0.0360452
0.0366903
0.0377027
0.0355136
0.0322381
0.0645354
0.0322767
0.0433
0.039245
0.03302
0.039145
0.036945
0.037245
0.036445
0.036845
0.036245
0.036045
0.037045
0.036745
0.035735
0.03584
0.03563
0.035525
0.037445
0.036345
0.035945
0.036145
0.03542
0.038745
0.036645
0.038845
0.03521
0.038245
0.03479
0.035
0.037945
0.034685
0.038645
0.03437
0.034895
0.03458
0.034055
0.037145
0.033845
0.035315
0.037545
0.04036
0.03311
0.033425
0.033005
0.032585
0.033635
0.03269
0.032375
0.033215
0.03248
0.03395
0.0329
0.032165
0.03416
0.031955
0.03164
0.03332
0.03143
0.03185
0.031115
0.0314262
0.03227
0.0308
0.03122
0.031325
0.030485
0.03017
0.03059
0.03101
0.034475
0.02986
0.0398012
0.0414882
0.0416471
0.0441459
0.0404785
0.0432339
0.0387103
0.0412117
0.0443796
0.0414913
0.045796
0.0424432
0.0380227
0.0447138
0.0406919
0.0436571
0.0417345
0.0414012
0.0418626
0.040851
0.0421324
0.04094
0.041107
0.0436354
0.0386239
0.0414721
0.0411923
0.0408267
0.0379519
0.0376588
0.0432843
0.0399223
0.043437
0.042861
0.045106
0.0458365
0.0440832
0.0399867
0.0429921
0.0413627
0.0406366
0.0410699
0.0420114
0.0412999
0.0423156
0.0457468
0.0437397
0.0397502
0.041134
0.042042
0.04032
0.0430556
0.0409835
0.0548562
0.0398027
0.0408816
0.0420417
0.043572
0.0432139
0.0373799
0.0455305
0.0438952
0.041553
0.0392626
0.0435401
0.0452225
0.0388793
0.0426605
0.0439827
0.0460433
0.0426426
0.0393803
0.0398494
0.0388443
0.0385059
0.0422793
0.0390332
0.0473762
0.0375321
0.0442586
0.0413559
0.0382654
0.039922
0.0440407
0.0447565
0.0427227
0.0384069
0.0450515
0.0448269
0.0434877
0.041415
0.0405989
0.0422181
0.0426459
0.0385697
0.0394713
0.0434488
0.0390998
0.0426654
0.0458516
0.0417783
0.041925
0.0416625
0.0437648
0.0395091
0.045249
0.054225
0.0416678
0.043952
0.053595
0.048325
0.04435
0.0389171
0.0516
0.0419155
0.044245
0.047525
0.043405
0.043195
0.047025
0.043615
0.04414
0.04351
0.044455
0.04309
0.04267
0.04288
0.04246
0.046325
0.0439262
0.04225
0.04519
0.048625
0.0438212
0.044035
0.04141
0.04162
0.042985
0.04099
0.04183
0.041095
0.0412
0.040885
0.04078
0.041305
0.078165
0.04204
0.040255
0.04015
0.040045
0.0423484
0.039745
0.042145
0.039845
0.039545
0.039445
0.041515
0.041935
0.039045
0.04582
0.043825
0.045715
0.038545
0.04057
0.038945
0.040675
0.039345
0.039945
0.038345
0.039645
0.038045
0.038145
0.042775
0.038445
0.037345
0.037845
0.0526294
0.0443037
0.0538263
0.0469506
0.0478658
0.0441789
0.0545651
0.0439141
0.0449723
0.0471942
0.0523504
0.0540802
0.050073
0.0549954
0.0483591
0.0461395
0.0557513
0.0549247
0.0476799
0.0520951
0.0517246
0.0466315
0.0567722
0.0549684
0.0479745
0.0531194
0.0479346
0.0545442
0.054441
0.0464256
0.050642
0.0512111
0.0498159
0.0474162
0.0485996
0.0505521
0.0552899
0.0510156
0.0532694
0.0551438
0.0527589
0.0513819
0.0476812
0.0562847
0.0449956
0.0506571
0.0510585
0.0489167
0.0451565
0.0490345
0.0467085
0.0459836
0.0481988
0.0567272
0.0446992
0.0560429
0.0448748
0.0508334
0.0446737
0.0453662
0.0519891
0.0557309
0.0534839
0.0466399
0.0467709
0.0518744
0.0535072
0.044972
0.0514849
0.0545061
0.0496257
0.0440479
0.0495253
0.0515331
0.0495173
0.0512893
0.050478
0.0542895
0.0547248
0.0486898
0.0508812
0.0533629
0.0472979
0.0498402
0.0488353
0.0550429
0.0541012
0.0498972
0.0475234
0.0447231
0.0548242
0.0561932
0.056147
0.0489313
0.0541211
0.0479211
0.0494243
0.0506856
0.0490852
0.0474436
0.0470443
0.0544006
0.046689
0.0458225
0.0545225
0.0460121
0.045805
0.0564419
0.0520583
0.0580554
0.0502444
0.0525592
0.051734
0.0520926
0.0547942
0.0546136
0.0443096
0.0493901
0.0497965
0.0480686
0.0516937
0.0516163
0.0509612
0.0544721
0.0503429
0.0548071
0.0523745
0.044648
0.046409
0.0529713
0.051776
0.0529237
0.0469186
0.0446197
0.0446494
0.0459839
0.0510893
0.0472706
0.056652
0.0546635
0.0469251
0.0503326
0.044393
0.0522992
0.053255
0.0514345
0.0510784
0.0471947
0.0556172
0.0547424
0.0508777
0.0472703
0.0539078
0.0474404
0.0509198
0.0470238
0.0533791
0.048474
0.04949
0.0545303
0.0526861
0.0572517
0.0534995
0.0510872
0.0554001
0.0549245
0.0492934
0.0538337
0.0467321
0.0505347
0.0521731
0.0555079
0.0490508
0.0542541
0.0446072
0.0451732
0.0504658
0.0496244
0.0521556
0.0700442
0.0524169
0.0511871
0.0456002
0.0486672
0.0475334
0.0490172
0.0488609
0.0461893
0.0441822
0.0498885
0.0478217
0.0546285
0.0544778
0.0453641
0.0510241
0.0570618
0.0462937
0.0703
0.0507446
0.0554396
0.069485
0.06452
0.068185
0.0521544
0.0745
0.057405
0.056705
0.056205
0.063155
0.058305
0.066085
0.06578
0.055485
0.056605
0.055905
0.057205
0.055695
0.0550612
0.05517
0.054645
0.05475
0.055065
0.054435
0.060635
0.065255
0.058905
0.056005
0.05391
0.054855
0.0558
0.055275
0.05496
0.05307
0.05328
0.05412
0.05559
0.052965
0.05538
0.053385
0.058705
0.052755
0.0518864
0.053175
0.05223
0.05286
0.05244
0.058005
0.0531712
0.052125
0.05349
0.05139
0.0523309
0.0460038
0.06242
0.051285
0.05097
0.050865
0.0537
0.052545
0.05202
0.0503362
0.056805
0.05055
0.0524362
0.051915
0.051075
0.050025
0.058405
0.05013
0.05118
0.057805
0.049525
0.049625
0.058205
0.049925
0.049325
0.05454
0.049825
0.049225
0.049025
0.048725
0.048425
0.0541162
0.056105
0.048525
0.048825
0.056905
0.047925
0.054015
0.05034
0.047725
0.053805
0.056305
0.047825
0.047625
0.049125
0.050655
0.051495
0.05433
0.05181
0.049725
0.049425
0.0551662
0.05265
0.046125
0.047125
0.047225
0.046725
0.046625
0.048225
0.048125
0.048925
0.050235
0.046225
0.06221
0.0535912
0.046525
0.04498
0.046425
0.045295
0.04561
0.045925
0.0454
0.04477
0.047425
0.044875
0.045505
0.046925
0.045085
0.046025
0.04456
0.0681767
0.06499
0.0622436
0.0558195
0.0551031
0.0612974
0.059826
0.0643008
0.0588954
0.0634452
0.0626986
0.0582692
0.0658455
0.0603986
0.0584598
0.0567746
0.0702193
0.0743345
0.0632629
0.0674358
0.0712474
0.0601508
0.0593807
0.0598318
0.0613468
0.0551442
0.0577921
0.0647668
0.0597368
0.0609762
0.0616093
0.0710054
0.0640982
0.0616139
0.0687518
0.0637066
0.0587759
0.0680632
0.0571616
0.0618292
0.0608626
0.0700443
0.0749955
0.066149
0.0631245
0.0596068
0.0624804
0.0589153
0.0604969
0.0586311
0.0578428
0.0655405
0.0616124
0.0617412
0.0598513
0.0559514
0.0569587
0.0603433
0.0641468
0.0586968
0.0687369
0.063458
0.062123
0.0673921
0.0693817
0.0715684
0.0640546
0.0715342
0.0644656
0.0665184
0.0696938
0.063915
0.0662089
0.0639568
0.058652
0.0667892
0.0559662
0.0699197
0.0679664
0.0686078
0.0689636
0.0600166
0.0661933
0.0573443
0.0643825
0.063812
0.056092
0.0730603
0.0656971
0.0592468
0.061073
0.0646709
0.0626066
0.0567757
0.0590521
0.0624021
0.0681531
0.0657143
0.0860755
0.0600024
0.0634585
0.0593347
0.0677407
0.0634855
0.0656842
0.0654801
0.060184
0.0683871
0.0687072
0.0593128
0.0681407
0.0629317
0.0608994
0.0633715
0.0819075
0.0679151
0.0621351
0.067392
0.0678638
0.0569099
0.0684004
0.0630056
0.0655492
0.0671653
0.060197
0.0681837
0.0659724
0.063913
0.0594953
0.0681829
0.0624407
0.0658606
0.0566567
0.0652336
0.0640229
0.0737177
0.0673274
0.0691589
0.0598633
0.0580887
0.0706272
0.0568634
0.0673087
0.0703957
0.0619328
0.0646978
0.0665682
0.0641419
0.0664102
0.0690208
0.0587017
0.0624996
0.0577304
0.0617105
0.067618
0.0657444
0.0632737
0.0618388
0.0667568
0.0583058
0.0664611
0.0633257
0.058497
0.0571829
0.0647811
0.0705281
0.0640875
0.0653586
0.0610124
0.0617848
0.0711146
0.0680819
0.0635064
0.056751
0.0629512
0.0603397
0.0672998
0.0704851
0.0579159
0.0684844
0.0565859
0.0620401
0.0564654
0.0665678
0.061746
0.0730554
0.0604271
0.0585243
0.064
0.0591662
0.0692792
0.0608962
0.0571668
0.0622556
0.0602544
0.0645409
0.0633998
0.0687576
0.0673481
0.0623027
0.0583222
0.0644877
0.0702764
0.0597711
0.060917
0.0559162
0.0609691
0.0696748
0.0564341
0.0585193
0.0653206
0.063426
0.0588951
0.0626107
0.0641477
0.0673905
0.0615835
0.0689756
0.0561767
0.0676685
0.0589829
0.0619547
0.0620878
0.0579067
0.0618684
0.0630994
0.0619264
0.0710872
0.0578755
0.0731251
0.0563199
0.0694354
0.0649334
0.0656186
0.067559
0.0662362
0.0654352
0.0581647
0.0615694
0.0595824
0.0679587
0.0609255
0.0603596
0.106905
0.0661708
0.0636762
0.08101
0.0637975
0.0852062
0.079965
0.080275
0.08164
0.09204
0.09078
0.088745
0.0830012
0.0704658
0.0661548
0.076265
0.07366
0.07471
0.077665
0.070615
0.072085
0.065496
0.081325
0.0687669
0.071665
0.069885
0.07324
0.077065
0.0635588
0.07408
0.069585
0.070825
0.072505
0.075025
0.071875
0.075965
0.076765
0.068885
0.07303
0.066525
0.07555
0.07198
0.068685
0.081745
0.069185
0.067785
0.07282
0.07093
0.07072
0.067685
0.066985
0.065885
0.066285
0.0659229
0.066185
0.067885
0.067085
0.076865
0.069285
0.066785
0.073135
0.06557
0.077465
0.067185
0.066885
0.067385
0.065045
0.068585
0.065465
0.07156
0.0649362
0.068385
0.064835
0.06515
0.066685
0.067985
0.064205
0.078565
0.0641
0.07534
0.063995
0.06473
0.06305
0.068485
0.068985
0.06431
0.06179
0.06368
0.062735
0.064415
0.06116
0.069985
0.061895
0.065985
0.06032
0.063575
0.065675
0.06095
0.069785
0.06053
0.062105
0.059673
0.06326
0.06284
0.059705
0.059405
0.062
0.061265
0.062525
0.063785
0.06494
0.06536
0.061685
0.059005
0.060005
0.06074
0.06389
0.06263
0.061055
0.059105
0.057705
0.060215
0.06137
0.066485
0.059905
0.058505
0.06011
0.057905
0.060845
0.059205
0.060425
0.058605
0.057005
0.058105
0.057105
0.057605
0.056405
0.056505
0.067485
0.058805
0.0870635
0.0808501
0.0840218
0.0758016
0.0729769
0.0822558
0.0940733
0.0728404
0.0745874
0.0796185
0.0750173
0.0697789
0.0793469
0.0771917
0.106285
0.0829666
0.0728163
0.0810953
0.077946
0.0766857
0.0808959
0.0832862
0.0714975
0.0793723
0.0841935
0.0768732
0.0746282
0.0706572
0.072006
0.0763114
0.0991854
0.0768943
0.083396
0.0728828
0.0815161
0.0780734
0.0716497
0.0904143
0.0743201
0.07877
0.0740526
0.0844693
0.0722539
0.0768724
0.0726624
0.0706096
0.0867496
0.0858055
0.0727898
0.0780426
0.0872319
0.0722434
0.0751877
0.0777029
0.084962
0.0775994
0.0763544
0.0809176
0.0783539
0.0774555
0.0838915
0.0790833
0.0757822
0.0833208
0.0809621
0.0847834
0.0700898
0.0852436
0.0926663
0.071067
0.0835053
0.0809964
0.0764736
0.0819901
0.0781535
0.0849417
0.0700354
0.0741392
0.0701359
0.0852861
0.0807908
0.0725198
0.077701
0.072738
0.0889164
0.0713823
0.071799
0.07867
0.0840251
0.0792304
0.0704323
0.0880616
0.0821381
0.0827778
0.0817916
0.0813225
0.0702446
0.0820568
0.0798754
0.0843518
0.0722451
0.0802227
0.0825922
0.0779013
0.0761516
0.0856517
0.0842657
0.0807321
0.0806761
0.0828205
0.0735088
0.0799422
0.0811853
0.0836965
0.0720282
0.0801906
0.07169
0.0766616
0.0752385
0.0795969
0.0853737
0.0756754
0.0768341
0.0819031
0.077465
0.0734929
0.0747176
0.0789426
0.0774706
0.08942
0.0911385
0.0831992
0.0869213
0.0875942
0.0793867
0.080148
0.0821279
0.0849411
0.0842554
0.0787828
0.0833477
0.0814176
0.0818917
0.0907704
0.0867076
0.0796665
0.0717593
0.0991379
0.0769801
0.0799988
0.0704185
0.0720679
0.0785746
0.0750255
0.078514
0.0785798
0.0730708
0.0769097
0.0807481
0.0753034
0.0803657
0.0772336
0.0828389
0.0799881
0.0741128
0.0718183
0.0702826
0.0796326
0.0982294
0.0817689
0.0775481
0.076057
0.0711474
0.0843439
0.0802544
0.0815184
0.0769914
0.0874259
0.075048
0.0788549
0.0757805
0.0709592
0.109405
0.108905
0.10538
0.10433
0.0742714
0.09309
0.114625
0.0911479
0.10244
0.0954
0.102335
0.105695
0.0770957
0.094455
0.0867611
0.095085
0.092775
0.094875
0.084895
0.089845
0.226995
0.096425
0.09351
0.086345
0.084137
0.088545
0.0841556
0.084265
0.089545
0.0828276
0.088345
0.095715
0.08332
0.086745
0.085
0.086945
0.0870447
0.08374
0.083635
0.085525
0.094245
0.081955
0.08437
0.089245
0.08542
0.088445
0.08227
0.0836312
0.08038
0.086445
0.08521
0.08395
0.094035
0.08458
0.0829
0.087745
0.080065
0.0817412
0.0838111
0.08353
0.08143
0.079865
0.085945
0.087945
0.08017
0.078865
0.078465
0.078265
0.085105
0.078965
0.079365
0.09372
0.077765
0.0774086
0.081535
0.091725
0.080485
0.0770903
0.079265
0.084685
0.077365
0.083215
0.080695
0.082795
0.09477
0.087645
0.077565
0.076665
0.076965
0.076365
0.08248
0.077865
0.099525
0.076465
0.075865
0.077965
0.08206
0.079765
0.0741589
0.08269
0.0756541
0.079165
0.074605
0.079465
0.084055
0.073345
0.078431
0.07513
0.08059
0.073765
0.082375
0.08185
0.07492
0.076565
0.07429
0.074395
0.072925
0.085315
0.07576
0.07261
0.086145
0.077265
0.072715
0.07219
0.07387
0.0724
0.071245
0.071455
0.087145
0.087545
0.075445
0.080905
0.071035
0.0702306
0.07345
0.070195
0.070405
0.082165
0.0705097
0.0752312
0.0851053
0.087093
0.0931101
0.0855543
0.100146
0.107395
0.0966965
0.088697
0.0970538
0.0970496
0.0919574
0.0912452
0.0892993
0.0901204
0.0988546
0.0912164
0.105662
0.0904079
0.10792
0.0903945
0.10727
0.0956056
0.0901406
0.104921
0.10344
0.0896308
0.108498
0.088521
0.0909463
0.107276
0.107496
0.104901
0.109338
0.0910096
0.102078
0.104637
0.106026
0.0988864
0.106953
0.088001
0.101515
0.0993586
0.0966947
0.10122
0.094356
0.101143
0.101358
0.1051
0.0891584
0.103698
0.1031
0.103293
0.0981594
0.0969696
0.0976131
0.0862119
0.0957771
0.0872311
0.103164
0.0871197
0.104804
0.104402
0.092471
0.104712
0.108911
0.0936469
0.10407
0.110072
0.11159
0.092676
0.0853591
0.108189
0.093274
0.106234
0.0952502
0.100328
0.0928681
0.091923
0.11125
0.117864
0.105149
0.0933553
0.0882961
0.0946547
0.100747
0.0958863
0.109931
0.0875083
0.124746
0.104348
0.106982
0.0962955
0.0993205
0.0946074
0.104653
0.0934017
0.0944772
0.0924651
0.0920532
0.10192
0.0850865
0.0990233
0.0934591
0.0916618
0.086813
0.110734
0.0945931
0.103105
0.0943573
0.0870587
0.0957985
0.101104
0.092772
0.102319
0.0905767
0.0890169
0.0920426
0.0884689
0.0980011
0.0971904
0.0935366
0.103747
0.10267
0.0958637
0.101392
0.0988302
0.107376
0.0935951
0.0953257
0.088523
0.0981761
0.125867
0.106557
0.0902308
0.0882581
0.107033
0.0971718
0.110657
0.140045
0.102216
0.0885026
0.127665
0.113365
0.121665
0.117485
0.11179
0.120825
0.132585
0.112525
0.0994234
0.108999
0.1141
0.11347
0.107705
0.124601
0.11284
0.11515
0.134265
0.112
0.107005
0.117385
0.106805
0.118485
0.108605
0.11578
0.111685
0.106505
0.104645
0.108405
0.127765
0.0928457
0.103453
0.105065
0.119685
0.10412
0.117685
0.104431
0.126465
0.10307
0.107305
0.106551
0.138945
0.103175
0.109105
0.0860954
0.108805
0.104015
0.122295
0.108105
0.117985
0.104326
0.103805
0.102965
0.10517
0.102331
0.10475
0.104225
0.10118
0.114205
0.116885
0.105624
0.109705
0.10139
0.102125
0.106305
0.0904348
0.0868089
0.108305
0.112105
0.108705
0.106605
0.107605
0.106705
0.119185
0.099125
0.113575
0.10265
0.100651
0.100681
0.10202
0.101463
0.097225
0.116185
0.092387
0.0940458
0.098525
0.108505
0.116585
0.10097
0.0989072
0.0999244
0.097725
0.0989857
0.10076
0.101906
0.11137
0.096725
0.099225
0.127565
0.111895
0.10391
0.100025
0.0955828
0.0958158
0.0926161
0.097425
0.10055
0.097525
0.11221
0.12576
0.10496
0.097125
0.101285
0.096925
0.116985
0.0969195
0.09582
0.096525
0.099625
0.09519
0.096225
0.100235
0.095295
0.092145
0.093405
0.10349
0.097325
0.13017
0.096125
0.113151
0.10034
0.093825
0.093195
0.094665
0.124395
0.10013
0.092565
0.11368
0.09183
0.0933
0.09246
0.0907679
0.09162
0.097925
0.0922772
0.098425
0.096325
0.09561
0.092985
0.101075
0.09393
0.100655
0.09288
0.100865
0.09456
0.098125
0.09057
0.09015
0.101705
0.095505
0.087845
0.088245
0.09498
0.090045
0.0875723
0.091515
0.09225
0.086845
0.089045
0.0939262
0.096825
0.09414
0.105485
0.087445
0.103385
0.090675
0.12345
0.092355
0.086545
0.087345
0.087245
0.09036
0.091935
0.088845
0.115011
0.121176
0.139236
0.119389
0.159316
0.126278
0.127007
0.112376
0.122817
0.150258
0.132504
0.111356
0.114867
0.150965
0.141642
0.130274
0.116042
0.143904
0.113355
0.121638
0.140588
0.139361
0.143822
0.146553
0.158434
0.121265
0.157073
0.148286
0.137291
0.162571
0.126866
0.14545
0.125229
0.120536
0.133311
0.129867
0.120754
0.151429
0.154639
0.138596
0.129026
0.165231
0.14177
0.144498
0.149946
0.141259
0.154005
0.153512
0.165447
0.139826
0.140692
0.110207
0.147196
0.152623
0.172565
0.144318
0.122946
0.141637
0.160424
0.154438
0.169783
0.133259
0.155894
0.116337
0.121413
0.132727
0.171049
0.150727
0.161303
0.143827
0.12571
0.157323
0.153968
0.121191
0.120135
0.151363
0.114477
0.135597
0.123222
0.135082
0.120947
0.150653
0.155277
0.140822
0.142873
0.133469
0.118988
0.147282
0.12665
0.131856
0.139488
0.133654
0.144545
0.160407
0.146054
0.159991
0.114655
0.142902
0.133407
0.116623
0.128578
0.154659
0.131227
0.10928
0.159544
0.118914
0.119119
0.153322
0.126369
0.157406
0.129353
0.122971
0.142904
0.140935
0.137795
0.137981
0.175308
0.149131
0.113796
0.124429
0.128137
0.128624
0.141738
0.147074
0.143422
0.161175
0.138878
0.125508
0.140548
0.145779
0.1912
0.198025
0.18269
0.17429
0.155499
0.118459
0.171251
0.183425
0.176365
0.155071
0.181111
0.176065
0.188245
0.113412
0.16326
0.108158
0.162735
0.191305
0.16486
0.163575
0.1641
0.161116
0.163361
0.169785
0.168785
0.179965
0.183635
0.19309
0.166985
0.160005
0.157605
0.1703
0.170615
0.173975
0.160631
0.150544
0.158649
0.16536
0.163365
0.159105
0.17555
0.163785
0.16368
0.159071
0.156924
0.142717
0.17009
0.157405
0.155275
0.166185
0.156705
0.151255
0.176565
0.157805
0.15517
0.141799
0.18185
0.159505
0.15454
0.158205
0.167585
0.1954
0.155749
0.161261
0.160425
0.154931
0.158905
0.169685
0.16557
0.159905
0.152335
0.160215
0.13128
0.16242
0.121385
0.15265
0.152755
0.15391
0.130421
0.154225
0.153805
0.17156
0.159405
0.158105
0.15139
0.161475
0.167885
0.15559
0.157105
0.149425
0.15328
0.16494
0.150548
0.149825
0.154855
0.175655
0.148825
0.158405
0.121118
0.154931
0.1537
0.15286
0.150445
0.148725
0.158805
0.166585
0.146677
0.164625
0.139965
0.160635
0.150339
0.156805
0.16116
0.148325
0.147408
0.15181
0.153002
0.147525
0.1558
0.156005
0.167385
0.168385
0.147125
0.149225
0.151461
0.14414
0.14477
0.146525
0.146425
0.159805
0.146825
0.151915
0.146125
0.159005
0.147925
0.14498
0.17261
0.19456
0.150865
0.1433
0.1516
0.14183
0.148525
0.156505
0.149525
0.141305
0.148125
0.149725
0.14519
0.140465
0.146225
0.14435
0.14393
0.189945
0.148425
0.1454
0.16032
0.141935
0.156105
0.14078
0.14099
0.14267
0.143719
0.14036
0.139003
0.139045
0.155695
0.146485
0.137387
0.175235
0.146025
0.146925
0.16263
0.149918
0.136345
0.137945
0.142019
0.161055
0.15013
0.134668
0.145085
0.136445
0.135223
0.136645
0.141095
0.137045
0.139845
0.1412
0.137645
0.139945
0.135525
0.149325
0.133317
0.142565
0.147425
0.138445
0.124691
0.137145
0.174815
0.159705
0.142775
0.134055
0.155065
0.14057
0.132375
0.139445
0.132165
0.15412
0.137345
0.134475
0.159605
0.145925
0.13458
0.142355
0.131323
0.151495
0.13542
0.144665
0.135105
0.15076
0.134261
0.14246
0.139545
0.13395
0.13206
0.13226
0.137545
0.132686
0.128683
0.16284
0.137245
0.141725
0.16179
0.129065
0.152125
0.138245
0.129465
0.129365
0.160946
0.136745
0.158605
0.158005
0.147625
0.1329
0.135315
0.130485
0.13038
0.129965
0.137745
0.153595
0.12817
0.112053
0.12885
0.127265
0.125655
0.141931
0.127465
0.127865
0.124815
0.150655
0.125445
0.127065
0.136245
0.138745
0.14204
0.128465
0.126965
0.130905
0.139145
0.1308
0.128665
0.133425
0.127365
0.128065
0.131745
0.13122
0.126899
0.12429
0.13185
0.129265
0.126665
0.122491
0.13059
0.123555
0.123866
0.121342
0.12387
0.137845
0.12135
0.139345
0.127165
0.136974
0.123618
0.136945
0.133635
0.128165
0.139245
0.121035
0.126765
0.119585
0.12324
0.130065
0.140885
0.13563
0.112754
0.128965
0.133215
0.135735
0.118585
0.118685
0.120195
0.138845
0.117085
0.13311
0.133005
0.12282
0.11889
0.120926
0.122715
0.120339
0.117185
0.144875
0.139745
0.12009
0.115465
0.12555
0.12177
0.121661
0.115643
0.117585
0.11473
0.116385
0.118185
0.113785
0.117785
0.134895
0.130275
0.120405
0.116485
0.1224
0.147725
0.12093
0.122925
0.115255
0.13584
0.119985
0.126165
0.111499
0.120661
0.110635
0.112735
0.11557
0.11263
0.118085
0.126265
0.109903
0.13353
0.109052
0.11242
0.11452
0.126365
0.12156
0.14141
0.131535
0.119085
0.11032
0.114415
0.110845
0.109305
0.116411
0.11158
0.125865
0.11536
0.111055
0.11095
)


// ************************************************************************* //
