/*--------------------------------*- C++ -*----------------------------------*\
  =========                 |
  \\      /  F ield         | OpenFOAM: The Open Source CFD Toolbox
   \\    /   O peration     | Website:  https://openfoam.org
    \\  /    A nd           | Version:  7
     \\/     M anipulation  |
\*---------------------------------------------------------------------------*/
FoamFile
{
    version     2.0;
    format      ascii;
    class       scalarField;
    location    "0.7/lagrangian/reactingCloud1";
    object      cellDensity;
}
// * * * * * * * * * * * * * * * * * * * * * * * * * * * * * * * * * * * * * //


2546
(
0.250817
0.250457
0.250255
0.249932
0.249809
0.249286
0.248899
0.249134
0.249394
0.248754
0.248807
0.248378
0.248842
0.248441
0.248416
0.248532
0.246924
0.247537
0.247091
0.247648
0.247439
0.24817
0.247712
0.247991
0.247715
0.247962
0.247571
0.247976
0.247753
0.247771
0.247774
0.247772
0.247744
0.247781
0.247761
0.247778
0.247824
0.247789
0.247807
0.247796
0.247799
0.247705
0.247754
0.251813
0.253012
0.25284
0.253355
0.249599
0.250511
0.250436
0.250463
0.248723
0.25328
0.252332
0.252932
0.252451
0.250883
0.252076
0.251645
0.251005
0.250699
0.253075
0.250441
0.252821
0.251691
0.25249
0.25325
0.254015
0.25286
0.253723
0.253156
0.252538
0.253623
0.253125
0.251668
0.253011
0.252844
0.252945
0.252895
0.252689
0.25351
0.253499
0.253707
0.25385
0.25381
0.252894
0.253297
0.253355
0.25279
0.252808
0.252811
0.253259
0.252506
0.253239
0.252642
0.25293
0.253336
0.252229
0.252399
0.252694
0.252224
0.25214
0.25238
0.25181
0.251928
0.252843
0.25275
0.251643
0.251881
0.25144
0.251671
0.251895
0.251321
0.250717
0.212759
0.217947
0.219417
0.220101
0.225167
0.22853
0.234891
0.232383
0.234866
0.233489
0.234507
0.236454
0.238915
0.240691
0.240973
0.241777
0.24213
0.244129
0.243367
0.176034
0.180024
0.182676
0.190995
0.190137
0.197341
0.199706
0.199375
0.200792
0.201828
0.203609
0.204833
0.203532
0.194084
0.228787
0.164889
0.1651
0.165708
0.166037
0.166103
0.166437
0.166413
0.166911
0.167635
0.168007
0.170955
0.17867
0.168352
0.168758
0.17023
0.170347
0.172226
0.172832
0.164196
0.163631
0.163698
0.195475
0.163799
0.164971
0.17576
0.163875
0.163924
0.163871
0.163974
0.166756
0.164186
0.167791
0.167573
0.204837
0.164335
0.167332
0.164631
0.164433
0.165941
0.163396
0.162673
0.163258
0.190945
0.20143
0.16252
0.162674
0.173275
0.162576
0.162795
0.162627
0.180307
0.162742
0.162782
0.361913
0.162908
0.162999
0.162908
0.16343
0.162996
0.195379
0.163137
0.16315
0.174186
0.367166
0.163731
0.163419
0.163464
0.163747
0.170556
0.204494
0.1624
0.162192
0.358562
0.162149
0.184188
0.162579
0.162257
0.16214
0.162943
0.163183
0.186808
0.162152
0.216032
0.221257
0.16216
0.164723
0.162612
0.175268
0.162148
0.163152
0.162712
0.213655
0.162249
0.198545
0.162238
0.162787
0.362926
0.162246
0.188744
0.201483
0.162264
0.162288
0.217278
0.162296
0.162315
0.162328
0.171919
0.194532
0.162405
0.177019
0.162443
0.188809
0.162517
0.162484
0.162465
0.182933
0.175109
0.162499
0.161998
0.162001
0.162014
0.161995
0.162001
0.162047
0.162026
0.162133
0.162101
0.162101
0.161992
0.162089
0.162026
0.161998
0.162026
0.162095
0.162052
0.162147
0.16214
0.161986
0.162026
0.162067
0.162089
0.162026
0.162011
0.162038
0.162004
0.161998
0.162147
0.161992
0.162007
0.162083
0.162007
0.161986
0.161989
0.162095
0.161995
0.161998
0.161989
0.162083
0.354176
0.224294
0.197245
0.171107
0.344924
0.175072
0.161988
0.161979
0.170657
0.161985
0.161979
0.184359
0.16198
0.253548
0.192082
0.16199
0.264197
0.16212
0.163909
0.17993
0.162089
0.16199
0.187402
0.184647
0.162018
0.18648
0.162002
0.168234
0.356636
0.171654
0.208273
0.162005
0.162011
0.353377
0.356988
0.178752
0.162052
0.305697
0.162024
0.162308
0.172513
0.162506
0.162075
0.162036
0.209154
0.162089
0.162072
0.347346
0.235782
0.162041
0.180573
0.35706
0.162056
0.162083
0.162062
0.162108
0.162252
0.169799
0.180409
0.161955
0.161941
0.161949
0.16195
0.161947
0.161969
0.161947
0.161933
0.161946
0.161938
0.161934
0.16195
0.161959
0.161959
0.161938
0.161952
0.161947
0.161947
0.161969
0.161983
0.161946
0.161935
0.161945
0.16195
0.161932
0.161938
0.161943
0.161981
0.161952
0.161957
0.161983
0.161931
0.161941
0.161932
0.161969
0.161947
0.161963
0.161974
0.161931
0.161946
0.161954
0.161941
0.161946
0.161932
0.161934
0.161936
0.161954
0.161941
0.161943
0.161931
0.161941
0.161981
0.161946
0.16195
0.161933
0.161972
0.161931
0.161943
0.16195
0.16195
0.161941
0.161935
0.161974
0.161932
0.161938
0.161934
0.161936
0.161961
0.161947
0.161965
0.35065
0.286753
0.161952
0.346541
0.186928
0.161931
0.173883
0.18368
0.16428
0.16428
0.206956
0.199985
0.161947
0.171094
0.16212
0.161946
0.161945
0.161985
0.185924
0.161936
0.164367
0.33752
0.193691
0.191448
0.161962
0.221477
0.166497
0.161941
0.305491
0.163017
0.162127
0.164569
0.185375
0.178853
0.162266
0.345321
0.178406
0.161944
0.362047
0.338241
0.162386
0.161976
0.17427
0.170781
0.215015
0.162058
0.173821
0.187999
0.171601
0.227566
0.161954
0.169513
0.234809
0.167988
0.161959
0.230604
0.162037
0.188074
0.16196
0.176374
0.245748
0.161965
0.189614
0.241195
0.174454
0.161974
0.172492
0.214619
0.343773
0.161971
0.161932
0.161954
0.161965
0.16206
0.161928
0.161954
0.161929
0.161928
0.162028
0.161959
0.16206
0.161928
0.161928
0.162028
0.161934
0.161986
0.16193
0.161938
0.161943
0.161931
0.161954
0.16194
0.161936
0.16206
0.161928
0.161936
0.161954
0.161946
0.161929
0.161929
0.162015
0.161929
0.16194
0.161959
0.161994
0.162042
0.161946
0.161929
0.161932
0.161928
0.161934
0.161943
0.161938
0.16194
0.162004
0.16206
0.162004
0.161931
0.161943
0.161965
0.161932
0.161965
0.161928
0.161929
0.161928
0.161928
0.161978
0.162004
0.161994
0.161929
0.16206
0.162028
0.161954
0.161928
0.161965
0.162042
0.161928
0.161994
0.162004
0.162015
0.161943
0.161928
0.161931
0.161928
0.16193
0.161978
0.161928
0.161978
0.16193
0.162015
0.161928
0.161928
0.161928
0.16206
0.161971
0.161931
0.161928
0.162004
0.161986
0.161946
0.16194
0.161928
0.161971
0.161978
0.161929
0.161929
0.161971
0.161928
0.161978
0.16206
0.161943
0.161929
0.161946
0.162028
0.161929
0.16206
0.37914
0.16194
0.161971
0.356433
0.340593
0.196017
0.161929
0.36386
0.161954
0.203709
0.308408
0.18038
0.162042
0.275314
0.162023
0.162052
0.234809
0.246068
0.18669
0.183277
0.221624
0.161978
0.256671
0.16218
0.196857
0.259704
0.316702
0.235542
0.227785
0.161957
0.178182
0.161954
0.165693
0.161954
0.173875
0.190019
0.171098
0.169798
0.241938
0.161938
0.328087
0.165741
0.176672
0.162073
0.161934
0.167953
0.212886
0.172838
0.162006
0.161931
0.182788
0.318002
0.161975
0.328961
0.311404
0.363223
0.169123
0.300287
0.166718
0.225552
0.194409
0.204955
0.177235
0.1915
0.162193
0.183354
0.326437
0.202437
0.183495
0.174717
0.189658
0.162208
0.196124
0.162652
0.164368
0.162154
0.196124
0.162083
0.162113
0.162652
0.177426
0.185422
0.165035
0.200438
0.163418
0.162154
0.20258
0.193963
0.165035
0.185422
0.179342
0.162652
0.196124
0.179342
0.162208
0.18335
0.165035
0.187528
0.196124
0.162499
0.175585
0.175585
0.162652
0.162652
0.163418
0.177426
0.191805
0.175585
0.191805
0.200438
0.189658
0.175585
0.164368
0.200438
0.162154
0.177426
0.179342
0.167946
0.162083
0.163835
0.162846
0.162846
0.16682
0.198284
0.162154
0.191805
0.162113
0.177426
0.162083
0.162208
0.179342
0.200438
0.179342
0.162652
0.162499
0.169221
0.191805
0.162154
0.179342
0.187528
0.16585
0.162113
0.16682
0.179342
0.16585
0.179342
0.167946
0.196124
0.20258
0.164368
0.169221
0.177426
0.163418
0.170635
0.163095
0.193963
0.18132
0.167946
0.163418
0.162281
0.193963
0.200438
0.20258
0.164368
0.193963
0.163095
0.16585
0.170635
0.169221
0.164368
0.162846
0.196124
0.162378
0.162378
0.185422
0.162378
0.162208
0.189658
0.165035
0.198284
0.173831
0.172177
0.16682
0.185422
0.198284
0.198284
0.162113
0.16682
0.172177
0.164368
0.177426
0.175585
0.177426
0.198284
0.170635
0.198284
0.175585
0.162208
0.162281
0.191805
0.179342
0.189658
0.163095
0.162154
0.162113
0.162083
0.172177
0.163095
0.198284
0.200438
0.162652
0.162113
0.162208
0.173831
0.189658
0.179342
0.169221
0.163418
0.200438
0.196124
0.175585
0.164368
0.16585
0.163418
0.16585
0.162846
0.193963
0.163835
0.172177
0.200438
0.189658
0.20258
0.179342
0.175585
0.200438
0.191805
0.170635
0.179342
0.162499
0.177426
0.18335
0.20258
0.16585
0.193963
0.162154
0.162281
0.173831
0.16682
0.18335
0.16585
0.185422
0.173831
0.162281
0.163835
0.163835
0.16682
0.167946
0.162846
0.162154
0.163835
0.163835
0.187528
0.196124
0.162378
0.16585
0.187528
0.162846
0.349511
0.177426
0.20258
0.378752
0.328997
0.351609
0.18335
0.37823
0.274704
0.232143
0.226844
0.226844
0.295595
0.338512
0.380285
0.206064
0.237424
0.213937
0.247285
0.245722
0.200685
0.24416
0.22425
0.198813
0.224645
0.199168
0.346586
0.301795
0.221897
0.238288
0.213056
0.297201
0.200988
0.227438
0.210199
0.194454
0.189761
0.197902
0.193452
0.208728
0.269457
0.273212
0.283215
0.204354
0.18335
0.183736
0.204357
0.190903
0.186007
0.342081
0.269967
0.208176
0.292986
0.206891
0.197166
0.162652
0.309181
0.223347
0.20226
0.205615
0.254803
0.211337
0.269657
0.18037
0.333971
0.176282
0.174845
0.23464
0.20607
0.189815
0.280541
0.188471
0.204828
0.355551
0.196737
0.187162
0.348479
0.169779
0.193819
0.258118
0.251859
0.197658
0.178859
0.179078
0.17634
0.352383
0.305865
0.198782
0.223857
0.371227
0.204249
0.319046
0.301224
0.164368
0.288055
0.267101
0.163835
0.164219
0.206563
0.293978
0.271178
0.255522
0.293978
0.169842
0.298187
0.220915
0.33913
0.172985
0.20134
0.162911
0.162846
0.20134
0.294418
0.185936
0.317749
0.318193
0.209254
0.370885
0.342563
0.200102
0.169739
0.210307
0.185634
0.16247
0.25959
0.203105
0.166904
0.331887
0.184747
0.195525
0.209742
0.200628
0.26355
0.162083
0.25891
0.244445
0.236745
0.206817
0.204708
0.218961
0.224636
0.245895
0.215023
0.235112
0.239917
0.218961
0.247317
0.226463
0.218961
0.208906
0.255274
0.254013
0.241456
0.251414
0.25651
0.218961
0.210971
0.226463
0.224636
0.204708
0.213011
0.244445
0.217007
0.222776
0.233447
0.251414
0.244445
0.23002
0.251414
0.242966
0.222776
0.257722
0.215023
0.23175
0.215023
0.261218
0.257722
0.251414
0.224636
0.215023
0.238347
0.222776
0.228258
0.215023
0.208906
0.24871
0.228258
0.235112
0.208906
0.206817
0.213011
0.224636
0.236745
0.206817
0.260076
0.236745
0.233447
0.255274
0.257722
0.25891
0.244445
0.255274
0.233447
0.250076
0.24871
0.23175
0.250076
0.245895
0.222776
0.245895
0.208906
0.25891
0.255274
0.244445
0.251414
0.222776
0.251414
0.210971
0.245895
0.244445
0.206817
0.251414
0.250076
0.210971
0.224636
0.247317
0.233447
0.206817
0.218961
0.239917
0.25891
0.250076
0.260076
0.222776
0.239917
0.210971
0.254013
0.224636
0.250076
0.242966
0.228258
0.257722
0.254013
0.222776
0.25651
0.233447
0.233447
0.241456
0.210971
0.250076
0.222776
0.242966
0.25651
0.210971
0.252726
0.238347
0.244445
0.247317
0.226463
0.250076
0.245895
0.226463
0.222776
0.254013
0.236745
0.238347
0.210971
0.241456
0.242966
0.25891
0.244445
0.25891
0.217007
0.217007
0.254013
0.208906
0.254013
0.247317
0.208906
0.245895
0.238347
0.242966
0.247317
0.255274
0.206817
0.238347
0.213011
0.222776
0.241456
0.244445
0.235112
0.233447
0.224636
0.213011
0.250076
0.238347
0.210971
0.213011
0.236745
0.257722
0.244445
0.247317
0.233447
0.228258
0.257722
0.255274
0.241456
0.206817
0.210971
0.222776
0.250076
0.25891
0.218961
0.254013
0.210971
0.23002
0.208906
0.245895
0.235112
0.25651
0.226463
0.206817
0.245895
0.218961
0.252726
0.224636
0.204708
0.238347
0.210971
0.245895
0.241456
0.25891
0.242966
0.233447
0.206817
0.247317
0.261218
0.228258
0.23175
0.206817
0.23002
0.25891
0.208906
0.222776
0.23175
0.23002
0.218961
0.235112
0.245895
0.24871
0.23002
0.250076
0.208906
0.255274
0.213011
0.208906
0.236745
0.218961
0.228258
0.236745
0.233447
0.244445
0.215023
0.260076
0.210971
0.251414
0.236745
0.247317
0.23175
0.24871
0.245895
0.204708
0.235112
0.218961
0.25651
0.218961
0.217007
0.381118
0.242966
0.233447
0.373732
0.241456
0.380099
0.378581
0.370976
0.376137
0.352553
0.380752
0.380778
0.335796
0.257722
0.238347
0.281894
0.267704
0.33717
0.36977
0.266369
0.261916
0.251414
0.339963
0.255274
0.293761
0.270689
0.293628
0.261916
0.233447
0.260095
0.29
0.282436
0.271874
0.282909
0.268922
0.257722
0.290782
0.260233
0.257616
0.252726
0.261999
0.291699
0.26399
0.320735
0.261705
0.256113
0.258553
0.310551
0.255128
0.261798
0.256429
0.252111
0.258553
0.250076
0.251439
0.250229
0.26965
0.297655
0.300234
0.253911
0.304763
0.279284
0.28956
0.267217
0.283829
0.255659
0.258649
0.327353
0.243056
0.299575
0.296997
0.299575
0.250267
0.252175
0.262105
0.297773
0.250301
0.380218
0.241933
0.325271
0.274489
0.247733
0.23855
0.343334
0.253677
0.28581
0.236957
0.236745
0.238347
0.258404
0.234827
0.333337
0.23002
0.253534
0.231515
0.304116
0.250452
0.234844
0.361703
0.23108
0.230198
0.226915
0.236729
0.280288
0.238607
0.226597
0.24944
0.266777
0.266149
0.225453
0.241849
0.312767
0.248408
0.232205
0.223813
0.241726
0.290141
0.26617
0.220094
0.230153
0.217007
0.215198
0.244083
0.354986
0.238149
0.261035
0.253681
0.218826
0.285625
0.263058
0.243214
0.270659
0.229666
0.257649
0.217409
0.252076
0.21651
0.218382
0.368431
0.225922
0.290002
0.283111
0.288683
0.273356
0.263438
0.283111
0.280082
0.26961
0.268629
0.283111
0.270572
0.263438
0.280082
0.280082
0.285265
0.280858
0.26961
0.285265
0.280082
0.277671
0.273356
0.272445
0.264516
0.279292
0.287338
0.27425
0.272445
0.264516
0.26763
0.272445
0.285964
0.277671
0.288014
0.262339
0.286655
0.278489
0.262339
0.289346
0.26961
0.276838
0.268629
0.288683
0.262339
0.278489
0.262339
0.263438
0.286655
0.290002
0.265574
0.275991
0.290002
0.263438
0.275128
0.280082
0.286655
0.276838
0.272445
0.283111
0.278489
0.278489
0.288683
0.280858
0.26763
0.288683
0.271517
0.285964
0.263438
0.288683
0.284557
0.265574
0.284557
0.284557
0.275128
0.280082
0.278489
0.289346
0.262339
0.270572
0.263438
0.281621
0.273356
0.26961
0.276838
0.265574
0.285964
0.265574
0.265574
0.279292
0.288683
0.282372
0.264516
0.290654
0.281621
0.285964
0.281621
0.282372
0.262339
0.280082
0.280082
0.287338
0.266612
0.278489
0.288014
0.275991
0.275128
0.285964
0.290002
0.264516
0.281621
0.287338
0.270572
0.275128
0.283839
0.289346
0.26961
0.283839
0.263438
0.271517
0.273356
0.281621
0.284557
0.271517
0.275991
0.27425
0.26961
0.271517
0.27425
0.26961
0.273356
0.290002
0.277671
0.275991
0.289346
0.290654
0.272445
0.280082
0.286655
0.288014
0.288014
0.281621
0.285964
0.266612
0.283839
0.286655
0.289346
0.280082
0.266612
0.290654
0.275128
0.283839
0.265574
0.26763
0.277671
0.263438
0.279292
0.268629
0.263438
0.276838
0.280082
0.27425
0.282372
0.276838
0.287338
0.280858
0.273356
0.264516
0.263438
0.283111
0.288014
0.286655
0.26961
0.275128
0.264516
0.288683
0.278489
0.281621
0.262339
0.287338
0.27425
0.281621
0.275991
0.263438
0.363494
0.380866
0.380209
0.346765
0.265574
0.358124
0.380592
0.36453
0.381031
0.380692
0.354234
0.37876
0.279292
0.291539
0.285964
0.299623
0.305648
0.338246
0.290654
0.29307
0.292953
0.361228
0.370469
0.293419
0.290028
0.339917
0.358775
0.291003
0.294904
0.292412
0.309808
0.335243
0.29895
0.300647
0.297057
0.313045
0.305159
0.292402
0.288067
0.293909
0.311259
0.287947
0.285964
0.286666
0.286607
0.377431
0.297606
0.312862
0.292578
0.328144
0.292183
0.339242
0.343117
0.344602
0.284213
0.305628
0.330902
0.298508
0.282372
0.348279
0.295195
0.301084
0.333259
0.293412
0.280892
0.283303
0.284018
0.282985
0.3238
0.280082
0.293751
0.379869
0.280846
0.294707
0.332707
0.293725
0.288994
0.280082
0.280126
0.281497
0.287286
0.282038
0.287085
0.324824
0.32044
0.288856
0.278018
0.292709
0.284774
0.281809
0.302424
0.28148
0.38081
0.277194
0.281422
0.277542
0.375019
0.279226
0.273356
0.317591
0.274818
0.292915
0.274126
0.313512
0.289538
0.291257
0.271517
0.27438
0.295622
0.278028
0.380757
0.321987
0.282881
0.282881
0.273987
0.270617
0.271748
0.306632
0.297004
0.270308
0.310826
0.268724
0.268724
0.268724
0.268089
0.271481
0.267919
0.267369
0.327579
0.380389
0.277576
0.276247
0.268878
0.268311
0.29656
0.265609
0.264298
0.330535
0.281169
0.280507
0.291301
0.292581
0.300032
0.291301
0.30492
0.307984
0.304309
0.295722
0.301255
0.293846
0.298807
0.297577
0.296961
0.296961
0.30492
0.298193
0.311682
0.294474
0.311682
0.296961
0.307369
0.293215
0.295099
0.309828
0.305532
0.295722
0.308597
0.295099
0.294474
0.306144
0.3123
0.303698
0.305532
0.297577
0.307984
0.30492
0.306144
0.301255
0.309213
0.295722
0.308597
0.306757
0.304309
0.296961
0.29942
0.303698
0.302477
0.311682
0.291943
0.307984
0.308597
0.300644
0.30492
0.298193
0.292581
0.292581
0.301866
0.291943
0.296342
0.293846
0.310446
0.309213
0.300644
0.309828
0.309213
0.295099
0.308597
0.311063
0.307369
0.294474
0.291301
0.308597
0.300032
0.308597
0.303088
0.30492
0.298807
0.293215
0.311682
0.309828
0.308597
0.295722
0.295722
0.301866
0.307369
0.29942
0.311063
0.291943
0.311682
0.30492
0.307984
0.301866
0.306144
0.300644
0.309828
0.29942
0.296961
0.300032
0.298193
0.307369
0.291301
0.303088
0.300644
0.296342
0.292581
0.311063
0.301866
0.308597
0.298807
0.291943
0.302477
0.306757
0.300644
0.309213
0.296961
0.295722
0.295722
0.295099
0.30492
0.301255
0.301255
0.307984
0.296342
0.300032
0.306757
0.301866
0.309828
0.301255
0.303088
0.295722
0.305532
0.307984
0.311682
0.296342
0.295722
0.311088
0.291301
0.3123
0.381066
0.302477
0.293215
0.359818
0.338287
0.312523
0.36056
0.332676
0.347473
0.344336
0.356575
0.306757
0.336249
0.374866
0.320623
0.340017
0.338581
0.330991
0.343995
0.36087
0.324629
0.317748
0.380797
0.31516
0.332791
0.331609
0.33008
0.317261
0.31375
0.309855
0.372043
0.312571
0.300644
0.303088
0.320047
0.379931
0.314605
0.38094
0.315446
0.344985
0.309391
0.309691
0.309908
0.381015
0.314134
0.308643
0.293846
0.366446
0.380597
0.343895
0.332957
0.309636
0.333671
0.308807
0.308245
0.323434
0.309309
0.319931
0.323434
0.312713
0.366446
0.380999
0.307879
0.309317
0.324445
0.309814
0.363299
0.295099
0.293215
0.320908
0.373721
0.326916
0.324845
0.31161
0.35967
0.357872
0.330653
0.36751
0.30838
0.354504
0.304309
0.319325
0.367893
0.310334
0.306495
0.298807
0.292581
0.311565
0.343525
0.33378
0.312358
0.305555
0.315167
0.304607
0.305069
0.321613
0.37857
0.381031
0.304925
0.35389
0.334754
0.380599
0.31725
0.303854
0.300032
0.329092
0.295099
0.303246
0.318273
0.305819
0.311294
0.380853
0.338262
0.305634
0.33949
0.305819
0.380901
0.311735
0.31046
0.304217
0.33069
0.305873
0.303144
0.30455
0.301885
0.308402
0.301975
0.334781
0.308948
0.359051
0.301049
0.381105
0.339429
0.301287
0.301967
0.301021
0.380928
0.355315
0.2991
0.380927
0.300738
0.329804
0.313081
0.306408
0.301413
0.315714
0.30498
0.356617
0.355586
0.324739
0.309461
0.352257
0.297597
0.297272
0.329936
0.357508
0.296596
0.306903
0.297274
0.298992
0.327909
0.306136
0.295253
0.295305
0.315352
0.302076
0.291943
0.300389
0.337139
0.293293
0.310777
0.296978
0.306362
0.370364
0.328455
0.32303
0.314564
0.303281
0.38101
0.301836
0.295617
0.293371
0.295288
0.29135
0.326315
0.291474
0.3179
0.321014
0.327836
0.320398
0.334254
0.322905
0.322267
0.314782
0.321014
0.330388
0.325969
0.312922
0.316026
0.331686
0.327836
0.321652
0.314782
0.324148
0.314782
0.320398
0.330388
0.321014
0.329703
0.32538
0.332263
0.319765
0.332263
0.330388
0.321014
0.334745
0.322905
0.329703
0.322267
0.320398
0.324148
0.324748
0.319149
0.330985
0.332263
0.326603
0.322267
0.334745
0.327836
0.328433
0.330388
0.327836
0.332263
0.332263
0.334745
0.328433
0.324148
0.312922
0.32538
0.332263
0.334745
0.322905
0.318518
0.327836
0.333512
0.332263
0.332263
0.324748
0.332951
0.316653
0.320398
0.3179
0.334254
0.331686
0.334745
0.329105
0.321014
0.334254
0.332951
0.318518
0.318518
0.330985
0.315408
0.32538
0.317271
0.3179
0.320398
0.330985
0.332263
0.328433
0.327189
0.323513
0.3179
0.329105
0.323513
0.323513
0.327189
0.326603
0.331686
0.333512
0.328433
0.332951
0.317271
0.324748
0.325969
0.314163
0.321652
0.330985
0.324748
0.314163
0.332951
0.319765
0.316026
0.329703
0.314782
0.332263
0.322267
0.323513
0.325969
0.327189
0.325969
0.327836
0.334745
0.330985
0.316653
0.317271
0.316026
0.322267
0.328433
0.329703
0.327189
0.334745
0.321652
0.322905
0.328433
0.326603
0.380971
0.381127
0.376812
0.380906
0.336466
0.317271
0.354867
0.355453
0.361185
0.334299
0.380825
0.380991
0.381098
0.314163
0.352769
0.31354
0.335375
0.381134
0.339661
0.338888
0.336009
0.338075
0.338574
0.375882
0.340489
0.35657
0.381143
0.381151
0.35028
0.352101
0.334886
0.381037
0.381078
0.373645
0.347345
0.327189
0.335658
0.351064
0.334622
0.334379
0.344688
0.335683
0.363589
0.348402
0.336639
0.329105
0.380766
0.333155
0.333765
0.380664
0.357993
0.330985
0.380664
0.343579
0.333522
0.323513
0.381083
0.346505
0.37879
0.357573
0.33711
0.376479
0.35798
0.352353
0.335073
0.332951
0.345076
0.339237
0.336999
0.335413
0.341458
0.348323
0.324748
0.35835
0.315408
0.332876
0.334894
0.334894
0.323513
0.342247
0.336947
0.377516
0.339378
0.33338
0.380661
0.335744
0.380959
0.360455
0.355402
0.332562
0.332359
0.333129
0.341458
0.332064
0.33385
0.369597
0.331931
0.373273
0.316026
0.37288
0.332718
0.330985
0.336149
0.332418
0.3528
0.348318
0.331497
0.344072
0.329703
0.348119
0.330985
0.346301
0.335436
0.331052
0.329105
0.34361
0.330457
0.332102
0.357561
0.349825
0.3465
0.370597
0.33039
0.330562
0.381022
0.330648
0.336729
0.36215
0.374967
0.377826
0.340473
0.381103
0.357561
0.352865
0.379353
0.329705
0.347132
0.381111
0.334764
0.330166
0.349534
0.337337
0.339971
0.330588
0.328548
0.340329
0.333506
0.351265
0.334656
0.332573
0.380826
0.342441
0.344035
0.381157
0.358001
0.347779
0.353084
0.328439
0.343632
0.339284
0.328203
0.338545
0.339849
0.334779
0.329008
0.329921
0.337081
0.338728
0.340616
0.381145
0.342123
0.327954
0.346699
0.335676
0.3412
0.327566
0.362101
0.381089
0.381025
0.362497
0.329333
0.32665
0.326841
0.333953
0.340243
0.343823
0.327863
0.380613
0.331611
0.334548
0.326609
0.380805
0.333953
0.325982
0.381024
0.380923
0.321652
0.329207
0.381097
0.326949
0.380855
0.334283
0.38083
0.380754
0.325975
0.334548
0.325746
0.337831
0.368985
0.325789
0.337427
0.32722
0.351328
0.327241
0.324755
0.380631
0.338566
0.360513
0.343707
0.345349
0.32693
0.380589
0.380561
0.328162
0.324315
0.32693
0.341419
0.326035
0.325369
0.381124
0.379583
0.334358
0.355843
0.380679
0.381012
0.326388
0.330436
0.324288
0.380944
0.380679
0.380963
0.381025
0.381124
0.323715
0.380631
0.322912
0.323785
0.372875
0.346202
0.380543
0.322907
0.314163
0.324789
0.32608
0.323906
0.380944
0.333673
0.331036
0.323865
0.329654
0.322267
0.328926
0.3694
0.381026
0.381038
0.321669
0.323597
0.380755
0.368318
0.336677
0.380613
0.324994
0.322241
0.322785
0.340354
0.321655
0.329009
0.340555
0.322082
0.348492
0.325285
0.321014
0.347825
0.327384
0.330447
0.321014
0.327655
0.32243
0.340651
0.335928
0.353866
0.381049
0.320628
0.320504
0.357092
0.322135
0.320593
0.321254
0.360291
0.323227
0.3204
0.326451
0.340729
0.344054
0.314782
0.345704
0.341078
0.381072
0.322419
0.320316
0.376403
0.346408
0.318518
0.380809
0.360131
0.352334
0.327357
0.320609
0.35502
0.337225
0.323061
0.381001
0.380501
0.321478
0.317533
0.374261
0.317455
0.348219
0.318192
0.331552
0.319467
0.320407
0.333027
0.316656
0.317678
0.380709
0.363961
0.319715
0.352448
0.336031
0.381088
0.327947
0.32035
0.319564
0.358865
0.376204
0.330347
0.318581
0.335816
0.315537
0.317066
0.323052
0.314985
0.328219
0.380735
0.314167
0.381005
0.318798
0.314163
0.314299
0.349701
0.33461
0.35707
0.381056
0.331398
0.320012
0.31479
0.330829
0.314201
0.313032
0.313528
0.334403
0.312922
0.326137
0.319962
)


// ************************************************************************* //
