/*--------------------------------*- C++ -*----------------------------------*\
  =========                 |
  \\      /  F ield         | OpenFOAM: The Open Source CFD Toolbox
   \\    /   O peration     | Website:  https://openfoam.org
    \\  /    A nd           | Version:  7
     \\/     M anipulation  |
\*---------------------------------------------------------------------------*/
FoamFile
{
    version     2.0;
    format      ascii;
    class       labelField;
    location    "0.7/lagrangian/reactingCloud1";
    object      cellId;
}
// * * * * * * * * * * * * * * * * * * * * * * * * * * * * * * * * * * * * * //


2546
(
2865
2797
2791
2724
2615
2531
2460
2405
2365
2268
2144
2065
2030
1938
1873
1820
1705
1646
1638
1581
1438
1415
1312
1265
1176
1132
1025
1011
906
840
772
703
626
567
488
425
381
287
233
219
141
68
0
1132
2833
2900
2493
3520
3385
3387
3326
3538
2630
3041
2905
3044
3196
3051
3058
3071
3080
2779
3094
2783
2808
2660
2580
2157
2522
2506
2384
1678
2241
2252
726
2255
2194
2124
2059
2135
1905
1837
1684
1688
1690
1720
1568
1497
1587
1447
1377
1222
1324
1083
1244
934
939
981
827
747
762
693
613
638
556
462
393
346
338
280
197
119
57
38
6403
5866
5014
4163
1856
1564
1214
1369
1220
1298
1238
1104
952
817
761
693
639
541
513
9811
8440
7310
5065
5086
3111
2007
2002
1731
1454
604
619
601
9454
8056
9192
8629
7245
6682
6674
6117
6119
5579
4724
4454
4436
4155
4177
3882
2775
2782
1973
1383
4139
9407
9136
8546
8876
8274
7433
6898
6625
6613
5499
5482
3270
2970
2412
1848
2163
1575
1579
1305
460
2672
9089
3788
9314
9312
9612
9326
8760
9050
8767
8499
8200
7955
7679
5386
6535
5727
5707
4858
4868
4011
4024
3756
3457
2036
1788
1524
1533
1230
388
103
3158
8459
9739
9562
8968
9258
9260
9277
9257
8419
8409
8704
7844
7843
7867
7859
7862
7296
7591
6744
6745
5612
6497
5336
5364
5349
4471
5366
4501
3940
4243
4237
3658
3403
3122
2847
2831
2267
2017
1713
1743
1431
1200
1165
887
316
318
52
8666
8387
7271
8945
8387
5039
6434
854
2249
2249
9224
2807
6434
8666
6434
2528
4760
296
575
9782
6434
3923
2807
6434
7550
5597
8108
8666
296
9224
7829
3086
7829
9782
9503
2528
8945
8666
9503
3086
9131
9726
9455
9745
8585
9743
9500
9761
9466
9494
8927
8343
8646
7487
8061
8364
7485
8080
7516
7228
7522
7531
6946
6947
6705
6388
6695
6675
5213
6394
5823
6409
6138
4678
4382
4995
4760
4131
4459
4448
4160
4447
4451
3895
3590
3334
3073
2450
2747
3061
2761
2142
2786
2515
2507
1682
1098
811
807
3851
6641
4967
4688
5246
1898
5246
8873
5525
7478
8594
4688
3293
3293
7478
4409
5246
5246
1898
224
5525
8315
5804
4688
9152
7478
6083
503
4409
3572
224
9431
6641
9152
1898
5246
2735
1340
9431
5525
4130
6641
5525
9152
8594
7757
4130
6641
6083
9710
6641
503
5525
4688
8873
1619
9431
6083
4688
4688
6641
8315
1340
9152
7478
8594
7757
3014
5246
2456
9608
9361
4409
8220
9673
9710
9401
8837
8850
8850
7989
8271
8584
8565
8298
8305
8026
8022
7719
8035
8012
6277
7157
7158
7465
6309
7172
7190
5730
6897
6622
6336
6044
5768
6062
4878
5489
5796
4009
4047
4944
4671
4095
4097
3520
3830
3816
3530
3538
2958
3562
3260
2956
3261
3007
2399
2434
2134
2163
1860
1558
1888
1575
1001
744
773
745
729
421
489
4337
6569
7127
9638
1547
6569
989
2942
9080
6848
9638
2942
1547
9080
4616
7964
3779
5174
5732
4058
6569
5453
4895
9638
2105
4895
6569
6011
710
710
8801
710
5453
6848
8243
9359
6011
3221
4337
1268
4616
5732
5174
5453
8522
9638
8522
4058
5732
7127
4337
7127
2105
710
2942
1547
7685
8522
8243
989
9638
9080
6569
1826
7127
9359
2384
8243
8522
8801
5732
2663
4058
2105
152
7685
2942
7685
152
8801
2942
1826
2384
9638
7406
4058
2105
8522
7964
6011
5453
2663
7406
7685
710
3221
7406
2384
7685
9638
5732
3500
6011
9080
710
9638
9189
5453
7406
7566
7585
9605
3221
6438
6569
8484
7048
8776
9359
7340
8800
8519
7075
7071
7655
7657
7080
7685
6230
7399
7091
6229
5371
5958
6240
6568
6543
6569
5994
6009
5708
5419
5710
5711
4560
5174
3971
5156
4589
4607
4616
4316
3733
4033
4050
4058
3189
2861
2934
2298
2306
1421
2360
1752
2362
1774
2066
1782
1796
1509
1812
1234
348
108
117
122
7892
917
8729
2033
3428
638
8729
80
359
2033
6218
7334
3707
9287
2870
638
9566
8450
3707
7334
6497
2033
8729
6497
917
7055
3707
7613
8729
1754
5939
5939
2033
2033
2870
6218
8171
5939
8171
9287
7892
5939
3428
9287
638
6218
6497
4544
80
3149
2312
2312
4265
9008
638
8171
359
6218
80
917
6497
9287
6497
2033
1754
4823
8171
638
6497
7613
3986
359
4265
6497
3986
6497
4544
8729
9566
3428
4823
6218
2870
5102
2591
8450
6776
4544
2870
1196
8450
9287
9566
3428
8450
2591
3986
5102
4823
3428
2312
8729
1475
1475
7334
1475
917
7892
3707
9008
5660
5381
4265
7334
9008
9008
359
4265
5381
3428
6218
5939
6218
9008
5102
9008
5939
917
1196
8171
6497
7892
2591
638
359
80
5381
2591
9008
9287
2033
359
917
5660
7892
6497
4823
2870
9287
8729
5939
3428
3986
2870
3986
2312
8450
3149
5381
9287
7892
9566
6497
5939
9287
8171
5102
6497
1754
6218
7055
9566
3986
8450
638
1196
5660
4265
7055
3986
7334
5660
1196
3149
3149
4265
4544
2312
638
3149
3149
7613
8729
1475
3986
7613
2312
9716
6218
9566
8271
8904
8599
7055
6879
9505
9814
9818
9818
8374
7501
6316
9557
8971
9268
8685
8686
9285
8687
8980
9005
8420
9004
6656
6696
8142
7852
8148
7257
8438
7579
7590
7602
7891
7599
7884
7591
6437
6714
6708
7314
7055
7053
7034
7044
7049
4990
5320
6192
5307
5913
5919
2033
4739
5624
5636
5634
5328
5351
5041
5651
4441
5655
5657
5059
5354
5364
4477
5085
5075
3859
4800
4806
3590
4821
4522
3930
3933
4240
4252
3972
3974
3028
3347
3680
3667
2437
3677
2781
2792
3428
2520
2809
3149
3147
2837
2517
2528
2535
2517
2860
1957
2271
1929
2298
2001
2311
2312
2001
1680
1730
1667
1388
1438
1045
1090
1163
1182
1158
1171
1193
858
882
905
821
892
327
320
45
19
80
9215
6146
4751
287
8
1961
2798
6425
1403
4472
5309
1961
6704
3077
1961
566
8378
8099
5588
7541
8657
1961
845
3077
2798
8
1124
6146
1682
2519
4193
7541
6146
3635
7541
5867
2519
8936
1403
3914
1403
9773
8936
7541
2798
1403
5030
2519
3356
1403
566
6983
3356
4472
566
287
1124
2798
4751
287
9494
4751
4193
8378
8936
9215
6146
8378
4193
7262
6983
3914
7262
6425
2519
6425
566
9215
8378
6146
7541
2519
7541
845
6425
6146
287
7541
7262
845
2798
6704
4193
287
1961
5309
9215
7262
9494
2519
5309
845
8099
2798
7262
5867
3356
8936
8099
2519
8657
4193
4193
5588
845
7262
2519
5867
8657
845
7820
5030
6146
6704
3077
7262
6425
3077
2519
8099
4751
5030
845
5588
5867
9215
6146
9215
1682
1682
8099
566
8099
6704
566
6425
5030
5867
6704
8378
287
5030
1124
2519
5588
6146
4472
4193
2798
1124
7262
5030
845
1124
4751
8936
6146
6704
4193
3356
8936
8378
5588
287
845
2519
7262
9215
1961
8099
845
3635
566
6425
4472
8657
3077
287
6425
1961
7820
2798
8
5030
845
6425
5588
9215
5867
4193
287
6704
9773
3356
3914
287
3635
9215
566
2519
3914
3635
1961
4472
6425
6983
3635
7262
566
8378
1124
566
4751
1961
3356
4751
4193
6146
1403
9494
845
7541
4751
6704
3914
6983
6425
8
4472
1961
8657
1961
1682
8682
5867
4193
9590
5588
9282
9024
9037
9586
8788
7864
7584
9093
8936
5030
9723
9466
7976
7367
9750
9765
7541
7972
8378
8030
9741
8589
9765
4193
9493
8873
8603
9178
8043
8622
8936
8313
8921
8364
7820
7511
7753
8069
6882
8073
8086
7798
7452
7524
7792
8085
7534
7798
7262
7540
7259
6940
6629
6347
7245
6063
6649
6079
6383
6085
6960
6955
5201
5865
5231
5792
5231
5845
5842
5829
5512
5564
3420
5583
4367
5256
5287
5027
4066
4438
4686
4748
4751
5030
4433
4185
2964
3635
3598
3627
2994
3321
3620
2366
3345
3347
3073
3336
3015
3053
3075
2762
2747
2468
2509
2489
2428
2483
2780
2513
2209
2169
1909
1955
1940
1682
1401
1647
985
1372
1354
1080
1392
1056
1073
1088
788
819
518
831
522
551
549
126
542
9422
6632
8864
3284
494
6632
5516
2168
1889
6632
2447
494
5516
5516
7469
5795
2168
7469
5516
4679
3284
3005
773
5237
8306
3563
3005
773
1610
3005
7748
4679
8585
215
8027
4958
215
9143
2168
4400
1889
8864
215
4958
215
494
8027
9422
1052
4121
9422
494
3842
5516
8027
4400
3005
6632
4958
4958
8864
5795
1610
8864
2726
7748
494
8864
7190
1052
7190
7190
3842
5516
4958
9143
215
2447
494
6074
3284
2168
4400
1052
7748
1052
1052
5237
8864
6353
773
9701
6074
7748
6074
6353
215
5516
5516
8306
1331
4958
8585
4121
3842
7748
9422
773
6074
8306
2447
3842
6911
9143
2168
6911
494
2726
3284
6074
7190
2726
4121
3563
2168
2726
3563
2168
3284
9422
4679
4121
9143
9701
3005
5516
8027
8585
8585
6074
7748
1331
6911
8027
9143
5516
1331
9701
3842
6911
1052
1610
4679
494
5237
1889
494
4400
5516
3563
6353
4400
8306
5795
3284
773
494
6632
8585
8027
2168
3842
773
8864
4958
6074
215
8306
3563
6074
4121
494
9523
8902
8372
9831
1052
9810
8355
8964
8336
8072
9259
8106
5237
9687
7748
9093
9358
8733
9701
9114
9678
7854
7283
9394
9420
7893
8694
9124
8265
9681
8230
7623
7974
8250
8259
7944
7960
7992
8294
8268
7668
8011
7748
7170
7737
6436
7417
7106
7430
6799
6870
6221
5935
6211
6903
6281
5957
6295
6353
5089
5742
6010
5116
6026
5793
6057
6336
5776
5132
5516
5465
4201
5505
5463
4838
5185
4915
5516
4942
4936
4919
4934
4639
4014
4021
4635
4672
4347
4364
4372
4050
4373
3325
4393
4092
4106
3374
3536
3284
3188
3270
3227
3274
2915
2953
2950
2726
2989
2663
2696
1685
2065
2405
2405
2426
2445
2435
1808
1822
2159
1802
1886
1886
1886
1603
1307
1319
1322
662
831
733
455
751
471
425
479
201
100
167
168
143
701
4049
143
6281
7676
6002
2096
4607
1259
3491
2933
2654
2654
6281
3212
9350
1538
9350
2654
7397
980
1817
8513
6560
2096
7955
1817
1538
6839
9629
5723
6560
2933
7676
6281
6839
4607
8234
2096
7955
7118
6002
2654
3770
5723
5165
9350
422
7676
7955
4328
6281
3212
701
701
4886
422
2375
1259
8792
8234
4328
8513
8234
1817
7955
9071
7397
1538
143
7955
4049
7955
5444
6281
3491
980
9350
8513
7955
2096
2096
4886
7397
3770
9071
422
9350
6281
7676
4886
6839
4328
8513
3770
2654
4049
3212
7397
143
5444
4328
2375
701
9071
4886
7955
3491
422
5165
7118
4328
8234
2654
2096
2096
1817
6281
4607
4607
7676
2375
4049
7118
4886
8513
4607
5444
2096
6560
7676
9350
2375
2096
9068
143
9629
9375
5165
980
9169
9781
9619
8889
9799
9195
8925
8896
7118
8949
9146
9563
9217
8942
9245
8926
8331
9547
9295
6879
9309
8680
8404
8129
9016
8753
8510
7478
8761
4328
5444
8162
7186
8748
6594
8462
7528
7937
8220
8217
6311
8187
7951
1259
6650
7460
7531
7282
7650
7280
7946
7666
7310
8228
7882
7310
7631
6650
6312
7383
7369
7027
7083
6376
1817
980
7038
6082
6740
6746
6792
6103
6106
7009
6091
6527
6112
6002
6763
5533
7080
6257
3491
701
6511
5579
5883
5946
6266
5936
5992
6274
5916
5238
4636
6280
4998
5322
4655
5369
5428
4049
5057
1817
5437
5086
5131
5108
4087
4755
5132
4752
5131
3806
4826
5111
4858
4215
4849
5440
4856
4593
5119
4592
3926
3994
3874
4317
3231
3636
4314
3742
3748
2410
3044
3482
2689
3467
3100
3141
3161
3181
3134
3166
2763
2486
2553
2591
2492
2931
2645
2262
2204
2367
2038
1793
2066
1708
1760
1811
1810
1177
1492
422
1217
851
976
908
949
639
791
590
322
340
367
453
371
392
121
112
140
36
137
2303
3698
6767
3419
9557
4535
4256
908
3698
7883
5930
71
1466
8441
6767
3977
908
5093
908
3419
7883
3698
7604
5651
8720
3140
8720
7883
3698
9836
4535
7604
4256
3419
5093
5372
2861
8162
8720
6209
4256
9836
6767
7046
7883
6767
8720
8720
9836
7046
5093
71
5651
8720
9836
4535
2582
6767
9278
8720
8720
5372
8999
1745
3419
2303
9557
8441
9836
7325
3698
9557
8999
2582
2582
8162
1187
5651
2024
2303
3419
8162
8720
7046
6488
4814
2303
7325
4814
4814
6488
6209
8441
9278
7046
8999
2024
5372
5930
629
3977
8162
5372
629
8999
3140
1466
7604
908
8720
4256
4814
5930
6488
5930
6767
9836
8162
1745
2024
1466
4256
7046
7604
6488
9836
3977
4535
7046
6209
9312
9579
9337
9595
8934
2024
9663
9661
9645
9550
8759
9311
8741
629
9671
350
9808
8456
9755
9762
9796
9770
9765
9060
9748
9099
8455
8454
9403
8835
9823
8469
7346
8785
9420
6488
9227
9119
9536
9246
9155
8942
8803
9133
9216
7325
8482
8984
9261
8769
9095
8162
8769
9162
9275
4814
7904
9144
8776
8538
8928
8223
8816
8834
8949
8999
8872
8628
8929
8945
8613
8573
5372
8257
1187
8694
8665
8665
4814
8608
8363
7664
8627
8977
8208
8373
7357
8252
8265
8702
8710
8114
8613
8421
8392
7677
8425
7671
1466
7393
8119
8162
8086
8123
7994
7733
8139
7755
7604
7734
8162
7463
7526
8154
7325
8038
7875
8420
7701
7726
7462
7118
7882
7870
7074
7867
7517
7133
7111
6549
7494
7063
7422
7156
6546
7603
7179
6225
7531
7293
7168
7513
7216
7287
7036
7214
6975
6882
6685
7266
5968
6922
6914
5661
7142
6896
6597
7044
6916
6658
6749
6662
6655
6966
7023
6723
6389
6661
6651
5384
6363
6757
6062
6397
6648
6470
6018
5391
5121
6296
6444
6203
6195
6126
6092
6075
6176
4869
5859
5841
6207
5132
6126
5927
5400
5127
3977
5877
5111
6192
4851
6124
4852
5134
5928
5841
5634
5543
5170
5633
5545
5612
5765
5327
5370
4581
5259
4906
5236
5229
5330
4583
4585
5319
5082
5046
5246
5340
5350
3713
4038
4999
4637
4579
4285
5051
4739
4790
4289
4021
4009
4005
3713
4802
4302
4533
4800
4328
4387
4028
4534
629
4783
4486
4508
3731
4160
4173
4798
4462
4256
3903
3776
3726
3725
3974
3940
3460
3499
3586
3476
3928
3957
3949
3851
3976
3340
4130
3960
3820
3643
3698
3543
3630
3333
3698
3347
3667
3570
3309
3526
2887
3407
3411
3240
3385
3408
3109
2955
3092
3120
3072
3290
2998
908
2992
3009
2605
2815
2834
2372
2431
2582
2063
2119
2414
2224
2546
2129
2464
2246
1775
1797
2256
2012
1818
2014
1867
2001
2206
1988
1698
1920
1744
1721
1230
1555
1420
1577
1629
1207
1660
1416
1421
1285
979
1370
1145
1350
1179
1157
839
898
1098
950
628
659
579
629
621
468
515
452
376
526
291
325
528
46
64
54
236
71
265
10
)


// ************************************************************************* //
