/*--------------------------------*- C++ -*----------------------------------*\
  =========                 |
  \\      /  F ield         | OpenFOAM: The Open Source CFD Toolbox
   \\    /   O peration     | Website:  https://openfoam.org
    \\  /    A nd           | Version:  7
     \\/     M anipulation  |
\*---------------------------------------------------------------------------*/
FoamFile
{
    version     2.0;
    format      ascii;
    class       vectorField;
    location    "0.7/lagrangian/reactingCloud1";
    object      coordinates;
}
// * * * * * * * * * * * * * * * * * * * * * * * * * * * * * * * * * * * * * //


2546
(
(-1.04923 0.365617 4.08983e-10)
(-1.06225 0.362238 1.47816e-10)
(-1.06337 0.394404 5.60599e-10)
(-1.07767 0.386603 -3.94742e-13)
(-1.10188 0.219478 -6.39361e-11)
(-1.11145 0.315252 -4.09493e-10)
(-1.12276 0.330337 -5.08255e-10)
(-1.14402 0.248573 -7.21519e-10)
(-1.16497 0.0825953 -1.25355e-10)
(-1.17423 0.252354 -2.81573e-10)
(-1.19409 0.184294 -3.23343e-11)
(-1.20738 0.244273 -3.57212e-11)
(-1.2274 0.0529142 -4.59675e-14)
(-1.2389 0.189793 -3.20145e-10)
(-1.25584 0.175354 -1.52373e-10)
(-1.27243 0.0877128 -7.8319e-11)
(-1.28154 0.353657 -2.10707e-09)
(-1.2998 0.301913 -6.36883e-10)
(-1.30108 0.350737 3.29325e-10)
(-1.31591 0.285898 2.31314e-11)
(-1.33256 0.327677 2.40872e-10)
(-1.35264 0.0729029 4.85139e-13)
(-1.36752 0.270297 1.95735e-11)
(-1.38441 0.150662 3.28671e-12)
(-1.39898 0.271191 -1.20202e-10)
(-1.41497 0.132138 -1.089e-10)
(-1.43068 0.356948 3.6941e-12)
(-1.44713 0.0458786 -6.07516e-11)
(-1.46481 0.260185 2.05479e-11)
(-1.48108 0.24708 3.16784e-11)
(-1.49501 0.24659 7.29904e-12)
(-1.51273 0.255816 -8.66819e-12)
(-1.52918 0.304553 1.49225e-10)
(-1.54553 0.255368 4.81982e-12)
(-1.56176 0.316423 1.12338e-10)
(-1.5774 0.28862 2.19525e-11)
(-1.5913 0.149167 -6.99082e-12)
(-1.60943 0.297137 4.8859e-12)
(-1.62324 0.221215 -1.05604e-11)
(-1.62511 0.300451 4.5688e-12)
(-1.64251 0.355102 1.14139e-11)
(-1.65955 0.38529 -8.33555e-11)
(-1.67437 0.382209 -3.32067e-11)
(-0.823421 0.479141 -6.25154e-06)
(-0.462169 0.427342 -7.00444e-09)
(-0.446751 0.431416 9.81083e-07)
(-0.535802 0.440115 -6.53739e-06)
(-0.322489 0.34799 1.60251e-06)
(-0.352148 0.348314 1.68533e-09)
(-0.343175 0.330678 4.96362e-10)
(-0.369437 0.297869 6.98141e-06)
(-0.320954 0.237299 1.05182e-09)
(-0.51657 0.430328 -1.12946e-06)
(-0.419836 0.388345 2.79713e-07)
(-0.45052 0.401353 9.5891e-07)
(-0.4202 0.369154 2.26681e-07)
(-0.397176 0.266314 -2.78014e-12)
(-0.425247 0.325062 1.75536e-09)
(-0.424262 0.283164 -4.70013e-12)
(-0.420379 0.201983 2.29157e-10)
(-0.424962 0.142396 3.36495e-11)
(-0.485684 0.341736 -7.22175e-12)
(-0.429214 0.054705 3.94018e-12)
(-0.489756 0.317299 -4.27966e-12)
(-0.488637 0.148824 -2.80098e-12)
(-0.5112 0.229756 -2.24619e-11)
(-0.5358 0.31221 -4.59767e-11)
(-0.618441 0.426682 8.89012e-07)
(-0.548375 0.248645 2.88633e-10)
(-0.539436 0.35449 -1.83516e-06)
(-0.572824 0.266186 6.05061e-10)
(-0.726657 0.467145 -3.4118e-06)
(-0.60242 0.317346 4.28711e-10)
(-0.605481 0.23828 -8.65702e-12)
(-0.90227 0.447334 7.36966e-07)
(-0.615321 0.216797 -3.02506e-11)
(-0.623356 0.173591 7.9852e-10)
(-0.635017 0.186223 -1.33158e-11)
(-0.657849 0.167881 -1.12788e-13)
(-0.646036 0.10769 -5.37661e-12)
(-0.677513 0.297419 1.7503e-10)
(-0.688457 0.296186 -1.19747e-10)
(-0.718946 0.42067 -5.46092e-07)
(-0.720383 0.396641 8.44135e-10)
(-0.727666 0.376882 7.65894e-11)
(-0.728181 0.163246 -5.7457e-12)
(-0.744866 0.278462 -5.17775e-11)
(-0.766799 0.301176 -1.35906e-11)
(-0.752127 0.139783 2.28259e-10)
(-0.776701 0.173504 2.32629e-10)
(-0.787576 0.186802 -5.01811e-12)
(-0.814155 0.321667 1.10578e-11)
(-0.799893 0.0746803 -9.51521e-13)
(-0.838309 0.345019 5.93871e-10)
(-0.82339 0.162772 -1.89692e-11)
(-0.867221 0.428552 -3.56531e-07)
(-0.866309 0.396472 1.78248e-10)
(-0.874439 0.0969154 -4.21589e-12)
(-0.887098 0.225215 1.57548e-10)
(-0.897237 0.306039 3.17888e-11)
(-0.898199 0.202232 -5.37612e-12)
(-0.911534 0.203581 -1.68663e-11)
(-0.924367 0.287978 4.2994e-10)
(-0.927009 0.115333 2.1299e-11)
(-0.938646 0.206233 -9.26556e-12)
(-0.946562 0.378702 9.74417e-11)
(-0.960873 0.379863 1.04052e-09)
(-0.974687 0.24038 -5.26568e-11)
(-0.975603 0.291236 2.4257e-10)
(-0.990153 0.224494 -7.67569e-12)
(-0.998652 0.319388 -8.99185e-11)
(-1.0092 0.377833 9.63812e-10)
(-1.02449 0.339533 1.75476e-10)
(-1.04603 0.184716 -5.93467e-11)
(0.0779305 0.224571 1.08822e-06)
(0.0598973 0.132412 -7.81324e-11)
(0.0320983 0.199952 -6.74395e-10)
(0.00138497 0.263912 2.76703e-07)
(-0.000403718 0.146346 8.04862e-11)
(-0.0441454 0.247727 1.4932e-06)
(-0.0882501 0.305261 2.0691e-06)
(-0.0680824 0.209353 1.97809e-10)
(-0.0910486 0.275494 1.56453e-06)
(-0.0833254 0.227675 1.55069e-11)
(-0.0937004 0.187506 4.34224e-11)
(-0.113813 0.18333 1.71387e-11)
(-0.130916 0.263194 2.05158e-09)
(-0.155267 0.267775 -9.69331e-06)
(-0.163207 0.205568 4.94523e-11)
(-0.18249 0.209899 2.72995e-11)
(-0.188952 0.136712 1.71614e-10)
(-0.20161 0.296235 2.06108e-09)
(-0.214296 0.0849054 1.85887e-14)
(0.597282 0.234377 3.02761e-06)
(0.526568 0.12907 -1.18442e-10)
(0.47481 0.192443 -3.38522e-07)
(0.371866 0.2498 1.38245e-06)
(0.373866 0.155789 1.31549e-14)
(0.2808 0.253138 -3.90089e-07)
(0.241474 0.198777 -2.67941e-06)
(0.239055 0.220652 7.22313e-07)
(0.230797 0.184699 -2.73593e-07)
(0.211933 0.174985 -2.34681e-06)
(0.185442 0.234678 2.1789e-06)
(0.182709 0.170086 -2.61975e-10)
(0.180792 0.248599 -5.33969e-06)
(1.21039 0.264043 -1.98264e-06)
(1.1003 0.277402 8.95101e-06)
(1.1838 0.187982 1.44196e-06)
(1.15431 0.20761 3.9838e-07)
(1.04667 0.160257 2.36383e-06)
(0.999871 0.181373 3.78824e-06)
(0.998859 0.21865 8.35721e-06)
(0.979408 0.212238 -1.03683e-06)
(0.961115 0.201739 -1.04897e-05)
(0.927903 0.121025 1.35838e-11)
(0.881341 0.205575 2.02527e-06)
(0.86682 0.164609 3.65847e-06)
(0.867764 0.245545 7.46413e-07)
(0.836341 0.252517 3.3503e-07)
(0.840852 0.153144 -1.09829e-11)
(0.819834 0.224188 -4.55914e-07)
(0.765722 0.187025 3.03558e-06)
(0.757588 0.155171 2.80029e-06)
(0.718445 0.0300549 -1.03344e-12)
(0.678063 0.172298 -7.48342e-07)
(1.55959 -2.22514e-33 1.94185e-35)
(2.07595 0.149612 2.4384e-13)
(2.07035 0.114984 3.82761e-13)
(1.99167 0.259299 6.90861e-07)
(2.0368 0.0277097 4.41127e-14)
(1.97098 0.223944 8.41374e-07)
(1.89548 0.244333 1.56818e-08)
(1.82125 0.140662 -1.10692e-13)
(1.80679 0.112591 5.45194e-12)
(1.80423 0.166239 -3.48689e-06)
(1.70197 0.159048 -4.30155e-13)
(1.68817 0.235178 1.97991e-06)
(1.49563 0.147156 3.42835e-06)
(1.48355 0.240921 2.11004e-06)
(1.42641 0.240227 -9.54495e-07)
(1.38611 0.265926 -4.48765e-06)
(1.40096 0.10602 3.90902e-13)
(1.36505 0.241453 5.33549e-07)
(1.3577 0.219771 6.65088e-07)
(1.32912 0.200877 4.24094e-06)
(1.2775 0.233903 -1.16114e-07)
(2.42927 -2.15143e-33 1.87752e-35)
(3.29717 -2.07787e-33 1.81333e-35)
(2.5675 -2.13972e-33 1.8673e-35)
(3.31971 0.245127 1.88823e-06)
(3.3204 0.252212 2.17606e-06)
(3.35734 0.156844 2.10952e-07)
(3.3302 0.188106 1.19298e-07)
(3.25823 0.228349 -1.01766e-06)
(3.26621 0.175581 2.20791e-07)
(3.238 0.193822 1.96634e-06)
(3.18744 0.143719 -4.41066e-14)
(3.14981 0.233793 1.96538e-06)
(3.12 0.0849032 -1.807e-12)
(3.08324 0.0674917 -1.5714e-12)
(2.78067 0.344455 3.21995e-06)
(2.92963 0.196861 -5.55847e-06)
(2.82532 0.0648403 5.12194e-14)
(2.80352 0.152585 1.2815e-06)
(2.70014 0.208824 -2.08846e-07)
(2.69733 0.161754 2.72281e-06)
(2.61257 0.255115 -6.34344e-07)
(2.61387 0.193068 -2.41573e-06)
(2.57253 0.143851 -4.11223e-12)
(2.52025 0.233923 -1.67495e-06)
(2.3703 0.35209 8.22706e-06)
(2.32819 0.212252 1.82327e-07)
(2.30534 0.14342 -1.1742e-06)
(2.29847 0.103503 -5.52167e-12)
(2.26524 0.211638 7.44024e-08)
(2.17503 0.235515 -1.27136e-06)
(2.13327 0.262864 -1.36893e-06)
(3.90215 -2.0266e-33 1.76859e-35)
(4.92321 -1.94006e-33 1.69307e-35)
(5.22168 0.517188 -6.55772e-06)
(5.18014 0.0582915 4.78242e-16)
(5.05813 0.223665 2.68389e-07)
(5.09345 0.170776 1.03898e-06)
(5.11924 0.163043 -5.11377e-07)
(5.11898 0.0855423 4.04266e-14)
(5.0836 0.177626 -8.3643e-07)
(4.92967 0.181371 1.13263e-06)
(4.94225 0.225331 2.15876e-06)
(4.9815 0.154685 -4.70241e-07)
(4.81278 0.257958 -3.00378e-06)
(4.79415 0.261957 3.15451e-06)
(4.80693 0.15501 -2.84616e-07)
(4.79779 0.189942 -6.3358e-07)
(4.78892 0.177459 1.50655e-07)
(4.68377 0.211295 -2.21573e-06)
(4.73838 0.139289 4.71463e-08)
(4.57974 0.187997 3.06066e-06)
(4.58479 0.182993 -4.13315e-06)
(4.37321 0.255495 -6.99288e-06)
(4.52983 0.0420357 -1.25897e-15)
(4.32009 0.244608 2.119e-08)
(4.33595 0.116454 1.7877e-13)
(4.33033 0.186087 -7.39429e-08)
(4.15697 0.368828 -9.59321e-07)
(4.29261 0.111411 7.62843e-14)
(4.13789 0.235667 -7.12894e-08)
(4.08125 0.249358 -5.63059e-08)
(4.12987 0.141699 4.30248e-06)
(4.12994 0.167511 -3.87705e-06)
(4.00655 0.260046 -4.1902e-09)
(3.93745 0.15543 2.5257e-07)
(3.90898 0.16174 7.44477e-07)
(3.88272 0.145588 -1.08824e-06)
(3.85226 0.215137 -2.77673e-07)
(3.77183 0.241839 5.44535e-07)
(3.73081 0.114958 3.01892e-13)
(3.69215 0.226144 -5.98107e-07)
(3.70184 0.0908343 -1.39471e-13)
(3.65406 0.241672 -4.66565e-07)
(3.60014 0.0243937 -9.25347e-14)
(3.56894 0.18236 -1.51185e-06)
(3.54422 0.176506 7.66961e-09)
(3.4619 0.23662 -2.98979e-06)
(3.46066 0.225326 3.77005e-06)
(3.41895 0.167967 -5.74362e-06)
(7.38513 -1.73141e-33 1.51098e-35)
(7.31017 -1.73776e-33 1.51652e-35)
(7.00292 -1.7638e-33 1.53925e-35)
(7.49651 -1.72197e-33 1.50274e-35)
(7.33638 -1.73554e-33 1.51458e-35)
(6.40983 -1.81407e-33 1.58311e-35)
(6.80861 -1.78027e-33 1.55362e-35)
(5.37338 -1.90191e-33 1.65977e-35)
(5.69959 -1.87426e-33 1.63564e-35)
(5.75015 -1.86998e-33 1.6319e-35)
(7.62418 -1.71115e-33 1.4933e-35)
(5.86711 -1.86006e-33 1.62325e-35)
(6.79074 -1.78179e-33 1.55494e-35)
(7.39773 -1.73034e-33 1.51005e-35)
(6.79533 -1.7814e-33 1.5546e-35)
(5.78281 -1.86721e-33 1.62949e-35)
(6.34308 -1.81973e-33 1.58805e-35)
(5.24718 -1.91261e-33 1.66911e-35)
(5.31834 -1.90657e-33 1.66384e-35)
(7.74246 -1.70112e-33 1.48455e-35)
(6.77685 -1.78296e-33 1.55597e-35)
(6.12959 -1.83782e-33 1.60384e-35)
(5.85338 -1.86123e-33 1.62427e-35)
(6.74971 -1.78526e-33 1.55797e-35)
(7.07115 -1.75802e-33 1.5342e-35)
(6.55484 -1.80178e-33 1.57239e-35)
(7.21881 -1.74551e-33 1.52328e-35)
(7.40372 -1.72983e-33 1.5096e-35)
(5.25037 -1.91233e-33 1.66887e-35)
(7.55505 -1.71701e-33 1.49841e-35)
(7.20707 -1.7465e-33 1.52415e-35)
(5.893 -1.85787e-33 1.62134e-35)
(7.17688 -1.74906e-33 1.52638e-35)
(7.77102 -1.6987e-33 1.48244e-35)
(7.70687 -1.70414e-33 1.48718e-35)
(5.80764 -1.86511e-33 1.62765e-35)
(7.47117 7.57374e-29 6.6098e-31)
(7.41515 -1.72887e-33 1.50876e-35)
(7.67208 -1.70709e-33 1.48975e-35)
(5.90492 -1.85686e-33 1.62046e-35)
(7.61358 0.419667 3.72618e-07)
(7.72172 0.252587 4.83452e-07)
(7.64516 0.218874 -1.80305e-06)
(7.7995 0.166762 4.32319e-07)
(7.42102 0.363911 1.88123e-06)
(7.74765 0.176003 -1.4134e-07)
(7.70217 0.0175583 3.14466e-06)
(7.72947 0.0974858 4.88305e-07)
(7.68923 0.169659 -8.28178e-07)
(7.69572 0.0411492 6.05263e-06)
(7.46278 0.0842305 3.65371e-06)
(7.35207 0.197886 -3.76089e-07)
(7.43672 0.0939494 -8.77266e-07)
(7.0886 0.283683 -1.30981e-08)
(7.2863 0.213586 -1.39879e-06)
(7.34626 0.104113 -1.56346e-06)
(7.10973 0.295057 -8.65701e-06)
(7.27788 0.126897 -5.53232e-07)
(7.11569 0.154548 2.1745e-07)
(7.01013 0.192544 1.72006e-07)
(7.10139 0.128582 1.42799e-07)
(7.08576 0.0863603 2.72163e-13)
(6.92853 0.206311 -5.36037e-07)
(6.94861 0.202305 2.60323e-06)
(6.84973 0.0397515 -1.71617e-13)
(6.79663 0.209149 -5.11822e-07)
(6.86742 0.0841461 -2.32421e-13)
(6.84301 0.173705 2.88097e-06)
(6.47117 0.474469 5.2165e-06)
(6.75382 0.18247 4.43664e-06)
(6.6579 0.240312 7.26179e-06)
(6.75454 0.112835 -3.14637e-06)
(6.68004 0.0767598 3.13571e-06)
(6.34498 0.368227 -1.57098e-06)
(6.2321 0.444646 -5.64889e-07)
(6.41164 0.198427 -9.10214e-07)
(6.32808 0.00151515 -7.66365e-08)
(6.17545 0.32078 -2.9731e-06)
(6.2701 0.10085 1.59334e-14)
(6.2593 0.151564 -5.36518e-07)
(6.21685 0.192093 1.80865e-06)
(6.25363 0.152548 -1.30063e-07)
(6.24466 0.135622 -2.99722e-06)
(6.14043 0.129422 -2.5078e-07)
(6.04829 0.242503 -2.48619e-06)
(5.98665 0.141949 -8.20191e-08)
(5.92063 0.0619789 8.26169e-07)
(5.81295 0.351065 -6.98107e-06)
(5.82946 0.270498 -3.50099e-06)
(5.89279 0.113618 -1.77202e-07)
(5.82784 0.209977 -1.38263e-07)
(5.69869 0.482286 -4.12424e-07)
(5.83052 0.0975533 -8.68441e-07)
(5.76992 0.0610495 -3.61493e-07)
(5.76704 0.0969111 1.30242e-14)
(5.56295 0.0437618 1.64223e-14)
(5.45408 0.160264 2.51445e-06)
(5.3985 0.196549 -1.60793e-06)
(5.38436 0.212324 2.51977e-06)
(9.02652 -1.5923e-33 1.38958e-35)
(9.94294 -1.51463e-33 1.3218e-35)
(9.36095 -1.56395e-33 1.36484e-35)
(9.28458 -1.57043e-33 1.37049e-35)
(9.49609 -1.5525e-33 1.35485e-35)
(8.34105 -1.65039e-33 1.44028e-35)
(9.46375 -1.55524e-33 1.35724e-35)
(10.6517 -1.45456e-33 1.26937e-35)
(9.52519 -1.55003e-33 1.35269e-35)
(10.1933 -1.49341e-33 1.30328e-35)
(10.5366 -1.46432e-33 1.27789e-35)
(9.23434 -1.57468e-33 1.37421e-35)
(8.80039 -1.61146e-33 1.4063e-35)
(8.83126 -1.60885e-33 1.40402e-35)
(10.1469 -1.49734e-33 1.30671e-35)
(9.20735 -1.57697e-33 1.3762e-35)
(9.4277 -1.5583e-33 1.35991e-35)
(9.41733 -1.55918e-33 1.36067e-35)
(8.34166 -1.65034e-33 1.44023e-35)
(7.84399 -1.69252e-33 1.47704e-35)
(9.56071 -1.54702e-33 1.35007e-35)
(10.4778 -1.4693e-33 1.28224e-35)
(9.62718 -1.54139e-33 1.34515e-35)
(9.24904 -1.57344e-33 1.37312e-35)
(10.7031 -1.4502e-33 1.26557e-35)
(10.1725 -1.49517e-33 1.30482e-35)
(9.7186 -1.53364e-33 1.33839e-35)
(7.90121 -1.68767e-33 1.47281e-35)
(9.17433 -1.57977e-33 1.37865e-35)
(8.89736 -1.60324e-33 1.39913e-35)
(7.81912 -1.69463e-33 1.47888e-35)
(10.7971 -1.44223e-33 1.25862e-35)
(9.89291 -1.51887e-33 1.3255e-35)
(10.7395 -1.44712e-33 1.26288e-35)
(8.39156 -1.64611e-33 1.43654e-35)
(9.48682 -1.55329e-33 1.35553e-35)
(8.66273 -1.62313e-33 1.41648e-35)
(8.16474 -1.66534e-33 1.45332e-35)
(10.8131 -1.44088e-33 1.25744e-35)
(9.54314 -1.54851e-33 1.35137e-35)
(9.11627 -1.58469e-33 1.38294e-35)
(9.90473 -1.51787e-33 1.32462e-35)
(9.57265 -1.54601e-33 1.34918e-35)
(10.7325 -1.44771e-33 1.2634e-35)
(10.5224 -1.46552e-33 1.27894e-35)
(10.2975 -1.48458e-33 1.29557e-35)
(9.1058 -1.58558e-33 1.38371e-35)
(9.88932 -1.51917e-33 1.32576e-35)
(9.71082 -1.5343e-33 1.33897e-35)
(10.9081 -1.43283e-33 1.25041e-35)
(9.90327 -1.51799e-33 1.32473e-35)
(7.91689 -1.68634e-33 1.47165e-35)
(9.58016 -1.54538e-33 1.34863e-35)
(9.27527 -1.57122e-33 1.37118e-35)
(10.619 -1.45733e-33 1.2718e-35)
(8.31461 2.9117e-20 2.541e-22)
(10.82 -1.4403e-33 1.25693e-35)
(9.70527 -1.53477e-33 1.33937e-35)
(9.2916 -1.56983e-33 1.36997e-35)
(9.27145 -1.57154e-33 1.37146e-35)
(9.89334 -1.51883e-33 1.32546e-35)
(10.4575 -1.47102e-33 1.28374e-35)
(8.171 -1.66481e-33 1.45285e-35)
(10.6933 -1.45103e-33 1.2663e-35)
(10.1624 -1.49603e-33 1.30557e-35)
(10.5581 -1.4625e-33 1.2763e-35)
(10.2281 -1.49046e-33 1.3007e-35)
(8.7657 -1.6144e-33 1.40887e-35)
(9.46874 -1.55482e-33 1.35687e-35)
(8.58236 -1.62994e-33 1.42243e-35)
(10.9061 0.45877 2.35857e-06)
(10.8225 0.317679 -8.16409e-06)
(9.15911 7.17169e-11 6.25864e-13)
(10.4094 0.4291 -4.00167e-07)
(10.8723 0.168557 2.41911e-06)
(10.9054 0.00149737 3.52833e-07)
(10.7655 0.134905 -1.14934e-06)
(10.5753 0.161332 1.12476e-06)
(10.6518 0.106795 -5.48607e-07)
(10.6472 0.105493 1.63991e-07)
(10.3949 0.213447 -5.78363e-06)
(10.4478 0.198657 -1.54279e-06)
(10.5461 0.0450523 -3.25272e-07)
(10.5279 0.131967 -2.46676e-06)
(10.4535 0.0799032 1.51566e-06)
(10.4469 0.0472276 1.40468e-06)
(10.3079 0.0462779 -5.32788e-07)
(10.3402 0.0658398 -1.72506e-06)
(10.2768 0.174418 2.04142e-08)
(10.3751 0.00613515 -2.54806e-07)
(10.3848 0.10753 6.89369e-07)
(9.84091 0.381817 8.75379e-07)
(10.1033 0.189051 3.64501e-06)
(10.1195 0.185044 6.98849e-08)
(10.1359 0.060306 -2.45125e-06)
(9.81039 0.241434 3.25818e-07)
(10.0738 0.122782 1.56681e-07)
(10.1016 0.0429285 -9.22383e-07)
(9.59862 0.334527 7.37755e-07)
(9.9569 0.106753 6.32571e-07)
(9.91618 0.0886069 2.95353e-06)
(9.84588 0.118248 -1.40002e-06)
(9.71498 0.177852 -3.28625e-06)
(9.65882 0.165548 3.00331e-06)
(9.75249 0.0972005 7.70329e-07)
(9.32381 0.399724 -1.35741e-06)
(9.56677 0.162872 9.8019e-07)
(9.60809 0.0368645 4.1253e-07)
(9.08638 0.545589 5.87082e-06)
(9.12618 0.372892 8.51773e-06)
(9.31996 0.103756 7.18942e-08)
(9.26723 0.0798254 -4.50691e-06)
(9.05973 0.160437 -6.04299e-06)
(9.06759 0.152212 -2.2267e-06)
(8.91191 0.236261 -2.54895e-06)
(9.01946 0.0976302 -3.3153e-06)
(9.00938 0.160225 3.18458e-06)
(8.88174 0.191348 1.63995e-06)
(8.9108 0.154396 4.22128e-07)
(8.76477 0.254501 6.72711e-07)
(8.91894 0.0470957 1.44009e-07)
(8.85456 0.151706 5.58387e-06)
(8.69609 0.26258 1.29153e-06)
(8.81762 0.145063 8.84419e-07)
(8.72742 0.0350395 -1.32203e-13)
(8.59513 0.258786 1.14223e-06)
(8.5565 0.101512 2.07744e-07)
(8.50395 0.193356 -4.17343e-06)
(8.47161 0.0644624 -8.27487e-07)
(8.41591 0.174447 -1.4937e-07)
(8.3062 0.276234 -6.87242e-06)
(8.34009 0.0479402 2.35106e-14)
(8.25003 0.199512 -7.99145e-07)
(8.13011 0.268676 6.29283e-06)
(8.05868 0.170811 1.11291e-06)
(8.06269 0.0434515 1.7325e-14)
(8.04648 0.168778 1.29663e-06)
(7.98921 0.23999 4.97697e-06)
(7.95447 0.368359 1.36513e-06)
(7.91345 0.0632271 3.75858e-14)
(12.363 -1.30952e-33 1.1428e-35)
(13.0186 -1.25396e-33 1.09431e-35)
(13.2497 -1.23437e-33 1.07722e-35)
(14.0854 -1.16355e-33 1.01541e-35)
(11.4338 -1.38828e-33 1.21153e-35)
(13.0061 -1.25502e-33 1.09524e-35)
(11.2035 -1.40779e-33 1.22856e-35)
(11.8383 -1.354e-33 1.18161e-35)
(13.8834 -1.18066e-33 1.03035e-35)
(13.1427 -1.24344e-33 1.08513e-35)
(14.0504 -1.16651e-33 1.018e-35)
(11.8733 -1.35103e-33 1.17903e-35)
(11.4219 -1.38929e-33 1.21241e-35)
(13.891 -1.18002e-33 1.02979e-35)
(12.4082 -1.30569e-33 1.13946e-35)
(13.5359 -1.21012e-33 1.05605e-35)
(12.154 -1.32724e-33 1.15826e-35)
(12.5779 -1.29131e-33 1.12691e-35)
(12.819 -1.27087e-33 1.10907e-35)
(12.2068 -1.32276e-33 1.15436e-35)
(13.0076 -1.2549e-33 1.09513e-35)
(12.6612 -1.28425e-33 1.12075e-35)
(12.4638 -1.30098e-33 1.13535e-35)
(14.0008 -1.17071e-33 1.02167e-35)
(11.5947 -1.37464e-33 1.19963e-35)
(12.5206 -1.29616e-33 1.13115e-35)
(13.0432 -1.25187e-33 1.09249e-35)
(12.9003 -1.26399e-33 1.10306e-35)
(11.1775 -1.41e-33 1.23048e-35)
(11.1538 -1.41201e-33 1.23224e-35)
(13.7682 -1.19043e-33 1.03888e-35)
(11.148 -1.4125e-33 1.23267e-35)
(12.7075 -1.28033e-33 1.11732e-35)
(13.1594 -1.24203e-33 1.0839e-35)
(13.5533 -1.20864e-33 1.05476e-35)
(13.9226 -1.17735e-33 1.02745e-35)
(12.8302 -1.26993e-33 1.10825e-35)
(11.981 -1.34189e-33 1.17105e-35)
(12.3727 -1.3087e-33 1.14209e-35)
(11.3666 -1.39397e-33 1.2165e-35)
(12.3845 -1.3077e-33 1.14121e-35)
(12.7843 -1.27382e-33 1.11165e-35)
(12.5983 -1.28958e-33 1.1254e-35)
(12.6837 -1.28234e-33 1.11908e-35)
(13.663 -1.19935e-33 1.04665e-35)
(14.0209 -1.16901e-33 1.02018e-35)
(13.6539 -1.20012e-33 1.04733e-35)
(12.2812 -1.31646e-33 1.14885e-35)
(12.8156 -1.27116e-33 1.10932e-35)
(13.2678 -1.23284e-33 1.07588e-35)
(12.3015 -1.31474e-33 1.14736e-35)
(13.2113 -1.23763e-33 1.08006e-35)
(11.6314 -1.37153e-33 1.19692e-35)
(11.1988 -1.40819e-33 1.22891e-35)
(11.9103 -1.34789e-33 1.17628e-35)
(11.3973 -1.39137e-33 1.21423e-35)
(13.4462 -1.21772e-33 1.06269e-35)
(13.7031 -1.19595e-33 1.04369e-35)
(13.6236 -1.20269e-33 1.04957e-35)
(11.2322 -1.40536e-33 1.22644e-35)
(13.9993 -1.17084e-33 1.02178e-35)
(13.901 -1.17917e-33 1.02905e-35)
(13.0314 -1.25288e-33 1.09337e-35)
(11.5536 -1.37812e-33 1.20267e-35)
(13.1903 -8.66141e-34 7.5587e-36)
(13.9972 -1.17102e-33 1.02193e-35)
(11.7371 -1.36257e-33 1.18909e-35)
(13.5859 -1.20588e-33 1.05236e-35)
(13.6974 -1.19643e-33 1.04411e-35)
(13.7749 -1.18986e-33 1.03838e-35)
(12.7673 -1.27525e-33 1.1129e-35)
(11.7715 -1.35965e-33 1.18655e-35)
(12.2235 -1.32134e-33 1.15312e-35)
(11.6387 -1.37091e-33 1.19637e-35)
(10.9692 -1.42765e-33 1.24589e-35)
(13.4368 -1.21852e-33 1.06338e-35)
(11.8581 -1.35231e-33 1.18015e-35)
(13.3923 -1.22229e-33 1.06668e-35)
(10.958 -1.4286e-33 1.24672e-35)
(13.7504 -1.19194e-33 1.04019e-35)
(11.8782 -1.35061e-33 1.17866e-35)
(11.5402 -1.37926e-33 1.20366e-35)
(11.6979 -1.36589e-33 1.192e-35)
(14.0351 -1.16781e-33 1.01913e-35)
(13.322 -1.22825e-33 1.07188e-35)
(12.261 -1.31816e-33 1.15034e-35)
(11.5867 -1.37532e-33 1.20022e-35)
(13.7094 -1.19541e-33 1.04322e-35)
(13.4638 -1.21623e-33 1.06139e-35)
(12.9065 -1.26346e-33 1.10261e-35)
(12.7233 -1.27899e-33 1.11615e-35)
(11.8032 -1.35696e-33 1.1842e-35)
(13.3012 -1.23001e-33 1.07341e-35)
(13.4156 -1.22031e-33 1.06495e-35)
(11.1318 -1.41387e-33 1.23387e-35)
(11.9818 -1.34183e-33 1.171e-35)
(13.2853 -1.23135e-33 1.07459e-35)
(11.6823 -1.36721e-33 1.19315e-35)
(13.4524 -1.21719e-33 1.06223e-35)
(14.0893 -1.16321e-33 1.01512e-35)
(12.7909 -1.27326e-33 1.11116e-35)
(12.0346 -1.33735e-33 1.16709e-35)
(12.8956 -1.26438e-33 1.10341e-35)
(13.8946 -1.17971e-33 1.02952e-35)
(11.1458 -1.41268e-33 1.23283e-35)
(14.0099 5.85765e-19 5.11189e-21)
(13.9731 0.781222 -2.15492e-06)
(12.687 -1.28206e-33 1.11884e-35)
(13.318 -1.22859e-33 1.07217e-35)
(13.418 0.535522 -3.58069e-07)
(13.3844 0.451111 4.80791e-06)
(14.0038 0.149696 9.71317e-09)
(11.9787 -1.3421e-33 1.17123e-35)
(13.0433 0.587198 -2.26577e-07)
(13.0318 -1.25284e-33 1.09334e-35)
(13.6453 0.171694 -1.83506e-07)
(13.2437 0.357106 1.15062e-06)
(13.7287 0.113674 -2.05369e-06)
(13.9168 0.000997914 1.57666e-07)
(13.3257 0.298636 2.69063e-06)
(13.7795 0.00743601 1.05361e-06)
(13.7052 0.0168104 -7.76559e-07)
(13.2431 0.234871 -1.84755e-06)
(13.2125 0.253167 -1.90303e-07)
(13.4186 0.137263 -9.0448e-06)
(13.4184 0.12978 -1.73128e-06)
(13.2712 0.212763 3.46648e-06)
(13.4452 0.000521984 1.04114e-06)
(12.9889 0.269657 4.95475e-06)
(13.332 0.0315364 -1.05382e-06)
(13.1951 0.162651 -3.77461e-07)
(12.9842 0.273534 -2.24738e-06)
(12.7238 0.367866 2.48346e-06)
(12.8654 0.237326 -1.16981e-06)
(12.9455 0.228024 7.6211e-07)
(13.0906 0.00792085 2.84224e-07)
(13.0317 0.117262 3.89443e-07)
(13.0624 0.000865913 1.04452e-06)
(12.9133 0.0768772 2.65528e-07)
(12.8901 0.0131256 -2.69817e-06)
(12.8114 0.111481 -1.9719e-06)
(12.7093 0.156567 1.26792e-06)
(12.7661 0.101075 -3.60074e-06)
(12.7366 0.0943324 5.57457e-07)
(12.4083 0.252193 -3.07717e-07)
(12.6102 0.00332099 1.6764e-07)
(12.2477 0.390658 -3.14533e-06)
(12.5756 0.0819364 -1.09808e-06)
(12.4459 0.123173 1.56562e-07)
(12.4547 0.04261 -2.01453e-06)
(12.3808 0.000407276 6.98164e-07)
(12.3192 0.094358 -4.9871e-07)
(12.1479 0.210169 5.49649e-07)
(12.249 0.115794 -3.08084e-08)
(12.2671 0.0368944 2.63142e-08)
(12.1983 0.000793144 1.43079e-06)
(12.0033 0.145072 -4.44426e-06)
(11.8342 0.364943 -1.06411e-05)
(11.9083 0.0402929 -1.28156e-07)
(11.6724 0.385935 1.42044e-06)
(11.6623 0.351092 3.11671e-06)
(11.4547 0.568187 -2.05249e-06)
(11.7402 0.107658 -6.12449e-10)
(11.5411 0.331475 -3.2081e-06)
(11.6798 0.09968 9.47262e-08)
(11.5482 0.237129 1.81498e-06)
(11.5688 0.178658 -2.21716e-06)
(11.4967 0.198339 -4.03087e-06)
(11.5244 0.137022 3.96983e-07)
(11.4591 0.173279 2.52999e-06)
(11.4748 0.0654206 5.80321e-07)
(11.3258 0.153017 3.4786e-07)
(11.0278 0.37615 -1.40846e-07)
(11.0217 0.198311 -1.46118e-06)
(11.0203 0.160572 -1.29788e-07)
(10.9646 0.138351 -5.66498e-06)
(18.1648 -8.17808e-34 7.1369e-36)
(14.4478 -1.13283e-33 9.88604e-36)
(18.6169 -7.79493e-34 6.80253e-36)
(15.0851 -1.07882e-33 9.41474e-36)
(15.8365 -1.01514e-33 8.85897e-36)
(14.4198 -1.13521e-33 9.9068e-36)
(18.6103 -7.80048e-34 6.80738e-36)
(14.1704 -1.15634e-33 1.00912e-35)
(14.274 -1.14756e-33 1.00146e-35)
(15.0998 -1.07757e-33 9.40382e-36)
(17.2576 -8.9469e-34 7.80784e-36)
(17.8738 -8.42469e-34 7.35212e-36)
(15.8631 -1.01288e-33 8.83926e-36)
(18.8294 -7.61477e-34 6.6453e-36)
(15.5304 -1.04108e-33 9.08537e-36)
(14.3906 -1.13768e-33 9.92838e-36)
(19.0583 -7.42079e-34 6.47603e-36)
(18.3966 -7.98161e-34 6.96545e-36)
(15.9395 -1.00641e-33 8.78277e-36)
(17.7802 -8.50399e-34 7.42132e-36)
(17.3606 -8.85969e-34 7.73173e-36)
(15.061 -1.08086e-33 9.43252e-36)
(18.5125 -7.88343e-34 6.87976e-36)
(17.3375 -8.87922e-34 7.74878e-36)
(14.5286 -1.12598e-33 9.82628e-36)
(17.6824 -8.58695e-34 7.49372e-36)
(15.8666 -1.01258e-33 8.83668e-36)
(17.9452 -8.36418e-34 7.29931e-36)
(18.5756 -7.82987e-34 6.83302e-36)
(14.9638 -1.0891e-33 9.5044e-36)
(17.0456 -9.12665e-34 7.9647e-36)
(17.0558 -9.11796e-34 7.95712e-36)
(15.0357 -1.083e-33 9.45123e-36)
(15.1106 -1.07666e-33 9.39583e-36)
(15.4488 -1.04799e-33 9.14569e-36)
(17.1925 -9.0021e-34 7.85601e-36)
(18.2325 -8.12069e-34 7.08682e-36)
(17.1582 -9.03123e-34 7.88143e-36)
(18.2343 -8.1192e-34 7.08552e-36)
(18.8264 -7.61732e-34 6.64753e-36)
(18.1016 -8.23164e-34 7.18365e-36)
(17.0501 -9.12277e-34 7.96132e-36)
(15.7306 -1.02411e-33 8.93727e-36)
(18.847 -7.59989e-34 6.63233e-36)
(14.3949 -1.13731e-33 9.92518e-36)
(17.2237 -8.97569e-34 7.83296e-36)
(17.4492 -8.78458e-34 7.66618e-36)
(16.324 -9.73818e-34 8.49838e-36)
(14.1077 -1.16166e-33 1.01376e-35)
(15.6871 -1.02779e-33 8.96943e-36)
(15.2612 -1.06389e-33 9.28443e-36)
(15.2048 -1.06867e-33 9.32618e-36)
(16.1642 -9.87361e-34 8.61657e-36)
(18.7302 -7.69888e-34 6.71871e-36)
(14.326 -1.14315e-33 9.97616e-36)
(18.3013 -8.06235e-34 7.0359e-36)
(14.2512 -1.1495e-33 1.00315e-35)
(17.1844 -9.00896e-34 7.862e-36)
(14.1477 -1.15827e-33 1.01081e-35)
(14.4945 -1.12888e-33 9.85157e-36)
(17.4259 -8.80428e-34 7.68338e-36)
(18.8288 -7.61531e-34 6.64578e-36)
(17.3814 -8.84201e-34 7.71631e-36)
(15.0932 -1.07813e-33 9.40869e-36)
(14.8636 -1.09759e-33 9.57851e-36)
(16.5232 -9.56938e-34 8.35107e-36)
(18.2618 -8.09586e-34 7.06515e-36)
(14.3783 -1.13872e-33 9.93749e-36)
(17.3705 -8.85127e-34 7.72438e-36)
(18.0194 -8.30126e-34 7.2444e-36)
(16.1229 -9.9086e-34 8.64711e-36)
(14.2723 -1.14771e-33 1.00159e-35)
(16.2534 -9.79806e-34 8.55063e-36)
(17.4422 -8.79045e-34 7.67131e-36)
(16.0875 -9.93861e-34 8.6733e-36)
(17.4413 -8.79123e-34 7.67199e-36)
(16.4101 -9.66526e-34 8.43474e-36)
(18.6241 -7.78882e-34 6.7972e-36)
(19.0431 -7.4337e-34 6.48729e-36)
(15.8227 -1.01631e-33 8.86917e-36)
(16.5414 -9.55396e-34 8.33761e-36)
(17.3152 -8.89812e-34 7.76527e-36)
(15.4522 -1.04771e-33 9.1432e-36)
(16.6049 -9.50014e-34 8.29065e-36)
(15.3402 -1.0572e-33 9.22605e-36)
(18.364 -8.00927e-34 6.98959e-36)
(17.4968 -8.74424e-34 7.63099e-36)
(16.317 -9.74416e-34 8.5036e-36)
(15.4612 -1.04694e-33 9.13654e-36)
(14.5837 -1.12132e-33 9.78559e-36)
(18.4318 -7.95175e-34 6.93938e-36)
(18.899 -7.55585e-34 6.59389e-36)
(18.9643 -7.50044e-34 6.54553e-36)
(15.7338 -1.02384e-33 8.93489e-36)
(18.5023 -7.89199e-34 6.88724e-36)
(15.2807 -1.06224e-33 9.27006e-36)
(16.1021 -9.92623e-34 8.66249e-36)
(16.6169 -9.48996e-34 8.28176e-36)
(16.5258 -9.56716e-34 8.34913e-36)
(15.8009 -1.01815e-33 8.88526e-36)
(15.2245 -1.067e-33 9.3116e-36)
(18.6064 -7.80384e-34 6.8103e-36)
(14.8287 -1.10055e-33 9.60438e-36)
(14.7062 -1.11093e-33 9.69495e-36)
(17.8194 -8.47079e-34 7.39235e-36)
(14.7614 -1.10625e-33 9.65409e-36)
(14.4453 -1.13304e-33 9.88793e-36)
(18.0888 -8.24252e-34 7.19314e-36)
(15.9754 -1.00337e-33 8.75625e-36)
(18.7101 -7.71593e-34 6.73359e-36)
(16.8963 -9.25317e-34 8.07512e-36)
(16.7438 -9.38237e-34 8.18787e-36)
(16.2056 -9.83855e-34 8.58597e-36)
(17.7803 -8.50393e-34 7.42127e-36)
(18.7079 -7.71777e-34 6.7352e-36)
(18.6764 -7.74445e-34 6.75848e-36)
(14.2014 -1.15372e-33 1.00683e-35)
(16.289 -9.76784e-34 8.52427e-36)
(16.7479 -9.37889e-34 8.18484e-36)
(15.7118 -1.0257e-33 8.95118e-36)
(17.1966 -8.99863e-34 7.85299e-36)
(17.1552 -9.03375e-34 7.88364e-36)
(17.3133 -8.89975e-34 7.76669e-36)
(18.7678 -7.667e-34 6.69089e-36)
(16.6358 -9.47392e-34 8.26777e-36)
(18.7596 -7.67393e-34 6.69694e-36)
(17.0633 -9.11159e-34 7.95156e-36)
(14.5347 -1.12547e-33 9.82182e-36)
(14.5795 -1.12167e-33 9.78866e-36)
(18.2253 -8.12677e-34 7.09212e-36)
(17.3951 -8.83039e-34 7.70616e-36)
(18.1962 -8.15143e-34 7.11365e-36)
(15.3645 -1.05514e-33 9.20803e-36)
(14.4248 -1.13478e-33 9.90311e-36)
(14.2155 -1.15252e-33 1.00579e-35)
(14.1923 -1.15448e-33 1.0075e-35)
(16.8233 -9.31503e-34 8.1291e-36)
(15.3758 -1.05418e-33 9.1997e-36)
(18.7391 -7.69132e-34 6.71212e-36)
(18.8877 -7.56537e-34 6.60219e-36)
(15.0331 -1.08322e-33 9.45314e-36)
(14.2561 -1.14908e-33 1.00278e-35)
(14.445 -1.13307e-33 9.88811e-36)
(16.9762 -9.18545e-34 8.01602e-36)
(18.2109 -8.13898e-34 7.10278e-36)
(17.4633 -8.77264e-34 7.65577e-36)
(16.4912 -9.59652e-34 8.37475e-36)
(15.5274 -1.04133e-33 9.08755e-36)
(18.8995 -7.55542e-34 6.59352e-36)
(18.56 -7.84313e-34 6.8446e-36)
(17.1194 -9.06405e-34 7.91007e-36)
(15.7712 -1.02067e-33 8.90728e-36)
(16.0017 -1.00114e-33 8.7368e-36)
(15.4921 -1.04432e-33 9.11367e-36)
(16.1365 -9.89706e-34 8.63703e-36)
(15.2332 -1.06627e-33 9.30517e-36)
(18.3886 -7.98836e-34 6.97133e-36)
(15.6402 -1.03177e-33 9.00415e-36)
(16.7608 -9.36803e-34 8.17535e-36)
(18.9051 -7.55067e-34 6.58937e-36)
(18.0637 -8.26375e-34 7.21167e-36)
(19.0332 -7.44209e-34 6.49462e-36)
(17.3697 -8.85191e-34 7.72494e-36)
(17.1344 -9.05136e-34 7.899e-36)
(18.9218 -7.53651e-34 6.57701e-36)
(18.3222 -8.0447e-34 7.0205e-36)
(16.6235 -9.48432e-34 8.27684e-36)
(17.3817 -8.84174e-34 7.71607e-36)
(14.9494 -1.09032e-33 9.5151e-36)
(17.1813 -9.01158e-34 7.86429e-36)
(17.623 -8.63729e-34 7.53765e-36)
(19.0839 -7.39914e-34 6.45713e-36)
(16.0507 -9.96982e-34 8.70053e-36)
(18.4649 -7.9237e-34 6.9149e-36)
(14.3958 -1.13724e-33 9.92451e-36)
(14.6837 -1.11284e-33 9.71158e-36)
(17.002 -9.1636e-34 7.99695e-36)
(16.1874 -9.85396e-34 8.59942e-36)
(17.7118 -8.56202e-34 7.47196e-36)
(16.1202 -9.91089e-34 8.64911e-36)
(17.778 -8.50587e-34 7.42296e-36)
(16.9577 -9.20115e-34 8.02972e-36)
(14.6848 -1.11274e-33 9.71075e-36)
(15.6474 -1.03116e-33 8.99883e-36)
(15.6609 -1.03002e-33 8.98882e-36)
(16.1876 -9.85376e-34 8.59924e-36)
(16.3656 -9.70293e-34 8.46762e-36)
(15.1752 -1.07118e-33 9.34804e-36)
(14.3209 -1.14358e-33 9.9799e-36)
(15.6585 -1.03022e-33 8.99058e-36)
(15.6759 -1.02874e-33 8.97771e-36)
(18.0603 -8.26666e-34 7.2142e-36)
(18.5541 -7.84813e-34 6.84896e-36)
(14.7714 -1.1054e-33 9.6467e-36)
(16.0528 -9.96802e-34 8.69896e-36)
(18.0244 -8.29706e-34 7.24073e-36)
(15.2414 -1.06557e-33 9.29912e-36)
(19.2117 0.579682 -1.27754e-06)
(17.2318 -8.96884e-34 7.82699e-36)
(19.0228 -7.45093e-34 6.50233e-36)
(18.4249 0.847594 -6.85191e-06)
(18.7023 0.470312 1.69307e-06)