/*--------------------------------*- C++ -*----------------------------------*\
  =========                 |
  \\      /  F ield         | OpenFOAM: The Open Source CFD Toolbox
   \\    /   O peration     | Website:  https://openfoam.org
    \\  /    A nd           | Version:  7
     \\/     M anipulation  |
\*---------------------------------------------------------------------------*/
FoamFile
{
    version     2.0;
    format      ascii;
    class       labelField;
    location    "0.7/lagrangian/reactingCloud1";
    object      origId;
}
// * * * * * * * * * * * * * * * * * * * * * * * * * * * * * * * * * * * * * //


2546
(
3957
3958
3959
3960
3961
3962
3963
3964
3965
3966
3967
3968
3969
3970
3971
3972
3973
3974
3975
3976
3977
3978
3979
3980
3981
3982
3983
3984
3985
3986
3987
3988
3989
3990
3991
3992
3993
3994
3995
3996
3997
3998
3999
3580
3592
3873
3889
3891
3892
3893
3887
3894
3895
3896
3897
3898
3899
3900
3901
3902
3903
3905
3904
3906
3908
3909
3910
3911
3912
3907
3914
3915
3916
3917
3913
3918
3919
3920
3922
3921
3923
3924
3925
3926
3927
3928
3929
3931
3930
3932
3933
3935
3934
3937
3936
3938
3939
3940
3941
3943
3942
3944
3945
3946
3947
3948
3949
3950
3951
3952
3953
3954
3955
3956
3871
3876
3874
3872
3878
3875
3869
3880
3877
3879
3882
3883
3881
3856
3885
3886
3888
3884
3890
3854
3860
3859
3858
3863
3861
3865
3864
3867
3868
3866
3870
3862
3821
3822
3838
3842
3847
3846
3843
3550
3826
3851
3849
3841
3845
3844
3852
3850
3848
3853
3857
3855
1853
3824
3825
3816
3827
3819
3823
3830
3831
3829
3832
3828
3836
3833
3800
3814
3840
3835
3834
3839
3837
122
2504
3090
3786
3761
3795
3794
3792
3796
3797
3799
3793
3802
3803
3779
3798
3809
3807
3806
3808
3804
3810
3813
3811
3805
3801
3818
3820
3817
3815
3812
1281
3311
3728
3756
3745
3751
3754
3757
3755
3742
3750
3758
3753
3744
3762
3760
3763
3752
3764
3765
3759
3730
3770
3766
3773
3771
3746
3774
3772
3718
3767
3777
3769
3781
3768
3782
3778
3776
3787
3783
3788
3780
3791
3775
3789
3785
3784
3790
70
250
143
644
761
788
515
849
891
918
960
1111
1130
1392
1569
1873
1923
1919
2120
2149
2130
2283
2251
2458
2654
2741
2744
2792
2832
2947
3018
2596
3126
3136
3313
3377
3572
3645
3653
3631
3658
3677
3686
3695
3688
3694
3660
3698
3699
3692
3691
3703
3706
3679
3701
3708
3697
3707
3709
3702
3713
3714
3710
3711
3720
3716
3719
3717
3619
3704
3705
3721
3723
3700
3667
3724
3727
3715
3732
3729
3726
3731
3722
3734
3725
3737
3739
3712
3733
3740
3736
3674
3735
3741
3743
3748
3749
3747
3738
9
75
139
151
145
178
230
293
322
333
345
457
467
615
695
712
245
748
796
812
887
896
921
938
956
1004
1092
1115
1127
1154
1211
1251
1274
1310
1387
1439
1683
1693
1913
2031
2047
2081
2083
2100
2173
2185
2198
2277
2254
2313
2345
2414
2449
1703
2740
2706
2796
2889
2922
2682
2944
3004
3001
3149
3234
3328
3348
3480
3200
3517
3565
3604
3620
3605
3627
3624
3632
3628
3634
3636
3626
3629
3639
3638
3640
3641
3622
3633
3637
3635
3642
3609
3630
3608
3644
3614
3648
3646
3617
3649
3610
3652
3647
3650
3655
3625
3657
3643
3621
3593
3664
3661
3665
3669
3659
3668
3671
3663
3670
3656
3666
3673
3654
3675
3678
3662
3680
3676
3684
3681
3672
3687
3683
3682
3690
3693
3689
3685
3651
3696
10
21
27
31
29
53
64
66
100
185
181
207
270
404
434
490
491
526
564
569
636
708
813
822
835
837
857
890
893
931
945
947
974
1043
1038
1066
1086
1129
1149
1209
1267
1330
1355
1384
1438
1450
1465
1491
1490
1555
1652
1711
1712
1571
1747
1729
1808
1834
1836
1904
1903
1957
1985
1975
1999
2089
2183
2194
2264
2270
2316
2362
2388
2406
2430
2471
2493
2570
2618
2633
2655
2709
2801
2845
2827
2854
2891
2886
2937
2976
3007
3079
3096
3106
3111
3224
3272
3300
3318
3360
3378
3370
3394
3397
3417
3492
3451
3529
3524
3458
3514
3553
3561
3481
3557
3554
3522
3564
3566
3527
3562
3555
3563
3552
3567
3571
3569
3573
3534
3558
3575
3545
3511
3560
3556
3583
3581
3568
3587
3579
3586
3585
3588
3589
3584
3214
3577
3594
3595
3596
3574
3599
3576
3598
3601
3602
3582
3578
3606
3539
3559
3540
3611
3591
3607
3590
3603
3597
3613
3600
3616
3615
3570
3612
3623
3618
18
24
41
33
51
93
86
99
102
105
112
146
144
177
166
167
205
210
231
236
274
291
313
323
336
378
392
379
399
415
468
479
480
528
525
548
586
596
604
608
622
614
624
618
646
673
686
685
683
684
725
731
738
728
758
745
775
781
793
801
853
865
864
901
899
939
992
1000
1048
1037
1068
1162
1153
1163
1167
1221
1226
1245
1277
1282
1278
1280
1339
1380
1367
1443
1503
1518
1541
1562
1561
1602
1604
1605
1615
1621
1626
1640
1668
1723
1726
1743
1735
1767
1790
1816
1812
1806
1807
1817
1857
1848
1858
1925
1938
1959
1971
2016
2048
2058
2066
2069
2084
2137
2146
2157
2147
2175
2180
2228
2259
2286
2314
2343
2346
2334
2347
2371
2420
2459
2481
2462
2530
2535
2555
2562
2547
2563
2564
2577
2591
2606
2557
2627
2612
2631
2640
2644
2668
2673
2676
2664
2670
2694
2750
2752
2766
2742
2761
2805
2806
2816
2828
2865
2881
2882
2895
2901
2961
2762
3008
3000
3011
3082
3101
3098
3132
3163
3209
3199
3254
3260
3293
3297
3277
3306
3359
3291
3396
3399
3299
3349
3312
3419
3251
3418
3425
3430
3362
3409
3333
3336
3437
3426
3433
3420
3435
3443
3440
3447
3446
3442
3449
3386
3341
3403
3432
3455
3445
3434
3439
3444
3465
3462
3452
3436
3466
3438
3461
3405
3468
3473
3463
3475
3467
3471
3412
3464
3476
3460
3483
3474
3489
3369
3484
3487
3488
3457
3470
3477
3494
3424
3491
3472
3478
3486
3497
3408
3496
3485
3414
3502
3501
3410
3498
3504
3448
3499
3505
3507
3510
3513
3453
3431
3512
3509
3423
3518
3454
3493
3520
3456
3429
3519
3521
3506
3490
3482
3450
3479
3500
3503
3441
3469
3536
3526
3525
3530
3531
3515
3516
3508
3495
3535
3371
3459
3532
3547
3533
3544
3541
3538
3543
3549
3523
3548
3542
3528
3546
3537
3551
16
0
13
23
32
4
38
43
39
54
71
68
67
74
97
107
78
46
115
127
123
142
136
165
163
191
187
215
212
216
232
194
263
260
262
281
294
285
307
331
314
355
319
400
377
411
440
482
508
505
530
538
540
567
571
607
613
616
635
640
674
656
680
715
706
697
726
682
751
815
807
844
883
894
908
888
929
943
950
930
973
1016
1056
1071
1079
1102
1100
1044
1120
1094
1119
1171
1170
1180
1190
1202
1220
1233
1114
1276
1275
1263
1288
1265
1313
1301
1394
1403
1421
1414
1470
1477
1514
1515
1273
1506
1500
1496
1535
1484
1547
1578
1585
1599
1609
1618
1634
1632
1666
1665
1690
1671
1749
1731
1768
1736
1777
1805
1796
1823
1794
1838
1859
1830
1840
1891
1856
1902
1922
1920
1917
1948
1960
1977
1978
2011
2027
2043
1973
2057
2102
2126
2118
2143
2127
2132
2164
2204
2213
2206
2191
2222
2220
2245
2196
2262
2266
2285
2327
2324
2370
2369
2408
2385
2429
2374
2445
2427
2463
2468
2452
2469
2484
2507
2482
2540
2548
2558
2527
2561
2590
2624
2607
2651
2693
2700
2739
2756
2772
2778
2731
2747
2797
2811
2836
2851
2861
2871
2913
2921
2914
2893
3024
3035
3028
3050
3067
3016
3080
3095
3146
3112
3134
3160
3103
3169
3164
3155
3187
3184
3208
3183
3195
2924
3212
3215
3185
3235
3142
3196
3192
3179
3073
3085
3105
3165
3256
3248
3233
3259
3249
3219
3288
3274
3303
3182
3283
3278
3295
3263
3225
3281
3255
3298
3286
3270
3246
3276
3236
3228
3305
3265
3321
3240
3275
3307
3177
3302
3316
3267
3285
3287
3317
3324
3335
3331
3330
3332
3315
3323
3227
3301
3326
3264
3338
3221
3322
3325
3320
3343
3308
3339
3279
3345
3310
3346
3342
3327
3314
3352
3210
3353
3242
3354
3347
3363
3309
3304
3351
3375
3357
3366
3350
3381
3294
3374
3334
3389
3358
3337
3383
3296
3387
3372
3364
3361
3365
3395
3398
3373
3380
3368
3356
3344
3340
3376
3402
3392
3385
3355
3367
3382
3401
3415
3390
3379
3329
3393
3407
3391
3413
3384
3400
3388
3406
3422
3411
3421
3416
3428
3427
3319
3404
2
34
109
117
113
137
17
209
217
261
258
290
282
348
125
343
388
401
407
410
396
423
516
521
534
532
546
563
574
555
427
612
623
599
668
654
664
626
746
737
754
777
767
827
803
871
829
878
919
917
912
944
965
967
964
993
995
1020
1047
1080
1089
1107
1105
1144
1075
1139
1195
1208
1122
1244
1227
1292
1286
1309
1346
1350
1371
1368
1406
1345
1369
1451
1436
1462
1423
1492
1489
1494
1505
1525
1575
1570
1591
1616
1606
1628
1657
1639
1662
1676
1701
1718
1760
1757
1769
1804
1875
1837
1928
1993
1995
1962
2001
2015
2026
2024
2017
2020
2088
2104
2079
2158
2184
2159
2193
2246
2257
2221
2261
2272
2189
2288
2377
2366
2361
2418
2439
2474
2483
2515
2520
2448
2536
2502
2560
2586
2648
2526
2665
2681
2685
2678
2704
2695
2751
2703
2770
2802
2807
2838
2835
2855
2888
2894
2915
2919
2934
2932
2790
2940
2897
2948
2968
2966
2978
3005
2957
2918
3058
3083
3093
3088
2899
2904
2939
2950
3081
3063
2848
3012
2969
3040
2970
2936
3135
3049
3084
3043
3066
3045
3145
3094
1721
3030
3059
3129
2933
3107
3152
3151
3097
2759
3109
3037
3161
3125
3144
3123
3122
3156
3157
3137
3051
3175
3150
3100
3138
3108
3172
3158
3191
3128
3141
3154
3053
3148
3166
3115
3194
3178
3130
3159
3181
3197
3133
3113
3193
3207
3211
3213
3143
3206
3202
3057
3218
3140
3180
3076
3190
2322
3203
3147
3222
3162
3188
3167
3046
3116
3220
3229
3226
3232
3170
3217
2999
3231
3237
3216
3174
3198
3243
3168
3239
3204
3250
3201
3153
3262
3205
3245
3189
3258
3171
3176
3247
3230
3253
3252
3266
3139
3238
3269
3131
3223
3268
3273
3257
3271
3282
3280
3121
3117
3241
3186
3284
3014
3261
3292
3290
3173
3289
3244
22
52
57
49
56
40
134
149
124
55
157
159
195
202
208
246
259
241
254
330
329
302
462
494
472
517
454
537
522
533
296
573
560
676
701
672
709
736
774
823
843
859
861
753
848
840
830
979
977
1018
1055
1002
1131
1085
1054
1222
1232
1242
1118
1259
1272
1305
1342
1335
1327
1366
1395
1382
1336
1413
1461
1410
1478
1468
1516
1564
1595
1563
1638
1580
1744
1748
1809
1818
1835
1813
1824
1865
1725
1847
1842
1909
1930
1945
1961
1963
1944
2000
1994
2012
2025
2067
2174
2218
2232
2205
2249
2308
2299
2338
2372
2392
2421
2424
2416
2443
2438
2523
2521
2537
2571
2552
2446
2554
2578
2556
2609
2696
2708
2723
2732
2503
2780
2788
2812
2800
2726
2822
2592
2789
2844
2715
2860
2775
2820
2876
2785
2667
2869
2911
2903
2853
2859
2916
2746
2866
2843
2649
2874
2923
2821
2925
2810
2907
2837
2877
2928
2946
2909
2714
2958
2879
2942
2798
2953
2818
2949
2727
2963
2920
2864
2603
2962
2902
2979
2905
2954
2769
2912
2815
2951
2956
2964
2941
2971
2945
2952
2982
2852
2826
2935
2896
2980
2973
2930
2972
2990
2910
2873
2906
2927
2917
2926
2803
3003
2858
2967
2988
2965
2974
2929
3022
2833
3006
2931
3009
2908
2829
2984
2477
2995
3017
2108
2986
2975
2880
3027
3002
2716
2875
2955
2994
2996
2898
2997
3020
2989
3019
2872
2734
2943
3023
2981
3025
2825
2846
3036
3029
2998
3042
3032
2992
3041
3072
3060
2959
3021
2690
3033
2863
2991
3056
3062
3047
2748
2993
3068
2857
3075
3061
3069
2892
3077
3015
3034
3010
3031
3038
3064
2983
3054
2987
3065
2985
3048
3013
3087
3091
2977
3039
3114
3110
3044
3092
3099
3078
3071
3124
3102
3055
3026
3052
2938
3118
2960
3086
2758
3070
3127
3119
3120
3089
3074
3104
15
28
26
62
88
106
91
114
72
121
89
156
171
196
192
153
168
84
284
317
368
170
342
239
315
395
344
389
283
438
478
507
519
558
506
575
549
559
514
581
609
638
629
642
670
743
794
789
764
836
718
825
717
854
785
768
879
934
980
1001
970
1059
1117
1128
1152
998
1045
1175
1228
1234
1237
1295
1270
1256
1300
1279
1314
1298
1284
1172
1378
1407
1433
1474
1447
1466
1545
1517
1612
1558
1617
1667
1686
1643
1619
1636
1695
1603
1717
1713
1755
1732
1855
1888
1795
1921
1876
1833
1792
1892
1914
1996
1870
1964
1970
2003
1869
2053
2086
2030
1974
2112
2151
2181
2114
2209
2092
2273
2009
2166
2078
2010
2162
2247
2302
2311
2167
2154
2226
2360
2179
2229
2107
2339
2359
2382
2364
2077
2295
2355
2350
2252
2358
2293
2303
2190
2152
2060
2321
2393
2417
2287
2284
2250
2387
2258
1901
2337
2357
2402
2235
2353
2354
2378
2423
2410
2290
2419
2440
2329
2426
2400
2224
2415
2441
2306
2171
2398
2447
2411
2315
2036
2352
2379
2389
2431
2404
2294
2335
2394
2470
2391
2461
2367
2375
2466
2465
2453
2455
2450
2454
2275
2399
2412
2480
2376
2312
2437
2422
2499
2460
2341
2488
2495
2444
2234
2505
2409
2434
2401
2456
2464
2489
2506
2405
2325
2491
2344
2538
2386
2490
2425
2380
2510
2467
2476
2368
2518
2435
2433
2317
2307
2522
2501
2384
2551
2545
2528
2529
2395
2525
2475
2532
2403
2514
2543
2263
2045
2485
2559
2478
2575
2508
2428
2498
2580
2512
2496
2541
2588
2531
2549
2553
2090
2509
2539
2390
2573
2432
2585
2583
2566
2473
2589
2136
2602
2436
2511
2319
2238
2533
2524
2365
2494
2629
2613
2550
2381
2492
2645
2542
2628
2240
2626
2582
2622
2594
2581
2616
2593
2637
2500
2659
2567
2519
2608
2497
2621
2242
2396
2565
2652
2442
2587
2669
2598
2671
2451
2619
2647
2397
2534
2646
2569
2679
2479
2638
2546
2641
2486
2650
2568
2597
2653
2672
2513
2617
2666
1696
2363
2620
2576
2373
2701
2472
2610
2697
2698
2383
2625
2407
2413
2517
2663
2639
2687
2688
2692
2615
2457
2632
2712
1931
2719
2735
2574
2717
2713
2743
2487
2737
2721
2630
2605
2572
2707
2722
2683
2601
2684
2705
2658
2718
2711
2675
2680
2642
2749
2674
2699
2725
2767
2686
2757
2754
2773
2753
2614
2779
2599
2720
2611
2243
2623
2656
2710
2600
2782
2724
2799
2760
2691
2584
2636
2781
2702
2660
2635
2809
2808
2793
2604
2824
2661
2662
2764
2771
2784
2765
2787
2823
2544
2595
2794
2840
2736
2774
2776
2786
2819
2847
2831
2813
2856
2817
2643
2689
2791
2830
2768
2516
2783
2763
2842
2634
2795
2730
2834
2755
2887
2867
2839
2868
2814
2729
2862
2657
2738
2870
2849
2728
2777
2579
2677
2804
2890
2850
2885
2900
2745
2878
2733
2841
2883
2884
)


// ************************************************************************* //
