/*--------------------------------*- C++ -*----------------------------------*\
  =========                 |
  \\      /  F ield         | OpenFOAM: The Open Source CFD Toolbox
   \\    /   O peration     | Website:  https://openfoam.org
    \\  /    A nd           | Version:  7
     \\/     M anipulation  |
\*---------------------------------------------------------------------------*/
FoamFile
{
    version     2.0;
    format      ascii;
    class       Cloud<passiveParticle>;
    location    "0.7/lagrangian/reactingCloud1";
    object      positions;
}
// * * * * * * * * * * * * * * * * * * * * * * * * * * * * * * * * * * * * * //

2546
(
(0.425799 0.286251 0.204303 0.0836468) 2865 5620 1
(0.541968 0.228389 0.156797 0.0728464) 2797 5485 1
(0.0504668 0.39155 0.476346 0.0816373) 2791 5475 2
(0.595206 0.0245142 0.202492 0.177788) 2724 5342 2
(0.350801 0.159628 0.326817 0.162754) 2615 5258 2
(0.223959 0.384668 0.035992 0.355381) 2531 5091 1
(0.00448097 0.370944 0.501132 0.123443) 2460 4950 2
(0.0646168 0.466548 0.077164 0.391671) 2405 4709 1
(0.122677 0.303473 0.439488 0.134362) 2365 4630 2
(0.389528 0.125797 0.305551 0.179124) 2268 4437 2
(0.00288945 0.494536 0.245333 0.257242) 2144 4323 1
(0.187632 0.165087 0.40815 0.239132) 2065 4166 2
(0.351872 0.0107496 0.324661 0.312717) 2030 4097 2
(0.142657 0.428406 0.230781 0.198157) 1938 3782 1
(0.711299 0.144238 0.103046 0.041417) 1873 3651 1
(0.712658 0.14356 0.0109141 0.132868) 1820 3548 1
(0.0529121 0.389769 0.473768 0.083551) 1705 3319 2
(0.00365382 0.223378 0.498241 0.274727) 1646 3202 2
(0.118994 0.43759 0.361201 0.0822154) 1638 3183 1
(0.263073 0.0717992 0.295946 0.369182) 1581 3070 2
(0.151675 0.420865 0.0449539 0.382506) 1438 2921 1
(0.209752 0.391494 0.304375 0.0943785) 1415 2876 1
(0.763094 0.0827282 0.119333 0.0348447) 1312 2671 2
(0.759181 0.0749901 0.121851 0.043977) 1265 2578 2
(0.757402 0.121132 0.000167633 0.121299) 1176 2267 2
(0.405568 0.297216 0.0819931 0.215223) 1132 2182 1
(0.626855 0.186529 0.00543654 0.181179) 1025 1966 1
(0.110875 0.444563 0.0247843 0.419778) 1011 1942 1
(0.352443 0.322316 0.134587 0.190655) 906 1730 1
(0.269496 0.253298 0.109009 0.368197) 840 1599 2
(0.482313 0.0603816 0.19776 0.259546) 772 1464 2
(0.15541 0.0291465 0.393149 0.422295) 703 1328 2
(0.0821221 0.440011 0.0147771 0.46309) 626 1174 2
(0.0912872 0.453129 0.110501 0.345083) 567 1057 1
(0.0232125 0.484619 0.422819 0.0693498) 488 900 1
(0.126807 0.434111 0.253551 0.185532) 425 775 1
(0.386672 0.0679064 0.306664 0.238758) 381 691 2
(0.23564 0.0606629 0.320934 0.382764) 287 501 2
(0.30836 0.151992 0.193828 0.34582) 233 395 2
(0.357703 0.320573 0.0609604 0.260763) 219 366 1
(0.278872 0.217957 0.140849 0.362322) 141 211 2
(0.276803 0.360106 0.202911 0.16018) 68 67 1
(0.235519 0.162261 0.382241 0.219979) 0 0 2
(0.568239 0.0147943 0.215243 0.201725) 4081 8168 2
(0.571244 0.034764 0.214645 0.179348) 5782 11545 2
(0.543769 0.227071 0.106637 0.122523) 5849 11678 1
(0.12575 0.120317 0.437197 0.316737) 5442 10870 2
(0.38771 0.123048 0.183484 0.305758) 6469 12775 2
(0.478548 0.259153 0.182445 0.0798546) 6334 12506 1
(0.077707 0.461559 0.383389 0.0773451) 6336 12513 1
(0.225002 0.383803 0.231658 0.159537) 6275 12389 1
(0.406692 0.29792 0.057822 0.237566) 6487 12813 1
(0.381736 0.0305568 0.278487 0.30922) 5579 11007 2
(0.244413 0.379295 0.0820383 0.294254) 5990 11826 1
(0.334598 0.334171 0.311659 0.0195721) 5854 11554 1
(0.206419 0.398387 0.0841462 0.311048) 5993 11832 1
(0.543833 0.227326 0.0651557 0.163685) 6145 12131 1
(0.0329889 0.292842 0.481986 0.192183) 6000 11846 2
(0.869673 0.061883 0.00257737 0.0658668) 6007 11857 2
(0.272031 0.364297 0.0594786 0.304194) 6020 11884 1
(0.816614 0.0917405 0.0826264 0.00901957) 6029 11904 1
(0.612772 0.193407 0.0215156 0.172305) 5728 11303 1
(0.825732 0.00864832 0.0785308 0.0870893) 6043 11930 2
(0.153951 0.42285 0.0168083 0.406391) 5732 11311 1
(0.778572 0.108584 0.097997 0.0148473) 5757 11361 1
(0.374262 0.231185 0.316269 0.078284) 5609 11202 2
(0.216842 0.179346 0.210284 0.393528) 5529 10908 2
(0.444945 0.278035 0.0574719 0.219548) 5106 10071 1
(0.599909 0.0781406 0.12214 0.199811) 5471 10794 2
(0.366812 0.279589 0.318983 0.0346165) 5455 10896 2
(0.173642 0.413626 0.15062 0.262113) 5333 10520 1
(0.124849 0.43482 0.412167 0.0281634) 4627 9117 1
(0.301591 0.349477 0.0940178 0.254914) 5190 10236 1
(0.693495 0.05731 0.154096 0.0950999) 5201 10392 2
(0.40603 0.210117 0.297966 0.0858873) 3675 7230 2
(0.0564332 0.163005 0.306149 0.474412) 5204 10263 2
(0.188326 0.406864 0.359256 0.0455536) 5143 10143 1
(0.498835 0.247737 0.099756 0.153672) 5073 10138 1
(0.452539 0.00264172 0.271096 0.273723) 5008 9875 2
(0.21058 0.219444 0.167951 0.402025) 5084 10025 2
(0.448075 0.276107 0.0538574 0.22196) 4854 9569 1
(0.0699261 0.400168 0.469917 0.059989) 4786 9568 2
(0.4577 0.271409 0.166461 0.10443) 4633 9132 1
(0.222266 0.38939 0.296852 0.0914922) 4637 9138 1
(0.126791 0.0307682 0.436551 0.405891) 4639 9144 2
(0.611029 0.191686 0.128769 0.0685159) 4669 9201 1
(0.0817218 0.313564 0.463265 0.141449) 4517 9034 2
(0.609301 0.0984076 0.0957419 0.19655) 4446 8758 2
(0.47991 0.260185 0.0791772 0.180728) 4536 8940 1
(0.302225 0.348868 0.157304 0.191604) 4396 8660 1
(0.320217 0.336928 0.188742 0.154113) 4326 8655 1
(0.79215 0.103924 0.102867 0.00105991) 4171 8215 1
(0.0170917 0.269765 0.504942 0.2082) 4273 8550 2
(0.152996 0.422956 0.262897 0.161151) 4032 7937 1
(0.0462917 0.466486 0.47692 0.0103017) 4193 8256 1
(0.485417 0.0303929 0.257333 0.226857) 3883 7643 2
(0.600645 0.0756306 0.123824 0.1999) 3888 7651 2
(0.00847727 0.483251 0.350301 0.157971) 3930 7734 1
(0.0896446 0.454851 0.0870278 0.368477) 3776 7429 1
(0.0582011 0.468041 0.222226 0.251532) 3696 7404 1
(0.00314111 0.496448 0.385473 0.114938) 3711 7434 1
(0.155597 0.263748 0.426749 0.153906) 3642 7297 2
(0.0937727 0.452265 0.169019 0.284943) 3562 7004 1
(0.398432 0.30066 0.0247275 0.276181) 3587 7054 1
(0.553299 0.0939162 0.224916 0.127869) 3505 7025 2
(0.331046 0.131109 0.335648 0.202198) 3411 6838 2
(0.333374 0.332393 0.153685 0.180549) 3342 6569 1
(0.486023 0.253595 0.00923775 0.251145) 3295 6608 1
(0.600071 0.199455 0.098038 0.102436) 3287 6460 1
(0.913196 0.0428361 0.0043601 0.0396076) 3229 6477 1
(0.619269 0.186879 0.192272 0.00157921) 3146 6312 2
(0.169721 0.414306 0.234265 0.181708) 3068 6025 1
(0.6993 0.150079 0.0609808 0.0896406) 3006 5900 1
(0.418944 0.286398 0.247796 0.0468621) 2962 5812 1
(0.310544 0.189441 0.345006 0.155008) 21341 42192 2
(0.85898 0.0445786 0.0259314 0.0705099) 20804 41118 2
(0.687894 0.156053 0.135454 0.0205985) 19952 39417 1
(0.116089 0.0958409 0.346055 0.442016) 19101 37718 2
(0.0924884 0.449484 0.176074 0.281954) 8399 37769 1
(0.00312363 0.0683761 0.430019 0.498481) 8107 16027 2
(0.689233 0.155571 0.122736 0.0324594) 7757 15332 1
(0.406859 0.297503 0.202773 0.0928654) 7912 15640 1
(0.550242 0.13488 0.0884682 0.22641) 7763 15343 2
(0.0785282 0.0171812 0.443634 0.460657) 7841 15499 2
(0.132622 0.253124 0.177235 0.43702) 7781 15379 2
(0.329687 0.334624 0.0394369 0.296253) 7647 15113 1
(0.0126301 0.495892 0.0395218 0.451956) 7495 14814 1
(0.399099 0.182214 0.121193 0.297494) 7360 14544 2
(0.501846 0.246177 0.0199904 0.231987) 7304 14567 1
(0.241257 0.377087 0.182756 0.1989) 7236 14297 1
(0.535129 0.23283 0.0773273 0.154714) 7182 14191 1
(0.192111 0.37996 0.402013 0.0259167) 7084 13998 2
(0.669896 0.164817 0.157769 0.00751831) 7056 14075 1
(0.309316 0.190715 0.152048 0.347921) 33336 66136 2
(0.34901 0.117608 0.207887 0.325495) 31965 63400 2
(0.0396908 0.480255 0.40225 0.0778036) 30835 61144 1
(0.420233 0.289568 0.0336283 0.256571) 28590 56662 1
(0.170509 0.413015 0.295294 0.121183) 28611 57260 1
(0.579654 0.208726 0.174969 0.0366518) 26636 52760 1
(0.227606 0.280758 0.388608 0.103028) 25532 51113 2
(0.559076 0.220274 0.172589 0.0480622) 25527 50549 1
(0.116022 0.192473 0.444251 0.247254) 25256 50562 2
(0.161664 0.169869 0.418398 0.250069) 24979 49455 2
(0.344739 0.240217 0.330477 0.084568) 24129 48312 2
(0.0256908 0.487155 0.413477 0.0736779) 24144 47786 1
(0.791326 0.104814 0.0832094 0.0206503) 24126 47749 1
(0.0570901 0.471885 0.323658 0.147367) 42816 85063 1
(0.0902179 0.218273 0.23477 0.456738) 41418 82272 2
(0.0323827 0.356941 0.126428 0.484248) 42554 84540 2
(0.116811 0.309056 0.445065 0.129068) 41991 83972 2
(0.418095 0.290112 0.25896 0.0328328) 40607 80653 1
(0.17444 0.406657 0.405148 0.013755) 40044 79528 1
(0.0677708 0.462577 0.132811 0.336842) 40036 79512 1
(0.00149872 0.400607 0.50323 0.0946641) 39479 78957 2
(0.0324607 0.0401174 0.446189 0.481233) 39481 78404 2
(0.0591674 0.176257 0.470416 0.29416) 38941 77329 2
(0.174226 0.412324 0.300589 0.112862) 38086 75620 1
(0.419807 0.288463 0.264502 0.0272271) 37816 75637 1
(0.31221 0.343682 0.339803 0.00430466) 37798 75601 1
(0.0837835 0.355319 0.0995404 0.461357) 37517 74483 2
(0.404472 0.0995315 0.297764 0.198232) 37539 74530 2
(0.139886 0.0117557 0.429941 0.418418) 37244 73941 2
(0.262689 0.366554 0.271911 0.0988464) 36137 72285 1
(0.691388 0.0303989 0.122884 0.15533) 36144 71743 2
(0.0491231 0.45661 0.230667 0.2636) 35335 70684 1
(0.86988 0.044295 0.020434 0.0653906) 34745 68949 2
(0 0.962926 0.0370737 7.31494e-150) 47338 519923 1
(0.377014 0.22506 0.0830232 0.314903) 52606 104607 2
(8.97477e-05 0.493813 0.186699 0.319398) 52335 104623 1
(0.176692 0.212801 0.198701 0.411806) 51745 102889 2
(0.284368 0.0428661 0.361388 0.311378) 52075 104104 2
(0.0315657 0.484002 0.0796107 0.404822) 51473 102348 1
(0.196655 0.398646 0.0721666 0.332532) 50632 101223 1
(0.393536 0.217718 0.082002 0.306744) 50097 99598 2
(0.290345 0.354828 0.161044 0.193783) 49824 99056 1
(0.254866 0.373773 0.0645668 0.306794) 49812 99032 1
(0.616463 0.189389 0.0228567 0.171291) 48698 97362 1
(0.315486 0.338779 0.318032 0.027703) 48681 96771 1
(0.269796 0.253365 0.110407 0.366431) 46469 92356 2
(0.238385 0.379623 0.308108 0.073883) 46169 92313 1
(0.69714 0.0930917 0.0585644 0.151204) 45611 90643 2
(0.629174 0.0765934 0.185089 0.109144) 45047 90073 2
(0.647655 0.0124081 0.163765 0.176173) 45362 90146 2
(0.147801 0.425973 0.170734 0.255492) 44774 88972 1
(0.167009 0.344918 0.416669 0.0714043) 44778 88982 2
(0.27322 0.0124444 0.34974 0.364596) 44504 88433 2
(0.411858 0.0333597 0.294363 0.260419) 43659 87302 2
(0 3.35288e-151 0.46303 0.53697) 55708 370901 2
(0 0.255222 0.744778 4.31514e-151) 62125 534710 1
(0 0.448648 0.551352 3.18949e-150) 56824 529409 1
(0.508116 0.0290132 0.216489 0.246381) 62350 124061 2
(0.59859 0.0289502 0.170999 0.201461) 62348 124056 2
(0.0590353 0.146074 0.470559 0.324332) 62648 124658 2
(0.023475 0.488226 0.0322937 0.456005) 62362 124087 1
(0.000644167 0.499933 0.191386 0.308037) 61796 122955 1
(0.0033648 0.212589 0.282931 0.501116) 62086 123533 2
(0.574286 0.0305129 0.213442 0.181759) 61803 122971 2
(0.1657 0.0149562 0.40196 0.417384) 61535 122433 2
(0.306439 0.0617069 0.283997 0.347857) 61236 121836 2
(0.0760389 0.372021 0.0899593 0.461981) 60991 121348 2
(0.145714 0.414109 0.427143 0.0130345) 60715 120799 2
(0.164822 0.417054 0.370275 0.0478487) 58422 116219 1
(0.0660607 0.468586 0.432516 0.0328367) 59571 118513 1
(0.481057 0.238175 0.267978 0.0127896) 58763 117456 2
(0.156069 0.0918188 0.422448 0.329665) 58743 116862 2
(0.648346 0.175477 0.038202 0.137974) 57894 115164 1
(0.251366 0.120135 0.375285 0.253214) 57904 115187 2
(0.0452764 0.477504 0.127388 0.349831) 57047 113474 1
(0.225463 0.00683742 0.386629 0.38107) 57060 114056 2
(0.254393 0.372804 0.197354 0.175449) 56792 112967 1
(0.346068 0.0708066 0.255891 0.327235) 56493 112367 2
(0.665829 0.165454 0.121445 0.0472727) 55072 110087 1
(0.729051 0.0387623 0.0962502 0.135936) 54824 109035 2
(0.0625192 0.46921 0.150214 0.318057) 54560 108511 1
(0.231225 0.31935 0.384388 0.065038) 54569 108529 2
(0.532916 0.119183 0.233562 0.114339) 54266 107924 2
(0.802522 0.0783709 0.020675 0.098432) 53424 106241 2
(0.212193 0.392624 0.185999 0.209184) 53139 105671 1
(0 0.722804 0.277196 3.94804e-150) 66031 538616 1
(0 0.347813 0.652187 1.85052e-151) 71332 543917 1
(0.648743 0.115368 0.175401 0.060488) 72612 145104 2
(0.0151713 0.0111782 0.492844 0.480806) 72435 144751 2
(0.0900146 0.454908 0.453461 0.00161649) 71841 143565 1
(0.280988 0.359156 0.0483922 0.311464) 72131 143590 1
(0.0387203 0.394771 0.485941 0.0805672) 72133 144148 2
(0.0476036 0.0810542 0.478331 0.393011) 72150 144182 2
(0.660751 0.052417 0.117475 0.169357) 72130 143586 2
(0.472509 0.260254 0.00991017 0.257327) 71292 142469 1
(0.0375721 0.30672 0.484834 0.170874) 71282 142449 2
(0.693643 0.151815 0.0470651 0.107477) 71577 143038 1
(0.54377 0.227774 0.112029 0.116427) 70717 141321 1
(0.799156 0.0989242 0.095998 0.00592157) 70716 140762 1
(0.750106 0.124954 0.118164 0.00677553) 70740 141367 1
(0.840144 0.0437793 0.0797348 0.0363416) 70732 140797 2
(0.61471 0.191846 0.0600825 0.133362) 70735 140800 1
(0.380242 0.242239 0.309276 0.0682437) 70169 139673 2
(0.216569 0.302122 0.391735 0.0895735) 70464 140262 2
(0.0254307 0.486352 0.445056 0.0431613) 69617 138569 1
(0.261397 0.370592 0.234344 0.133667) 69618 138571 1
(0.124624 0.439258 0.179797 0.256321) 68485 136311 1
(0.754268 0.00451945 0.123117 0.118096) 69370 138632 2
(0.672363 0.163505 0.130147 0.0339851) 68209 136314 1
(0.0176324 0.491184 0.469694 0.0214895) 68237 135816 1
(0.277108 0.357882 0.0637479 0.301262) 68222 136340 1
(0.705243 0.120555 0.147229 0.0269731) 67344 134033 2
(0.236583 0.0156404 0.366068 0.381708) 68239 135818 2
(0.188158 0.403371 0.272122 0.136349) 67374 134090 1
(0.0840097 0.455629 0.193901 0.266461) 66813 133527 1
(0.131909 0.427835 0.152897 0.287359) 67116 134132 1
(0.129163 0.347039 0.438767 0.0850304) 67110 134120 2
(0.157386 0.359829 0.421306 0.0614792) 66531 132410 2
(0.0282968 0.481872 0.272109 0.217722) 66276 131898 1
(0.245096 0.297369 0.377717 0.0798182) 65995 131340 2
(0.259551 0.365264 0.0199424 0.355242) 65720 131345 1
(0.097229 0.179133 0.451311 0.272327) 65704 130759 2
(0.0247846 0.487479 0.0121663 0.47557) 65140 129633 1
(0.654788 0.172606 0.0469156 0.12569) 64890 129132 1
(0.432704 0.28108 0.00899405 0.277222) 64586 129081 1
(0.00779201 0.283053 0.50318 0.205975) 64616 129141 2
(0.0500239 0.475099 0.0278486 0.447029) 64304 127962 1
(0.501179 0.18992 0.268402 0.0404981) 64073 128057 2
(0.101677 0.446938 0.221023 0.230362) 64038 127430 1
(0.838322 0.0732719 0.0808417 0.00756484) 63760 126878 2
(0.307222 0.347111 0.233033 0.112634) 63189 125736 1
(0.64675 0.17566 0.085776 0.0918137) 63191 125742 1
(0.76222 0.119421 0.0117119 0.106647) 62925 125765 1
(0 1.06148e-152 0.0899971 0.910003) 81376 396569 2
(0 1.19058e-149 0.176188 0.823812) 81097 396290 2
(0 0.657395 0.342605 1.37944e-150) 79981 552566 1
(0 3.4872e-150 0.431178 0.568822) 81655 396848 2
(0 4.07142e-153 0.495991 0.504009) 81097 396290 2
(0 9.09928e-150 0.502389 0.497611) 77749 392942 2
(0 7.80185e-150 0.841192 0.158808) 79144 394337 2
(0 0.863727 0.136273 2.41286e-150) 73564 546149 1
(0 7.36794e-150 0.230429 0.769571) 74959 390152 2
(0 1.12464e-152 0.998315 0.00168526) 74959 390152 2
(0 0.0512853 0.948715 3.00599e-150) 81934 554519 1
(0 0.250391 0.749609 1.82328e-150) 75517 548102 1
(0 1.58434e-149 0.607458 0.392542) 79144 394337 2
(0 0.757783 0.242217 3.61989e-150) 81376 553961 1
(0 0.332492 0.667508 1.3031e-150) 79144 551729 1
(0 0.510534 0.489466 4.15887e-150) 75238 547823 1
(0 7.74642e-151 0.58045 0.41955) 77470 392663 2
(0 3.554e-151 0.0939925 0.906008) 73006 388199 2
(0 2.0074e-151 0.250209 0.749791) 73285 388478 2
(0 0.667139 0.332861 1.44739e-150) 82492 555077 1
(0 2.61481e-150 0.425836 0.574164) 79144 394337 2
(0 0.426267 0.573733 8.27379e-150) 76633 549218 1
(0 1.46008e-151 0.54516 0.45484) 75517 390710 2
(0 0.929222 0.0707777 5.80869e-150) 79144 551729 1
(0 2.72371e-150 0.206899 0.793101) 80260 395453 2
(0 1.31324e-150 0.476568 0.523432) 78307 393500 2
(0 1.87005e-150 0.0520945 0.947905) 80818 396011 2
(0 1.3127e-149 0.314479 0.685521) 81376 396569 2
(0 5.0726e-151 0.146076 0.853924) 73006 388199 2
(0 1.33843e-150 0.130131 0.869869) 81934 397127 2
(0 1.68917e-149 0.906501 0.0934995) 80539 395732 2
(0 0.866369 0.133631 7.20968e-151) 75796 548381 1
(0 0.469313 0.530687 2.49134e-150) 80539 553124 1
(0 0.335657 0.664343 5.47634e-150) 82492 555077 1
(0 1.56474e-151 0.918833 0.0811673) 82213 397406 2
(0 1.15817e-152 0.862811 0.137189) 75238 390431 2
(0 0.871873 0.128127 1.69156e-26) 81655 554240 1
(0 7.48817e-152 0.452564 0.547436) 81376 396569 2
(0 7.32963e-70 0.510867 0.489133) 82213 397406 2
(0 6.0761e-152 0.309369 0.690631) 75796 390989 2
(0.3535 0.322495 0.191741 0.132264) 81841 163529 1
(0.184145 0.32063 0.0843242 0.410901) 82436 164160 2
(0.23383 0.0782929 0.305263 0.382614) 82165 163620 2
(0.0099569 0.239783 0.498411 0.251849) 82455 164755 2
(0.512611 0.243397 0.0238773 0.220114) 81295 161885 1
(0.614793 0.0856157 0.192557 0.107034) 82453 164197 2
(0.164908 0.407486 0.0538565 0.373749) 82210 163710 1
(0.364032 0.316635 0.0468509 0.272482) 82471 164230 1
(0.217661 0.391448 0.179136 0.211755) 82176 163642 1
(0.374019 0.304385 0.296732 0.0248639) 82204 163700 1
(0.0554109 0.465612 0.160442 0.318535) 81637 162565 1
(0.390517 0.304851 0.187349 0.117283) 81053 161402 1
(0.0348389 0.483115 0.269362 0.212684) 81356 162005 1
(0.714048 0.0692809 0.142973 0.0736978) 80197 159693 2
(0.23224 0.382359 0.203547 0.181854) 80771 161393 1
(0.501568 0.250086 0.115707 0.13264) 81074 161444 1
(0.20431 0.399523 0.205928 0.190239) 80195 159687 1
(0.439846 0.12006 0.281968 0.158125) 80790 161431 2
(0.466301 0.263184 0.0194563 0.25106) 80226 160305 1
(0.0057164 0.431334 0.497193 0.0657569) 79938 159176 2
(0.568269 0.215803 0.128771 0.0871571) 80232 159761 1
(0.57066 0.105173 0.21467 0.109497) 80241 159781 2
(0.154789 0.314654 0.422456 0.108101) 79656 158613 2
(0.364416 0.317052 0.150301 0.168231) 79657 158615 1
(0.24864 0.25113 0.12455 0.37568) 79415 158130 2
(0.579027 0.210626 0.0259807 0.184366) 79098 157497 1
(0.417282 0.291359 0.186784 0.104574) 79405 158110 1
(0.411085 0.0828447 0.210668 0.295403) 79385 158070 2
(0.174056 0.255276 0.157066 0.413601) 77923 155151 2
(0.248907 0.372659 0.1232 0.255233) 79104 157508 1
(0.285997 0.353559 0.174475 0.18597) 78533 156925 1
(0.26776 0.065945 0.300466 0.365828) 79119 157538 2
(0.284456 0.00865059 0.360132 0.346761) 78848 157000 2
(0.438006 0.281242 0.106578 0.174174) 77388 154085 1
(0.0594685 0.232283 0.236882 0.471367) 77092 153491 2
(0.63104 0.184745 0.0270105 0.157205) 77705 154718 1
(0.504651 0.0019613 0.119848 0.37354) 77470 392663 2
(0.455071 0.272053 0.135121 0.137755) 76841 152990 1
(0.874523 0.0618231 0.0215448 0.0421091) 77169 154202 1
(0.300704 0.260845 0.0890055 0.349446) 77158 153624 2
(0.196398 0.401263 0.0877204 0.314619) 76870 153049 1
(0.139783 0.261804 0.43006 0.168354) 77157 153624 2
(0.41177 0.082893 0.211119 0.294218) 77161 153629 2
(0.190822 0.4047 0.175854 0.228625) 76605 152520 1
(0.320736 0.24423 0.339043 0.0959909) 76300 151913 2
(0.597062 0.201502 0.192447 0.00898941) 76044 151400 1
(0.319122 0.339684 0.299489 0.0417054) 75783 150879 1
(0.114754 0.334572 0.443625 0.107049) 75160 150191 2
(0.377968 0.223758 0.0861398 0.312134) 75457 150227 2
(0.261278 0.244035 0.120536 0.374151) 75771 150854 2
(0.20788 0.0610056 0.335092 0.396022) 75471 150256 2
(0.433431 0.282745 0.127084 0.156741) 74852 149019 1
(0.409541 0.295526 0.0091992 0.285734) 75496 150305 1
(0.591276 0.202079 0.073179 0.133466) 75225 149764 1
(0.504763 0.245223 0.105396 0.144618) 75217 149748 1
(0.256285 0.366841 0.100324 0.276549) 74392 148101 1
(0.414972 0.212652 0.0789687 0.293408) 73808 146936 2
(0.206082 0.397427 0.359833 0.0366584) 73521 146363 1
(0.622966 0.107881 0.0788027 0.190351) 73517 146354 2
(0 0.257478 0.742522 3.23807e-151) 86398 558983 1
(0 2.66249e-150 0.961215 0.0387853) 89188 404381 2
(0 0.527582 0.472418 3.77179e-150) 87514 560099 1
(0 0.379309 0.620691 9.8384e-150) 87235 559820 1
(0 6.44924e-151 0.97947 0.0205303) 87793 402986 2
(0 2.4024e-150 0.0958963 0.904104) 84445 399638 2
(0 0.381254 0.618746 2.13224e-152) 87793 560378 1
(0 0.14133 0.85867 3.21063e-150) 91420 564005 1
(0 0.696044 0.303956 4.61467e-150) 88072 560657 1
(0 0.248889 0.751111 4.3058e-150) 90025 562610 1
(0 1.74943e-151 0.576206 0.423794) 91141 406334 2
(0 0.939534 0.0604658 7.8766e-150) 87235 559820 1
(0 0.779833 0.220167 1.45101e-150) 85840 558425 1
(0 1.30567e-149 0.564495 0.435505) 85840 401033 2
(0 9.1658e-153 0.234474 0.765526) 90025 405218 2
(0 0.240611 0.759389 1.11851e-150) 86956 559541 1
(0 0.783234 0.216766 1.90548e-150) 87793 560378 1
(0 6.07502e-151 0.101185 0.898815) 87793 402986 2
(0 0.897257 0.102743 3.88631e-151) 84445 557030 1
(0 0.493508 0.506492 3.75007e-150) 82771 555356 1
(0 2.11324e-151 0.699993 0.300007) 88072 403265 2
(0 2.81842e-150 0.921525 0.0784753) 90862 406055 2
(0 9.24727e-151 0.441143 0.558857) 88351 403544 2
(0 0.775659 0.224341 2.55711e-150) 87235 559820 1
(0 1.92019e-150 0.431103 0.568897) 91699 406892 2
(0 7.87621e-152 0.519548 0.480452) 90025 405218 2
(0 4.24266e-150 0.460351 0.539649) 88630 403823 2
(0 6.95114e-150 0.162487 0.837513) 83050 398243 2
(0 0.6089 0.3911 4.89622e-150) 86956 559541 1
(0 0.698133 0.301867 2.25296e-150) 86119 558704 1
(0 9.6334e-151 0.2206 0.7794) 82771 397964 2
(0 0.522092 0.477908 9.8101e-150) 91978 564563 1
(0 0.596409 0.403591 4.28898e-150) 89188 561773 1
(0 2.63081e-150 0.836612 0.163388) 91699 406892 2
(0 2.44885e-150 0.659411 0.340589) 84445 399638 2
(0 2.89792e-151 0.876024 0.123976) 87793 402986 2
(0 3.42848e-151 0.68449 0.31551) 85282 400475 2
(0 0.871008 0.128992 4.27891e-152) 83887 556472 1
(0 0.34395 0.65605 6.77713e-150) 91978 564563 1
(0 2.42444e-150 0.504034 0.495966) 88072 403265 2
(0 6.92591e-150 0.743614 0.256386) 86677 401870 2
(0 1.70101e-150 0.535306 0.464694) 89188 404381 2
(0 1.19347e-150 0.833073 0.166927) 88072 403265 2
(0 0.241317 0.758683 2.97177e-151) 91699 564284 1
(0 0.582279 0.417721 4.09492e-151) 91141 563726 1
(0 8.08163e-150 0.9129 0.0870997) 90304 405497 2
(0 0.373241 0.626759 5.1866e-151) 86677 559262 1
(0 5.62538e-152 0.363514 0.636486) 89188 404381 2
(0 0.626409 0.373591 4.46267e-150) 88630 561215 1
(0 0.286085 0.713915 2.43781e-151) 92257 564842 1
(0 0.480918 0.519082 1.29225e-151) 89188 561773 1
(0 0.659015 0.340985 6.84762e-150) 83050 555635 1
(0 0.0831246 0.916875 4.08637e-151) 88072 560657 1
(0 4.96843e-151 0.516917 0.483083) 87235 402428 2
(0 0.506311 0.493689 1.77832e-152) 91420 564005 1
(0 0.199022 0.800978 6.50301e-18) 84166 556751 1
(0 9.88685e-151 0.732349 0.267651) 91978 407171 2
(0 1.8535e-150 0.311808 0.688192) 88630 403823 2
(0 4.04865e-151 0.699028 0.300972) 87235 402428 2
(0 5.96956e-150 0.474313 0.525687) 87235 402428 2
(0 0.591606 0.408394 8.73937e-150) 89188 561773 1
(0 0.304485 0.695515 2.34459e-152) 90862 563447 1
(0 8.03882e-150 0.19875 0.80125) 83887 399080 2
(0 4.801e-150 0.321998 0.678002) 91699 406892 2
(0 2.4777e-150 0.406968 0.593032) 90025 405218 2
(0 1.03238e-50 0.815429 0.184571) 91141 406334 2
(0 0.860566 0.139434 1.80315e-150) 90304 562889 1
(0 5.83359e-151 0.833249 0.166751) 85561 400754 2
(0 4.45412e-154 0.674463 0.325537) 87793 402986 2
(0 0.212089 0.787911 6.32381e-151) 85003 557588 1
(0.618704 0.102117 0.191445 0.0877347) 92155 184120 2
(0.107479 0.447732 0.185739 0.25905) 91908 183071 1
(0 0.778584 0.221416 1.60173e-08) 86956 559541 1
(0.31781 0.340906 0.0463471 0.294936) 90767 180792 1
(0.628926 0.18418 0.0411954 0.145698) 92220 183693 1
(0.488089 0.0730959 0.429785 0.00902981) 92257 564842 1
(0.250426 0.00377811 0.371436 0.37436) 91948 183150 2
(0.0139688 0.0249077 0.467362 0.493761) 91384 182024 2
(0.280194 0.360004 0.350609 0.00919323) 91397 182607 1
(0.384066 0.302702 0.0646941 0.248538) 91397 182607 1
(0.00414467 0.496069 0.173338 0.326449) 90536 180888 1
(0.733718 0.13359 0.0869752 0.045717) 90818 180897 1
(0.122107 0.439363 0.181595 0.256935) 91131 181522 1
(0.941698 0.00815904 0.0280625 0.0220804) 91112 181484 2
(0.311691 0.343077 0.193905 0.151327) 90845 180949 1
(0.845292 0.0740739 0.0444232 0.0362107) 90852 181519 1
(0.0566137 0.306991 0.150035 0.486361) 90573 180405 2
(0.597446 0.0894983 0.11325 0.199805) 90569 180398 2
(0.0912258 0.45438 0.272953 0.181441) 90266 179793 1
(0.444578 0.123241 0.336071 0.0961099) 90582 180980 2
(0.0314678 0.483899 0.385649 0.0989846) 90559 180380 1
(0.352173 0.0738607 0.32448 0.249486) 88824 177470 2
(0.443719 0.27703 0.249931 0.0293204) 89704 178673 1
(0.141789 0.256722 0.432258 0.169231) 89705 179229 2
(0.224235 0.35529 0.021341 0.399135) 90012 179285 2
(0.156499 0.405448 0.0162253 0.421828) 88856 176978 2
(0.839488 0.000252829 0.0803304 0.079929) 89719 178703 2
(0.540454 0.223611 0.0890961 0.146838) 89737 179293 1
(0.245257 0.376085 0.173826 0.204832) 88277 175821 1
(0.233702 0.381946 0.0415794 0.342773) 89444 178151 1
(0.424562 0.285829 0.124712 0.164897) 89169 177603 1
(0.241316 0.288116 0.384194 0.0863742) 88883 177588 2
(0.559204 0.140401 0.0810487 0.219347) 88591 176449 2
(0.0529626 0.47248 0.179627 0.294931) 88315 175898 1
(0.323655 0.334756 0.210979 0.13061) 88609 177041 1
(0.116491 0.185459 0.255448 0.442603) 87425 174120 2
(0.464854 0.142536 0.269901 0.122709) 88036 175897 2
(0.456489 0.000615727 0.270442 0.272454) 88343 175953 2
(0.452313 0.184001 0.0892271 0.274459) 86556 172386 2
(0.291816 0.113568 0.35609 0.238526) 86594 173018 2
(0.0306002 0.15756 0.323675 0.488165) 87491 174252 2
(0.346766 0.253909 0.0759123 0.323413) 87218 173708 2
(0.226015 0.388371 0.0553911 0.330223) 86642 172557 1
(0.00968533 0.195812 0.300183 0.494319) 86644 172562 2
(0.468253 0.230066 0.0364233 0.265258) 86067 171410 2
(0.393453 0.305202 0.139515 0.16183) 86377 172029 1
(0.432557 0.28259 0.232391 0.0524622) 86363 172001 1
(0.255209 0.370313 0.137149 0.237329) 86077 171429 1
(0.903449 0.0289193 0.0187723 0.0488599) 86085 171445 2
(0.32029 0.339704 0.0170365 0.322969) 85505 170288 1
(0.914853 0.0409762 0.0127202 0.0314501) 86109 172050 1
(0.237154 0.379321 0.056942 0.326583) 85807 170891 1
(0.11335 0.440514 0.298669 0.147468) 85503 170283 1
(0.792853 0.0158982 0.103927 0.0873214) 85808 170895 2
(0.356453 0.227943 0.0938304 0.321774) 85554 170386 2
(0.1391 0.429049 0.298539 0.133312) 84946 169728 1
(0.661312 0.168779 0.000448886 0.169459) 84981 169242 2
(0.173543 0.0971461 0.413116 0.316195) 84681 169199 2
(0.785124 0.108195 0.0517204 0.0549615) 84710 168703 1
(0.0781321 0.460983 0.0298698 0.431015) 84407 168096 1
(0.585685 0.208466 0.192242 0.0136068) 84105 168049 1
(0.170403 0.405292 0.209149 0.215157) 84435 168151 1
(0.161004 0.415718 0.360613 0.0626648) 84122 167526 1
(0.0125486 0.492384 0.243941 0.251127) 83548 166383 1
(0.109627 0.0939755 0.446798 0.3496) 83291 166424 2
(0.0192794 0.476058 0.218618 0.286044) 83320 166482 1
(0.384498 0.30582 0.196088 0.113595) 83292 166426 1
(0.32481 0.334206 0.238611 0.102373) 83276 165837 1
(0.462645 0.0170646 0.268995 0.251296) 82968 165779 2
(0.239596 0.182079 0.380202 0.198124) 83036 165361 2
(0 5.54447e-150 0.890848 0.109152) 96721 411914 2
(0 0.836408 0.163592 3.73421e-150) 98953 571538 1
(0 8.03923e-150 0.724717 0.275283) 99511 414704 2
(0 2.09487e-150 0.908638 0.0913615) 102022 417215 2
(0 6.08179e-150 0.563366 0.436634) 93931 409124 2
(0 5.83789e-150 0.0253875 0.974612) 98953 414146 2
(0 5.06527e-150 0.00133837 0.998662) 93373 408566 2
(0 0.938966 0.0610339 5.3495e-151) 95326 567911 1
(0 0.261458 0.738542 8.00951e-152) 101464 574049 1
(0 0.460672 0.539328 2.31309e-150) 99232 571817 1
(0 1.51014e-150 0.547178 0.452822) 102022 417215 2
(0 0.549816 0.450184 2.56229e-150) 95326 567911 1
(0 3.1053e-150 0.431043 0.568957) 93931 409124 2
(0 9.47649e-150 0.822088 0.177912) 101464 416657 2
(0 1.72034e-152 0.392354 0.607646) 97000 412193 2
(0 0.106273 0.893727 2.2203e-150) 100348 572933 1
(0 0.431098 0.568902 5.19329e-151) 96163 568748 1
(0 6.84508e-150 0.275481 0.724519) 97558 412751 2
(0 0.0490238 0.950976 2.39569e-151) 98116 570701 1
(0 7.61866e-150 0.156025 0.843975) 96442 411635 2
(0 1.9352e-150 0.0411393 0.958861) 98953 414146 2
(0 4.41562e-150 0.200262 0.799738) 97837 413030 2
(0 1.0546e-150 0.00918673 0.990813) 97279 412472 2
(0 0.965412 0.0345879 3.77622e-150) 102022 574607 1
(0 2.38749e-150 0.353272 0.646728) 94489 409682 2
(0 6.99803e-150 0.640111 0.359889) 97279 412472 2
(0 0.563614 0.436386 1.18994e-150) 98953 571538 1
(0 5.53502e-151 0.85191 0.14809) 98395 413588 2
(0 3.97795e-151 0.712356 0.287644) 93094 408287 2
(0 0.552193 0.447807 3.02471e-151) 93094 565679 1
(0 6.11667e-150 0.463541 0.536459) 101185 416378 2
(0 0.616439 0.383561 3.20439e-150) 93094 565679 1
(0 0.286329 0.713671 1.34541e-150) 97837 570422 1
(0 1.75199e-151 0.723753 0.276247) 99232 414425 2
(0 3.1548e-150 0.0864774 0.913523) 100627 415820 2
(0 8.79635e-151 0.1713 0.8287) 101743 416936 2
(0 0.925486 0.0745137 1.42872e-150) 98395 570980 1
(0 0.352129 0.647871 1.60284e-149) 95605 568190 1
(0 5.56811e-151 0.997833 0.00216677) 96721 411914 2
(0 0.183549 0.816451 1.02187e-149) 93652 566237 1
(0 2.8639e-150 0.129051 0.870949) 97000 412193 2
(0 1.00157e-150 0.565024 0.434976) 98116 413309 2
(0 5.14842e-150 0.501893 0.498107) 97558 412751 2
(0 2.08384e-150 0.450054 0.549946) 97837 413030 2
(0 0.699971 0.300029 2.6059e-150) 100906 573491 1
(0 4.34326e-151 0.24232 0.75768) 102022 417215 2
(0 4.29345e-150 0.199293 0.800707) 100906 416099 2
(0 0.0178733 0.982127 8.93347e-150) 96442 569027 1
(0 0.0867234 0.913277 8.80052e-150) 98116 570701 1
(0 0.0746434 0.925357 2.84599e-150) 99511 572096 1
(0 8.28971e-150 0.206993 0.793007) 96721 411914 2
(0 0.701203 0.298797 2.61066e-150) 99511 572096 1
(0 1.97967e-150 0.761102 0.238898) 94489 409682 2
(0 7.60843e-150 0.948743 0.0512566) 93094 408287 2
(0 0.138004 0.861996 6.05624e-152) 95326 567911 1
(0 0.842224 0.157776 2.142e-151) 93931 566516 1
(0 0.0997715 0.900229 5.78193e-150) 100069 572654 1
(0 0.256544 0.743456 3.59138e-151) 100906 573491 1
(0 0.136245 0.863755 4.12483e-151) 100627 573212 1
(0 1.11205e-149 0.321186 0.678814) 93373 408566 2
(0 2.75031e-150 0.0189212 0.981079) 102022 417215 2
(0 0.0674157 0.932584 6.54747e-151) 101464 574049 1