/*--------------------------------*- C++ -*----------------------------------*\
  =========                 |
  \\      /  F ield         | OpenFOAM: The Open Source CFD Toolbox
   \\    /   O peration     | Website:  https://openfoam.org
    \\  /    A nd           | Version:  7
     \\/     M anipulation  |
\*---------------------------------------------------------------------------*/
FoamFile
{
    version     2.0;
    format      ascii;
    class       scalarField;
    location    "0.7/lagrangian/reactingCloud1";
    object      pressure;
}
// * * * * * * * * * * * * * * * * * * * * * * * * * * * * * * * * * * * * * //


2546
(
592.981
591.786
592.076
590.56
589.523
587.83
586.575
587.318
588.165
586.077
586.249
584.851
586.363
585.055
584.975
585.351
580.244
582.115
580.716
582.477
581.802
584.175
582.684
583.592
582.695
583.497
582.266
583.544
582.818
582.876
582.886
582.88
582.789
582.91
582.845
582.899
583.048
582.936
582.994
582.957
582.966
582.936
582.995
601.838
603.306
602.826
604.87
589.561
592.309
591.888
591.832
586.182
604.167
599.5
601.53
598.754
593.148
597.077
595.623
593.499
592.494
600.322
591.646
599.454
595.709
598.326
600.843
605.306
599.535
602.453
600.504
603.753
602.056
600.393
601.916
600.018
599.462
599.794
599.629
598.949
601.67
601.634
603.471
603.031
602.799
599.624
600.967
601.166
599.281
599.343
599.356
600.863
598.349
600.823
598.798
601.874
601.392
597.441
598.01
598.999
597.431
597.16
597.964
596.069
596.463
599.688
599.421
595.534
596.327
594.865
595.653
596.655
594.525
592.493
474.543
489.939
494.601
497.352
512.101
522.707
544.189
534.549
542.624
538.018
541.14
547.226
555.101
560.683
561.477
564.023
565.076
571.723
568.966
361.628
377.698
385.518
393.997
406.977
412.728
435.267
434.418
438.434
441.485
447.048
450.42
445.342
235.046
162.13
335.091
335.494
337.304
338.304
337.881
339.177
339.355
340.569
342.81
343.767
329.937
301.7
344.71
344.178
350.106
350.321
355.22
357.391
332.699
331.457
331.539
225.241
331.617
324.446
282.049
332.114
332.172
332.181
332.445
318.135
332.996
315.853
317.451
206.646
333.295
319.621
332.284
333.744
327.768
330.495
328.502
330.114
230.983
206.07
328.305
327.141
282.81
328.178
326.766
328.626
260.677
328.79
328.868
5.79684
328.113
329.46
329.436
326.531
329.692
222.608
329.364
330.098
283.225
2.83866
328.004
330.852
330.86
328.476
298.692
203.606
327.757
327.203
0.956324
327.122
246.643
323.627
325.686
327.14
321.546
320.413
239.601
326.651
174.355
164.687
326.838
312.981
323.736
273.545
327.16
320.96
323.42
179.209
327.369
211.114
327.475
323.383
4.24987
327.479
235.161
204.749
327.569
327.117
172.589
327.608
327.52
327.76
285.861
221.199
327.931
269.312
327.98
235.778
328.081
327.283
327.654
252.155
275.989
328.142
326.711
326.718
326.75
326.703
326.718
326.83
326.777
327.048
326.965
326.965
326.697
326.935
326.777
326.711
326.777
326.95
326.842
327.084
327.065
326.684
326.777
326.879
326.935
326.777
326.741
326.808
326.725
326.711
327.084
326.697
326.733
326.92
326.733
326.684
326.69
326.95
326.703
326.711
326.69
326.92
3.75874
158.337
212.67
286.495
15.8456
273.006
326.69
326.484
288.12
326.687
326.655
245.316
326.623
113.231
225.143
326.488
99.1499
325.429
315.686
258.067
325.699
326.703
237.191
244.614
326.768
239.68
326.749
297.31
1.22797
284.736
188.91
326.555
326.777
10.1003
1.51056
261.759
326.842
52.9453
326.82
324.505
281.917
323.284
326.143
326.609
187.295
326.199
326.92
15.8062
139.72
326.857
256.53
1.04521
326.923
326.95
326.938
326.997
325.371
291.925
257.221
326.616
326.58
326.601
326.604
326.598
326.646
326.598
326.551
326.594
326.57
326.554
326.604
326.625
326.625
326.57
326.608
326.598
326.598
326.646
326.678
326.594
326.559
326.591
326.604
326.546
326.57
326.587
326.673
326.608
326.619
326.678
326.54
326.58
326.546
326.646
326.598
326.633
326.655
326.54
326.594
326.612
326.58
326.594
326.546
326.554
326.567
326.612
326.58
326.587
326.536
326.58
326.673
326.594
326.604
326.551
326.651
326.54
326.587
326.604
326.604
326.58
326.559
326.655
326.546
326.57
326.554
326.567
326.629
326.598
326.637
6.53384
68.0848
326.608
8.98957
237.559
326.536
276.482
246.54
313.612
313.612
190.575
205.67
326.391
286.199
325.091
326.412
326.431
326.069
240.437
326.562
313.221
17.2205
220.544
226.086
326.283
162.672
303.904
326.507
49.767
319.907
325.073
312.32
242.054
260.83
324.182
10.3516
262.21
326.565
1.38467
17.9248
323.47
326.246
275.445
287.498
174.997
325.618
276.957
235.198
284.596
152.439
326.598
292.177
140.511
298.007
326.623
147.402
325.833
235.095
326.596
268.729
123.966
326.636
231.14
130.785
274.992
326.663
281.607
175.987
15.5991
326.65
326.353
326.087
325.981
325.086
326.494
326.087
326.51
326.439
325.373
326.038
325.086
326.439
326.494
325.373
326.329
325.775
326.392
326.276
326.212
326.373
326.087
326.246
326.304
325.086
326.475
326.304
326.087
326.175
326.518
326.518
325.49
326.518
326.246
326.038
325.69
325.242
326.175
326.425
326.353
326.503
326.329
326.212
326.276
326.246
325.595
325.086
325.595
326.373
326.212
325.981
326.353
325.981
326.475
326.518
326.439
326.494
325.85
325.595
325.69
326.51
325.086
325.373
326.087
326.485
325.981
325.242
326.465
325.69
325.595
325.49
326.212
326.453
326.373
326.475
326.53
325.85
326.439
325.85
326.53
325.49
326.439
326.485
326.465
325.086
325.92
326.373
326.475
325.595
325.775
326.175
326.246
326.453
325.92
325.85
326.518
326.425
325.92
326.465
325.85
325.086
326.212
326.409
326.175
325.373
326.518
325.086
1.18458
326.246
325.92
6.16667
15.1083
211.763
326.425
3.26816
326.087
194.329
41.8024
254.541
325.242
77.5306
325.437
325.259
135.261
117.376
236.711
246.303
158.495
325.85
102.399
324.47
210.835
98.2026
34.2339
134.685
147.774
326.065
261.837
326.087
306.971
326.113
275.974
228.459
285.698
290.488
125.192
326.276
24.2272
306.818
266.912
325.284
326.329
297.711
177.021
279.714
325.772
326.373
248.613
33.4458
326.04
23.5532
40.0035
2.32803
293.292
51.6958
302.82
153.948
218.169
194.114
265.431
225.471
324.548
247.245
26.1843
199.952
246.962
273.673
217.533
324.045
199.581
321.312
311.516
324.394
199.581
324.899
324.672
321.312
256.771
230.251
308.065
188.472
316.731
324.394
183.187
205.4
308.065
230.251
250.079
321.312
199.581
250.079
324.045
236.785
308.065
223.827
199.581
322.254
263.436
263.436
321.312
321.312
316.731
256.771
211.387
263.436
211.387
188.472
217.533
263.436
311.516
188.472
324.394
256.771
250.079
294.259
324.899
314.388
320.121
320.121
299.401
193.938
324.394
211.387
324.672
256.771
324.899
324.045
250.079
188.472
250.079
321.312
322.254
288.668
211.387
324.394
250.079
223.827
304.02
324.672
299.401
250.079
304.02
250.079
294.259
199.581
183.187
311.516
288.668
256.771
316.731
282.712
318.617
205.4
243.406
294.259
316.731
323.595
205.4
188.472
183.187
311.516
205.4
318.617
304.02
282.712
288.668
311.516
320.121
199.581
322.999
322.999
230.251
322.999
324.045
217.533
308.065
193.938
270.022
276.47
299.401
230.251
193.938
193.938
324.672
299.401
276.47
311.516
256.771
263.436
256.771
193.938
282.712
193.938
263.436
324.045
323.595
211.387
250.079
217.533
318.617
324.394
324.672
324.899
276.47
318.617
193.938
188.472
321.312
324.672
324.045
270.022
217.533
250.079
288.668
316.731
188.472
199.581
263.436
311.516
304.02
316.731
304.02
320.121
205.4
314.388
276.47
188.472
217.533
183.187
250.079
263.436
188.472
211.387
282.712
250.079
322.254
256.771
236.785
183.187
304.02
205.4
324.394
323.595
270.022
299.401
236.785
304.02
230.251
270.022
323.595
314.388
314.388
299.401
294.259
320.121
324.394
314.388
314.388
223.827
199.581
322.999
304.02
223.827
320.121
13.8376
256.771
183.187
1.95821
26.0679
12.4269
236.785
1.94357
73.6665
129.263
137.768
137.768
52.872
19.5266
1.44192
176.091
122.109
161.423
108.011
110.208
187.951
112.432
143.374
192.783
143.468
192.006
14.5008
47.3115
148.666
121.872
165.149
51.4803
189.502
139.677
171.747
206.548
217.281
198.414
208.226
174.757
80.7954
76.3332
65.3857
184.492
236.785
235.723
184.956
216.705
229.526
16.5553
80.6351
177.938
55.7134
181.032
203.222
321.312
40.7848
148.845
191.641
184.144
99.8609
172.308
81.1171
249.161
21.5809
261.968
266.655
129.959
183.477
222.707
68.8399
226.727
186.527
8.84459
205.705
230.699
12.3382
286.563
213.311
96.2092
104.757
204.081
256.058
255.668
264.562
10.0511
43.7049
201.953
149.71
2.77491
189.291
32.3426
48.0425
311.516
61.2954
85.2538
314.388
312.512
185.001
55.1757
80.3886
100.569
55.1757
288.75
51.0827
156.444
17.3138
277.503
197.573
319.759
320.121
197.573
54.9031
237.13
33.2804
32.8809
180.519
2.52558
14.7871
201.153
289.907
178.521
238.323
322.455
96.0915
194.426
301.278
21.9837
240.98
212.688
180.296
200.618
91.2676
324.899
83.3905
103.288
115.247
173.156
178.082
147.176
136.272
101.148
155.184
117.917
110.197
147.176
99.0824
132.91
147.176
168.408
88.0992
89.7764
107.809
93.3066
86.4774
147.176
163.832
132.91
136.272
178.082
159.426
103.288
151.103
139.766
120.691
93.3066
103.288
126.566
93.3066
105.507
139.766
84.9086
155.184
123.572
155.184
80.4983
84.9086
93.3066
136.272
155.184
112.675
139.766
129.677
155.184
168.408
97.0892
129.677
117.917
168.408
173.156
159.426
136.272
115.247
173.156
81.9211
115.247
120.691
88.0992
84.9086
83.3905
103.288
88.0992
120.691
95.165
97.0892
123.572
95.165
101.148
139.766
101.148
168.408
83.3905
88.0992
103.288
93.3066
139.766
93.3066
163.832
101.148
103.288
173.156
93.3066
95.165
163.832
136.272
99.0824
120.691
173.156
147.176
110.197
83.3905
95.165
81.9211
139.766
110.197
163.832
89.7764
136.272
95.165
105.507
129.677
84.9086
89.7764
139.766
86.4774
120.691
120.691
107.809
163.832
95.165
139.766
105.507
86.4774
163.832
91.5113
112.675
103.288
99.0824
132.91
95.165
101.148
132.91
139.766
89.7764
115.247
112.675
163.832
107.809
105.507
83.3905
103.288
83.3905
151.103
151.103
89.7764
168.408
89.7764
99.0824
168.408
101.148
112.675
105.507
99.0824
88.0992
173.156
112.675
159.426
139.766
107.809
103.288
117.917
120.691
136.272
159.426
95.165
112.675
163.832
159.426
115.247
84.9086
103.288
99.0824
120.691
129.677
84.9086
88.0992
107.809
173.156
163.832
139.766
95.165
83.3905
147.176
89.7764
163.832
126.566
168.408
101.148
117.917
86.4774
132.91
173.156
101.148
147.176
91.5113
136.272
178.082
112.675
163.832
101.148
107.809
83.3905
105.507
120.691
173.156
99.0824
80.4983
129.677
123.572
173.156
126.566
83.3905
168.408
139.766
123.572
126.566
147.176
117.917
101.148
97.0892
126.566
95.165
168.408
88.0992
159.426
168.408
115.247
147.176
129.677
115.247
120.691
103.288
155.184
81.9211
163.832
93.3066
115.247
99.0824
123.572
97.0892
101.148
178.082
117.917
147.176
86.4774
147.176
151.103
0.937993
105.507
120.691
4.80526
107.809
0.938165
2.83617
5.84492
3.8562
14.0128
0.937996
0.937998
23.0079
84.9086
112.675
61.3966
74.4521
22.1523
6.12917
75.4838
79.8101
93.3066
20.5618
88.0992
52.2665
71.4116
52.1597
79.8101
120.691
81.9036
55.0053
61.5773
70.7477
61.4755
73.9913
84.9086
54.6043
82.3347
85.6242
91.5113
81.9105
54.0751
79.3448
32.3957
81.6698
87.5211
85.2337
39.4768
89.2116
81.8471
87.1839
92.5322
85.2337
95.165
93.2823
94.9937
74.6352
49.565
47.5606
90.8686
44.0518
65.559
56.5698
77.5395
61.6757
89.2602
86.0093
27.9825
105.399
48.3597
50.3424
48.3597
96.702
94.4773
83.3936
49.7755
97.007
0.938028
107.212
29.3029
71.028
100.436
112.411
18.1548
94.3162
60.4956
114.967
115.247
112.675
88.8227
118.784
23.9117
126.566
95.3887
124.412
45.0078
99.4716
119.695
8.60606
125.539
126.823
132.229
117.521
66.4834
115.35
132.712
101.372
80.7884
81.6772
135.561
111.696
38.1905
103.006
124.875
138.13
112.232
57.3285
82.0243
145.3
129.358
151.103
154.884
109.702
11.3604
118.366
88.3599
97.6294
148.625
61.9255
86.1576
111.545
77.6298
131.937
93.0816
152.257
100.172
154.433
151.134
5.40515
138.387
50.0681
56.4658
51.2527
66.4479
77.7851
56.4658
59.4473
70.5832
71.6947
56.4658
69.5039
77.7851
59.4473
59.4473
54.4093
58.6734
70.5832
54.4093
59.4473
61.8956
66.4479
67.4374
76.4911
60.2417
52.4794
65.4861
67.4374
76.4911
72.8399
67.4374
53.7531
61.8956
51.8606
79.1203
53.11
61.0576
79.1203
50.6555
70.5832
62.7566
71.6947
51.2527
79.1203
61.0576
79.1203
77.7851
53.11
50.0681
75.2366
63.6414
50.0681
77.7851
64.5509
59.4473
53.11
62.7566
67.4374
56.4658
61.0576
61.0576
51.2527
58.6734
72.8399
51.2527
68.4557
53.7531
77.7851
51.2527
55.0796
75.2366
55.0796
55.0796
64.5509
59.4473
61.0576
50.6555
79.1203
69.5039
77.7851
57.9191
66.4479
70.5832
62.7566
75.2366
53.7531
75.2366
75.2366
60.2417
51.2527
57.1835
76.4911
49.49
57.9191
53.7531
57.9191
57.1835
79.1203
59.4473
59.4473
52.4794
74.0201
61.0576
51.8606
63.6414
64.5509
53.7531
50.0681
76.4911
57.9191
52.4794
69.5039
64.5509
55.7648
50.6555
70.5832
55.7648
77.7851
68.4557
66.4479
57.9191
55.0796
68.4557
63.6414
65.4861
70.5832
68.4557
65.4861
70.5832
66.4479
50.0681
61.8956
63.6414
50.6555
49.49
67.4374
59.4473
53.11
51.8606
51.8606
57.9191
53.7531
74.0201
55.7648
53.11
50.6555
59.4473
74.0201
49.49
64.5509
55.7648
75.2366
72.8399
61.8956
77.7851
60.2417
71.6947
77.7851
62.7566
59.4473
65.4861
57.1835
62.7566
52.4794
58.6734
66.4479
76.4911
77.7851
56.4658
51.8606
53.11
70.5832
64.5509
76.4911
51.2527
61.0576
57.9191
79.1203
52.4794
65.4861
57.9191
63.6414
77.7851
9.75134
0.937899
0.951824
17.3206
75.2366
12.1067
0.937904
9.28334
0.937904
0.937907
13.8427
3.05776
60.2417
48.8916
53.7531
43.7782
39.8561
21.5497
49.49
48.1138
47.9418
10.6703
6.67908
47.7551
50.0513
20.7371
11.7859
49.5175
47.2372
48.3045
37.602
23.1672
44.637
43.4181
45.7896
35.6909
40.598
49.0696
51.9643
47.9126
36.8511
52.1898
53.7531
53.5385
53.2902
3.65498
45.7496
35.998
49.1978
27.0825
49.7256
21.1374
19.1527
18.4049
55.4881
40.8052
25.6255
45.5647
57.1835
16.5663
48.087
43.9143
24.3804
49.2292
58.6484
56.6404
55.9443
57.042
29.7607
59.4473
49.2309
2.39564
58.8533
48.5493
24.7001
49.3708
52.963
59.4473
59.761
58.6844
54.2423
58.262
54.5401
29.2848
31.925
53.2056
61.6169
50.4792
56.4607
58.776
43.6592
59.0355
0.93795
62.4682
59.2505
62.372
4.55534
61.3668
66.4479
33.8232
65.2103
50.8248
65.7955
36.4936
53.5173
52.2025
68.4557
65.7832
49.0446
62.9044
1.13797
31.2165
59.0821
59.0821
66.5284
69.4659
68.4728
41.3951
48.346
69.9627
38.5106
71.6104
71.6104
71.6104
72.4224
69.5813
72.8157
73.322
27.8808
0.93797
64.6016
65.9586
72.4033
73.165
49.2097
75.7086
77.2199
26.1131
61.8518
62.4217
48.9208
47.807
41.6609
48.9208
37.9297
35.7074
38.3837
45.1473
40.7056
46.7232
42.633
43.6234
44.126
44.126
37.9297
43.1258
33.1399
46.1916
33.1399
44.126
36.1456
47.2616
45.6664
34.4108
37.479
45.1473
35.2722
45.6664
46.1916
37.0314
32.7214
38.8409
37.479
43.6234
35.7074
37.9297
37.0314
40.7056
34.84
45.1473
35.2722
36.5869
38.3837
44.126
42.1448
38.8409
39.766
33.1399
48.3599
35.7074
35.2722
41.1812
37.9297
43.1258
47.807
47.807
40.2339
48.3599
44.6339
46.7232
33.9844
34.84
41.1812
34.4108
34.84
45.6664
35.2722
33.5608
36.1456
46.1916
48.9208
35.2722
41.6609
35.2722
39.3017
37.9297
42.633
47.2616
33.1399
34.4108
35.2722
45.1473
45.1473
40.2339
36.1456
42.1448
33.5608
48.3599
33.1399
37.9297
35.7074
40.2339
37.0314
41.1812
34.4108
42.1448
44.126
41.6609
43.1258
36.1456
48.9208
39.3017
41.1812
44.6339
47.807
33.5608
40.2339
35.2722
42.633
48.3599
39.766
36.5869
41.1812
34.84
44.126
45.1473
45.1473
45.6664
37.9297
40.7056
40.7056
35.7074
44.6339
41.6609
36.5869
40.2339
34.4108
40.7056
39.3017
45.1473
37.479
35.7074
33.1399
44.6339
45.1473
33.5481
48.9208
32.7214
0.937815
39.766
47.2616
11.3854
20.4564
32.6097
11.0867
22.9562
16.5442
17.9202
12.7337
36.5869
21.4936
5.07739
28.6374
19.7757
20.4498
23.8353
18.0681
10.9678
26.7305
30.1206
0.937833
31.3976
23.1146
23.7116
24.4796
30.4489
32.299
34.3973
6.301
32.8972
41.1812
39.3017
29.3224
2.35038
31.8675
0.937835
31.5363
17.7642
34.854
34.5904
34.477
0.937836
32.2954
35.248
46.7232
8.65277
1.19737
18.2463
23.2744
34.8307
22.9391
35.1618
35.5681
27.8639
34.7903
29.4572
27.8639
33.2173
8.65277
0.937837
35.8719
35.1037
27.4303
34.9424
9.96686
45.6664
47.2616
29.193
5.55488
26.2757
27.295
34.0842
11.4932
12.2545
24.4146
8.20344
35.9193
13.6942
38.3837
30.0683
8.03477
34.6649
37.057
42.633
47.807
34.2031
18.5797
23.0993
33.9623
37.5771
32.4641
38.2169
37.8475
29.1125
3.22694
0.937849
37.9271
13.9852
22.7081
0.93785
31.5199
38.8653
41.6609
25.5121
45.6664
39.2118
31.0522
37.8581
34.808
0.937854
21.099
37.9631
20.5188
37.8581
0.937856
34.6535
35.2665
38.8771
24.8481
37.9314
39.27
38.6862
40.3373
36.4074
40.285
22.8652
36.4769
11.7584
40.9425
0.937856
20.6469
40.8021
40.6245
41.1867
0.937869
13.3836
42.4557
0.937866
41.4682
25.4553
34.3981
38.2173
41.1745
32.9318
39.054
12.8109
13.2641
28.1699
36.6236
14.7477
43.6115
43.9328
25.5023
12.4164
44.4749
38.2967
44.2873
43.0972
26.6319
38.8444
45.5685
45.5356
33.6132
41.4053
48.3599
42.5557
21.9858
47.2112
36.3401
44.8247
39.0665
6.86603
26.4943
29.4715
34.2655
41.0543
0.937885
41.9581
45.9381
47.5382
46.2722
48.8883
27.7173
48.8045
29.0456
27.058
23.2209
27.4505
20.3567
25.9094
26.2864
31.0711
27.058
22.1142
24.1524
32.3055
30.2571
21.5895
23.2209
26.6697
31.0711
25.1781
31.0711
27.4505
22.1142
27.058
22.3801
24.484
21.3211
27.8461
21.3211
22.1142
27.058
19.9378
25.9094
22.3801
26.2864
27.4505
25.1781
24.826
28.2442
21.8517
21.3211
23.8313
26.2864
19.9378
23.2209
22.9315
22.1142
23.2209
21.3211
21.3211
19.9378
22.9315
25.1781
32.3055
24.484
21.3211
19.9378
25.9094
28.6441
23.2209
20.719
21.3211
21.3211
24.826
21.0357
29.8522
27.4505
29.0456
20.3567
21.5895
19.9378
22.6518
27.058
20.3567
21.0357
28.6441
28.6441
21.8517
30.6634
24.484
29.4483
29.0456
27.4505
21.8517
21.3211
22.9315
23.5207
25.5395
29.0456
22.6518
25.5395
25.5395
23.5207
23.8313
21.5895
20.719
22.9315
21.0357
29.4483
24.826
24.1524
31.4806
26.6697
21.8517
24.826
31.4806
21.0357
27.8461
30.2571
22.3801
31.0711
21.3211
26.2864
25.5395
24.1524
23.5207
24.1524
23.2209
19.9378
21.8517
29.8522
29.4483
30.2571
26.2864
22.9315
22.3801
23.5207
19.9378
26.6697
25.9094
22.9315
23.8313
0.988161
0.937778
4.44445
1.25028
19.675
29.4483
12.4418
12.2314
10.1891
20.3393
1.06697
0.968064
0.93778
31.4806
13.1977
31.892
19.6939
0.937786
18.0516
18.3458
19.4492
18.6559
18.4655
4.7393
17.7375
12.0357
0.937787
0.937788
14.269
13.7529
19.8829
0.937863
0.937781
5.55381
15.3603
23.5207
19.889
14.071
20.213
20.3832
16.4515
19.9768
9.45597
15.0608
19.5115
22.6518
1.08224
20.9566
20.6211
1.96001
11.5115
21.8517
1.96001
16.8692
20.7153
25.5395
0.93778
15.7697
3.28562
11.7226
19.427
4.18552
11.5576
13.6588
20.2128
21.0357
16.3914
18.634
19.4696
20.0812
17.7872
15.1916
24.826
11.4458
30.6634
21.083
20.3017
20.3017
25.5395
17.4873
19.5517
3.62269
18.5802
20.8691
1.24742
20.0154
0.937978
10.6497
12.5566
21.2047
21.2837
21.019
17.7872
21.4422
20.7483
7.1217
21.494
5.59192
30.2571
5.76153
21.1785
21.8517
19.8539
21.2946
13.5465
15.2543
21.6524
16.8582
22.3801
15.3292
21.8517
16.0174
20.1553
21.8257
22.6518
17.0078
22.0874
21.4275
11.7752
14.6869
15.9421
6.71525
22.1135
22.0463
0.937779
22.0128
19.6578
10.0434
4.83051
3.44022
18.226
0.937784
11.7806
13.558
2.52171
22.3794
15.7191
0.937787
20.4142
22.2349
14.8125
19.4245
18.4396
22.0696
22.8862
18.3027
20.9412
14.1633
20.5342
21.2941
0.937971
17.5012
16.8948
0.937794
11.6211
15.4771
13.4956
22.9291
17.048
18.7407
23.0751
19.0255
18.5232
20.4463
22.7047
22.3934
19.6192
18.9549
18.2287
0.937793
17.6732
23.174
15.9612
20.1658
18.0044
23.3698
10.1135
0.937786
0.93778
9.94608
22.6645
23.8121
23.7352
20.8977
18.4411
17.0614
23.3231
1.2198
21.8768
20.7098
23.8286
0.937813
20.8977
24.1468
0.93778
0.937782
26.6697
22.8405
0.937788
23.6913
0.937785
20.7676
0.937789
0.937873
24.1496
20.7098
24.3336
19.4752
7.46271
24.3159
19.6348
23.7296
14.2232
23.7958
24.8231
0.938537
19.233
10.7822
17.2172
16.5795
23.9237
0.940918
0.949392
23.4176
25.1082
24.0174
18.1107
24.2927
24.5684
0.937795
2.50407
20.9792
12.5961
0.937958
0.937784
24.2427
22.6474
25.2114
0.937784
0.937857
0.937785
0.937784
0.937795
25.4538
0.938316
25.9061
25.4241
5.88293
16.375
0.950624
25.9083
31.4806
25.0002
24.5597
25.4817
0.937787
21.4722
22.5658
25.3901
23.0608
26.2864
23.5436
7.34154
0.937786
0.937787
26.6625
25.8245
0.937789
7.7884
20.3782
1.25263
25.2219
26.4131
26.1767
18.8122
26.6686
23.6892
18.6687
26.4825
15.5568
25.1931
27.058
15.8613
24.2892
23.074
27.058
24.2712
26.436
18.7482
20.7631
13.4745
0.937793
27.3479
27.4032
12.2369
26.6804
27.3637
27.1792
11.0025
26.3027
27.561
24.8864
18.7791
17.4759
31.0711
16.8062
18.6936
0.937796
26.7719
27.7161
4.33779
16.6161
28.6441
0.937794
11.1309
14.2183
24.7698
27.6917
13.1731
20.4262
26.6897
0.937797
0.941197
27.4064
29.3265
5.34177
29.3625
15.9607
29.0199
22.9299
28.4302
28.1023
22.3617
29.8508
29.3712
0.937803
9.63132
28.5217
14.2698
21.1297
0.937805
24.6766
28.2261
28.5925
11.6966
4.45631
23.6826
29.1552
21.2822
30.6014
29.8724
27.1531
30.9731
24.7102
0.937803
31.479
0.937806
29.246
31.4806
31.4144
15.5079
21.982
12.4716
0.937809
23.4149
28.7578
31.2788
23.6706
31.6723
32.2506
32.0052
22.1266
32.3055
25.8801
28.8703
)


// ************************************************************************* //
