/*--------------------------------*- C++ -*----------------------------------*\
  =========                 |
  \\      /  F ield         | OpenFOAM: The Open Source CFD Toolbox
   \\    /   O peration     | Website:  https://openfoam.org
    \\  /    A nd           | Version:  7
     \\/     M anipulation  |
\*---------------------------------------------------------------------------*/
FoamFile
{
    version     2.0;
    format      ascii;
    class       scalarField;
    location    "0.7/lagrangian/reactingCloud1";
    object      T;
}
// * * * * * * * * * * * * * * * * * * * * * * * * * * * * * * * * * * * * * //


2546
(
591.353
591.008
591.776
591.025
590.277
589.815
589.471
589.662
589.895
589.314
589.361
588.971
589.393
589.028
589.005
589.11
587.773
588.208
587.854
588.309
588.124
588.783
588.367
588.62
588.37
588.594
588.281
588.608
588.405
588.421
588.424
588.422
588.397
588.43
588.412
588.428
588.47
588.438
588.454
588.444
588.446
588.638
588.582
597.811
596.429
596.36
597.167
590.81
591.403
591.159
591.04
589.493
596.649
594.265
594.861
593.243
591.363
592.463
592.031
591.426
591.144
593.33
590.907
593.068
592.01
592.728
593.435
596.044
593.057
593.916
593.321
597.991
593.76
593.285
598.231
593.18
593.023
593.115
593.068
592.879
593.644
593.635
594.957
594.189
594.054
593.066
593.447
593.508
592.971
592.99
592.994
593.435
592.713
593.441
592.84
595.206
593.777
592.465
592.629
592.917
592.468
592.394
592.627
592.088
592.202
593.248
593.202
591.949
592.178
591.762
592.001
592.469
591.703
591.102
557.892
562.28
563.828
565.205
568.869
572.108
579.489
575.367
577.886
576.359
577.187
578.872
581.153
582.666
582.809
583.505
583.742
585.772
584.774
518.512
524.778
527.869
528.655
535.386
535.349
545.163
545.033
546.16
547.137
549.311
550.022
548.741
433.694
370.592
508.34
508.634
509.143
509.647
509.644
510.184
510.213
510.367
511.624
511.8
503.121
483.101
512.149
512.119
514.433
514.39
515.896
517.228
506.816
506.671
506.587
426.229
506.394
503.181
473.419
506.916
506.854
507.044
507.118
499.036
507.301
497.147
498.084
409.664
507.296
499.323
507.17
507.853
504.283
505.925
505.109
505.769
431.915
409.843
505.386
505.031
475.168
505.417
504.87
505.465
457.236
505.335
505.333
230.707
505.454
505.569
505.84
504.693
505.984
424.259
505.982
506.084
475.011
228.189
505.326
506.401
506.273
505.542
486.336
407.258
504.812
504.603
231.207
504.613
445.726
503.38
504.335
504.671
502.298
501.679
439.657
504.707
381.238
372.38
504.78
497.205
503.443
468.097
504.848
501.983
503.288
385.65
504.682
414.501
504.892
503.272
228.746
504.865
435.731
408.77
505.01
504.946
379.59
505.081
505.086
505.104
477.729
423.409
505.066
464.533
505.022
436.179
504.946
505.068
505.202
450.195
469.859
505.359
504.448
504.45
504.457
504.447
504.45
504.478
504.464
504.548
504.52
504.52
504.445
504.511
504.464
504.448
504.464
504.515
504.482
504.561
504.554
504.443
504.464
504.493
504.511
504.464
504.455
504.472
504.451
504.448
504.561
504.445
504.453
504.506
504.453
504.443
504.444
504.515
504.447
504.448
504.444
504.506
233.762
366.793
416.185
478.324
239.923
467.745
504.446
504.47
479.563
504.458
504.498
444.726
504.505
325.126
427.201
504.489
312.2
504.117
498.835
455.484
504.234
504.52
437.703
444.1
504.473
439.847
504.524
486.408
232.255
476.972
394.657
504.535
504.524
234.332
232.051
458.531
504.482
270.43
504.587
503.754
474.782
503.162
504.443
504.594
393.135
504.481
504.542
238.424
349.455
504.639
454.149
232.084
504.612
504.552
504.617
504.548
504.182
482.446
454.708
504.438
504.439
504.438
504.438
504.438
504.439
504.438
504.441
504.438
504.44
504.441
504.438
504.438
504.438
504.44
504.438
504.438
504.438
504.439
504.443
504.438
504.441
504.439
504.438
504.441
504.44
504.439
504.442
504.438
504.438
504.443
504.44
504.439
504.441
504.439
504.438
504.438
504.44
504.44
504.438
504.438
504.439
504.438
504.441
504.441
504.44
504.438
504.439
504.439
504.44
504.439
504.442
504.438
504.438
504.441
504.44
504.44
504.439
504.438
504.438
504.439
504.441
504.44
504.441
504.44
504.441
504.44
504.438
504.438
504.439
235.997
287.861
504.438
238.78
438.551
504.44
470.713
446.15
497.492
497.492
396.876
410.455
504.403
478.209
503.895
504.409
504.414
504.295
440.882
504.44
497.243
245.091
423.549
428.416
504.37
371.289
491.074
504.432
270.426
501.241
503.891
496.67
442.177
457.958
503.484
239.629
459.085
504.441
228.637
244.576
503.144
504.366
469.75
479.115
382.292
504.137
470.941
436.162
476.892
361.546
504.449
482.624
350.562
486.893
504.445
356.865
504.232
436.019
504.461
464.321
335.206
504.454
432.559
341.449
469.34
504.454
474.553
383.034
240.702
504.472
504.403
504.322
504.286
503.954
504.435
504.322
504.437
504.425
504.065
504.305
503.954
504.425
504.435
504.065
504.396
504.214
504.413
504.381
504.362
504.408
504.322
504.372
504.389
503.954
504.432
504.389
504.322
504.35
504.438
504.438
504.109
504.438
504.372
504.305
504.183
504.015
504.35
504.421
504.403
504.437
504.396
504.362
504.381
504.372
504.149
503.954
504.149
504.408
504.362
504.286
504.403
504.286
504.432
504.438
504.425
504.435
504.241
504.149
504.183
504.437
503.954
504.065
504.322
504.434
504.286
504.015
504.43
504.183
504.149
504.109
504.362
504.427
504.408
504.432
504.44
504.241
504.425
504.241
504.44
504.109
504.425
504.434
504.43
503.954
504.265
504.408
504.432
504.149
504.214
504.35
504.372
504.427
504.265
504.241
504.438
504.421
504.265
504.43
504.241
503.954
504.362
504.418
504.35
504.065
504.438
503.954
218.267
504.372
504.265
232.141
242.857
418.555
504.421
227.429
504.322
403.066
267.914
454.08
504.015
299.674
504.087
504.008
350.537
334.743
439.069
447.07
371.039
504.241
321.117
503.643
416.834
317.421
260.984
349.46
361.167
504.313
459.579
504.322
493.325
504.327
470.701
431.537
478.151
481.72
340.36
504.381
252.035
493.194
463.424
503.986
504.396
486.88
385.998
473.466
504.187
504.408
448.259
259.933
504.288
251.378
265.371
227.851
483.613
275.064
490.402
364.674
421.989
400.669
462
428.278
503.649
446.912
253.301
405.567
446.584
468.516
432.421
503.523
418.461
502.261
497.142
503.672
418.461
503.879
503.787
502.261
461.523
442.079
495.193
409.636
499.956
503.672
405.389
423.026
495.193
442.079
456.714
502.261
418.461
456.714
503.523
446.961
495.193
437.225
418.461
502.709
466.241
466.241
502.261
502.261
499.956
461.523
427.684
466.241
427.684
409.636
432.421
466.241
497.142
409.636
503.672
461.523
456.714
486.867
503.879
498.713
501.68
501.68
490.054
413.995
503.672
427.684
503.787
461.523
503.879
503.523
456.714
409.636
456.714
502.261
502.709
483.303
427.684
503.672
456.714
437.225
492.834
503.787
490.054
456.714
492.834
456.714
486.867
418.461
405.389
497.142
483.303
461.523
499.956
479.407
500.927
423.026
451.849
486.867
499.956
503.325
423.026
409.636
405.389
497.142
423.026
500.927
492.834
479.407
483.303
497.142
501.68
418.461
503.055
503.055
442.079
503.055
503.523
432.421
495.193
413.995
470.826
475.231
490.054
442.079
413.995
413.995
503.787
490.054
475.231
497.142
461.523
466.241
461.523
413.995
479.407
413.995
466.241
503.523
503.325
427.684
456.714
432.421
500.927
503.672
503.787
503.879
475.231
500.927
413.995
409.636
502.261
503.787
503.523
470.826
432.421
456.714
483.303
499.956
409.636
418.461
466.241
497.142
492.834
499.956
492.834
501.68
423.026
498.713
475.231
409.636
432.421
405.389
456.714
466.241
409.636
427.684
479.407
456.714
502.709
461.523
446.961
405.389
492.834
423.026
503.672
503.325
470.826
490.054
446.961
492.834
442.079
470.826
503.325
498.713
498.713
490.054
486.867
501.68
503.672
498.713
498.713
437.225
418.461
503.055
492.834
437.225
501.68
236.626
461.523
405.389
218.461
251.261
235.231
446.961
218.766
300.327
354.562
362.716
362.716
279.348
244.268
217.589
398.658
346.786
384.224
333.155
335.244
409.144
337.356
366.833
412.918
366.192
412.195
238.628
273.681
370.651
345.541
385.768
277.861
408.514
361.76
390.911
421.955
432.195
414.743
424.106
393.617
306.103
301.95
291.417
401.885
446.961
446.045
401.873
429.636
440.711
241.758
305.533
394.625
281.819
397.029
416.234
502.261
267.223
368.266
405.946
399.445
323.458
388.821
305.88
454.145
247.582
464.435
468.161
350.819
398.578
432.016
294.165
435.029
400.947
232.673
417.111
438.004
237.365
481.755
423.263
319.361
327.183
415.201
457.873
457.323
464.257
234.76
270.099
412.896
367.432
222.901
402.053
259.065
274.218
497.142
286.601
308.776
498.713
497.586
397.639
280.897
304.199
322.569
280.897
481.585
276.983
372.257
243.869
473.082
407.776
501.485
501.68
407.776
280.485
440.857
260.115
259.757
392.621
223.111
241.45
410.219
481.865
390.673
441.525
502.761
317.569
404.254
489.806
249.148
443.582
419.595
391.672
409.119
312.851
503.879
318.473
337.047
347.84
397.243
401.257
375.604
366.277
335.089
382.358
350.218
343.312
375.604
333.191
363.371
375.604
393.346
322.949
324.53
341.156
327.837
321.413
375.604
389.567
363.371
366.277
401.257
385.905
337.047
378.925
369.283
352.676
327.837
337.047
357.844
327.837
339.069
369.283
319.922
382.358
355.217
382.358
315.696
319.922
327.837
366.277
382.358
345.539
369.283
360.562
382.358
393.346
331.351
360.562
350.218
393.346
397.243
385.905
366.277
347.84
397.243
317.065
347.84
352.676
322.949
319.922
318.473
337.047
322.949
352.676
329.567
331.351
355.217
329.567
335.089
369.283
335.089
393.346
318.473
322.949
337.047
327.837
369.283
327.837
389.567
335.089
337.047
397.243
327.837
329.567
389.567
366.277
333.191
352.676
397.243
375.604
343.312
318.473
329.567
317.065
369.283
343.312
389.567
324.53
366.277
329.567
339.069
360.562
319.922
324.53
369.283
321.413
352.676
352.676
341.156
389.567
329.567
369.283
339.069
321.413
389.567
326.159
345.539
337.047
333.191
363.371
329.567
335.089
363.371
369.283
324.53
347.84
345.539
389.567
341.156
339.069
318.473
337.047
318.473
378.925
378.925
324.53
393.346
324.53
333.191
393.346
335.089
345.539
339.069
333.191
322.949
397.243
345.539
385.905
369.283
341.156
337.047
350.218
352.676
366.277
385.905
329.567
345.539
389.567
385.905
347.84
319.922
337.047
333.191
352.676
360.562
319.922
322.949
341.156
397.243
389.567
369.283
329.567
318.473
375.604
324.53
389.567
357.844
393.346
335.089
350.218
321.413
363.371
397.243
335.089
375.604
326.159
366.277
401.257
345.539
389.567
335.089
341.156
318.473
339.069
352.676
397.243
333.191
315.696
360.562
355.217
397.243
357.844
318.473
393.346
369.283
355.217
357.844
375.604
350.218
335.089
331.351
357.844
329.567
393.346
322.949
385.905
393.346
347.84
375.604
360.562
347.84
352.676
337.047
382.358
317.065
389.567
327.837
347.84
333.191
355.217
331.351
335.089
401.257
350.218
375.604
321.413
375.604
378.925
217.095
339.069
352.676
221.349
341.156
217.675
218.531
222.985
219.942
234.563
217.305
217.291
246.178
319.922
345.539
292.781
308.13
245.186
223.713
309.659
314.866
327.837
243.188
322.949
281.067
304.771
281.194
314.866
352.676
317.043
284.677
292.221
303.453
291.736
306.744
319.922
283.918
316.872
320.048
326.159
314.747
283.033
312.406
257.645
315.102
321.902
318.896
266.015
323.124
314.989
321.509
326.944
318.896
329.567
327.808
329.37
305.914
277.426
275.066
324.651
271.019
295.476
285.1
308.664
290.793
322.455
318.771
252.486
338.947
275.665
278.033
275.665
329.303
326.842
314.608
277.317
329.255
217.617
340.496
254.09
300.573
332.622
345.25
240.831
324.916
288.797
347.536
347.84
345.539
319.047
350.635
247.999
357.844
325.089
355.57
271.593
329.033
350.6
228.691
356.224
357.569
362.661
347.842
294.418
345.137
363.164
330.346
309.145
309.864
364.966
340.567
264.157
331.696
354.513
367.601
340.735
284.531
309.837
373.703
357.612
378.925
382.057
337.483
232.996
345.768
315.851
324.883
375.822
288.979
313.452
338.667
304.759
358.34
319.942
378.219
326.919
379.758
376.555
224.548
364.182
284.697
291.557
285.986
301.847
313.07
291.557
294.678
305.991
307.094
291.557
304.915
313.07
294.678
294.678
289.378
293.872
305.991
289.378
294.678
297.209
301.847
302.844
311.81
295.502
287.311
300.874
302.844
311.81
308.227
302.844
288.677
297.209
286.643
314.365
287.988
296.345
314.365
285.337
305.991
298.092
307.094
285.986
314.365
296.345
314.365
313.07
287.988
284.697
310.583
298.997
284.697
313.07
299.924
294.678
287.988
298.092
302.844
291.557
296.345
296.345
285.986
293.872
308.227
285.986
303.867
288.677
313.07
285.986
290.09
310.583
290.09
290.09
299.924
294.678
296.345
285.337
314.365
304.915
313.07
293.084
301.847
305.991
298.092
310.583
288.677
310.583
310.583
295.502
285.986
292.312
311.81
284.065
293.084
288.677
293.084
292.312
314.365
294.678
294.678
287.311
309.389
296.345
286.643
298.997
299.924
288.677
284.697
311.81
293.084
287.311
304.915
299.924
290.817
285.337
305.991
290.817
313.07
303.867
301.847
293.084
290.09
303.867
298.997
300.874
305.991
303.867
300.874
305.991
301.847
284.697
297.209
298.997
285.337
284.065
302.844
294.678
287.988
286.643
286.643
293.084
288.677
309.389
290.817
287.988
285.337
294.678
309.389
284.065
299.924
290.817
310.583
308.227
297.209
313.07
295.502
307.094
313.07
298.092
294.678
300.874
292.312
298.092
287.311
293.872
301.847
311.81
313.07
291.557
286.643
287.988
305.991
299.924
311.81
285.986
296.345
293.084
314.365
287.311
300.874
293.084
298.997
313.07
227.518
217.217
217.594
238.421
310.583
230.907
217.375
226.876
217.124
217.318
233.428
218.408
295.502
283.21
288.677
275.631
270.242
244.386
284.065
281.742
281.854
228.941
223.266
281.411
284.673
243.195
230.494
283.726
280.003
282.372
266.643
246.562
276.245
274.7
277.991
263.907
270.671
282.378
286.591
280.943
265.41
286.709
288.677
287.976
288.036
219.175
277.481
264.061
282.208
251.857
282.586
243.679
240.948
239.916
290.438
270.259
249.776
276.65
292.312
237.403
279.727
274.302
248.024
281.412
293.838
291.361
290.635
291.684
255.213
294.678
281.089
217.784
293.884
280.185
248.433
281.113
285.672
294.678
294.631
293.209
287.355
292.652
287.554
254.417
257.87
285.807
296.842
282.078
289.865
292.886
273.097
293.225
217.261
297.714
293.283
297.343
220.584
295.565
301.847
260.164
300.258
281.88
301.009
263.521
285.136
283.469
303.867
300.731
279.322
296.823
217.292
256.643
291.779
291.779
301.155
304.867
303.611
269.382
278.033
305.21
265.779
306.988
306.988
306.988
307.706
303.899
307.898
308.524
252.3
217.506
297.292
298.706
306.806
307.446
278.444
310.54
312.062
250.063
293.529
294.215
283.44
282.211
275.264
283.44
270.889
268.216
271.428
279.241
274.157
281.007
276.384
277.516
278.087
278.087
270.889
276.948
265.058
280.414
265.058
278.087
268.748
281.607
279.825
266.632
270.351
279.241
267.687
279.825
280.414
269.815
264.538
271.97
270.351
277.516
268.216
270.889
269.815
274.157
267.158
279.241
267.687
269.28
271.428
278.087
275.823
271.97
273.059
265.058
282.822
268.216
267.687
274.709
270.889
276.948
282.211
282.211
273.606
282.822
278.662
281.007
266.105
267.158
274.709
266.632
267.158
279.825
267.687
265.582
268.748
280.414
283.44
267.687
275.264
267.687
272.513
270.889
276.384
281.607
265.058
266.632
267.687
279.241
279.241
273.606
268.748
275.823
265.582
282.822
265.058
270.889
268.216
273.606
269.815
274.709
266.632
275.823
278.087
275.264
276.948
268.748
283.44
272.513
274.709
278.662
282.211
265.582
273.606
267.687
276.384
282.822
273.059
269.28
274.709
267.158
278.087
279.241
279.241
279.825
270.889
274.157
274.157
268.216
278.662
275.264
269.28
273.606
266.632
274.157
272.513
279.241
270.351
268.216
265.058
278.662
279.241
265.561
283.44
264.538
217.084
273.059
281.607
229.807
244.342
264.35
229.337
248.438
237.922
240.076
231.885
269.28
245.814
220.637
257.716
243.107
244.132
249.694
240.312
229.143
254.556
260.032
217.241
262.153
248.352
249.232
250.379
260.428
263.322
266.609
222.304
264.308
274.709
272.513
258.175
217.723
262.611
217.16
261.915
239.629
267.005
266.749
266.563
217.118
263.001
267.647
281.007
225.679
217.352
240.384
248.23
266.795
247.702
267.507
267.99
255.49
267.076
258.268
255.49
264.188
225.679
217.127
268.306
267.068
254.699
266.642
227.623
279.825
281.607
257.487
221.315
252.786
254.387
265.116
229.907
231.054
249.948
225.031
267.872
233.236
271.428
258.754
224.8
266.198
269.507
276.384
282.211
265.153
240.644
247.623
264.484
270.33
262.143
271.165
270.758
256.926
218.502
217.112
270.885
233.64
246.907
217.358
260.435
271.832
275.264
251.127
279.825
272.373
259.603
270.097
265.381
217.214
244.364
270.26
243.486
270.097
217.187
265.008
266.089
271.509
249.922
270.049
272.464
271.214
273.589
267.851
273.509
246.889
267.38
230.305
274.343
217.071
243.532
274.128
273.514
274.367
217.175
232.713
276.115
217.175
274.623
250.59
263.876
269.579
274.012
261.692
270.832
231.869
232.539
254.471
266.939
234.722
277.498
277.798
250.492
231.297
278.426
269.147
277.795
276.212
252.03
269.816
279.681
279.632
261.99
273.414
282.822
274.936
245.179
281.533
265.818
278.068
269.618
223.32
251.615
255.81
262.642
272.334
217.132
273.628
279.336
281.457
279.645
283.393
253.254
283.273
259.912
257.409
252.08
257.9
247.312
255.915
256.417
262.468
257.409
250.147
253.523
264.016
261.442
249.178
252.08
256.902
262.468
254.941
262.468
257.9
250.147
257.409
250.662
253.981
248.751
258.407
248.751
250.147
257.409
246.957
255.915
250.662
256.417
257.9
254.941
254.473
258.903
249.7
248.751
253.031
256.417
246.957
252.08
251.624
250.147
252.08
248.751
248.751
246.957
251.624
254.941
264.016
253.981
248.751
246.957
255.915
259.411
252.08
247.832
248.751
248.751
254.473
248.241
260.929
257.9
259.912
247.312
249.178
246.957
251.115
257.409
247.312
248.241
259.411
259.411
249.7
261.951
253.981
260.424
259.912
257.9
249.7
248.751
251.624
252.578
255.438
259.912
251.115
255.438
255.438
252.578
253.031
249.178
247.832
251.624
248.241
260.424
254.473
253.523
262.981
256.902
249.7
254.473
262.981
248.241
258.407
261.442
250.662
262.468
248.751
256.417
255.438
253.523
252.578
253.523
252.08
246.957
249.7
260.929
260.424
261.442
256.417
251.624
250.662
252.578
246.957
256.902
255.915
251.624
253.031
217.127
217.04
219.491
217.162
245.661
260.424
233.001
232.618
228.94
247.279
217.209
217.116
217.057
262.981
234.381
263.5
246.494
217.038
243.394
243.948
246.031
244.532
244.173
220.032
242.804
231.882
217.034
217.029
236.037
234.809
246.853
217.091
217.069
221.342
238.023
252.578
246.255
235.501
247.041
247.193
239.835
246.231
227.429
237.291
245.542
251.115
217.242
248.09
247.646
217.293
230.966
249.7
217.293
240.606
247.825
255.438
217.066
238.584
218.355
231.233
245.194
219.688
230.973
234.642
246.677
248.241
239.564
243.663
245.274
246.428
242.087
237.34
254.473
230.734
261.951
248.295
246.806
246.806
255.438
241.532
245.309
219.09
243.563
247.923
217.301
246.183
217.135
229.394
232.637
248.528
248.679
248.102
242.087
248.896
247.572
223.751
248.995
221.562
261.442
221.793
248.407
249.7
245.886
248.63
234.342
237.34
249.317
240.253
250.662
237.475
249.7
238.714
246.402
249.65
251.115
240.576
250.095
248.868
231.238
236.323
238.577
223.151
250.146
250.016
217.1
249.952
245.461
228.324
220.568
218.913
242.777
217.056
231.238
234.297
218.04
250.661
238.145
217.052
246.894
250.312
236.518
245.021
243.133
249.994
251.537
242.878
247.818
235.359
246.973
248.51
217.212
241.388
240.276
217.027
230.955
237.704
234.154
251.619
240.556
243.623
251.8
244.151
243.22
246.881
251.187
250.496
245.208
244.02
242.676
217.034
241.614
251.99
238.445
246.228
242.262
252.289
228.359
217.064
217.099
228.109
250.943
252.995
252.848
247.494
242.944
240.428
252.064
217.332
249.234
247.058
253.026
217.224
247.494
253.513
217.099
217.157
256.902
251.043
217.06
252.765
217.196
247.251
217.21
217.253
253.518
247.058
253.697
244.672
224.125
253.664
244.964
252.561
235.322
252.545
254.468
217.324
244.144
229.362
240.513
239.376
252.784
217.348
217.364
251.84
254.811
252.784
242.116
253.474
253.99
217.046
217.911
247.2
232.355
217.297
217.107
253.202
250.116
254.831
217.146
217.297
217.136
217.1
217.046
255.28
217.324
255.909
255.225
221.801
238.789
217.375
255.913
262.981
254.44
253.438
255.129
217.147
247.702
249.664
255.162
250.705
256.417
251.255
223.875
217.1
217.093
256.889
255.367
217.254
224.529
245.502
217.333
254.277
256.436
256.007
242.866
256.9
251.19
242.725
256.562
237.227
254.048
257.409
237.679
252.43
250.103
257.409
252.221
256.285
242.655
246.046
233.645
217.088
257.716
257.815
231.546
256.517
257.744
257.216
229.502
255.656
257.898
253.146
242.6
240.269
262.468
239.129
242.353
217.076
256.292
257.965
219.738
238.646
259.411
217.226
229.604
234.655
252.449
257.73
232.891
245.106
255.785
217.117
217.402
257.037
260.211
220.988
260.273
237.412
259.674
249.274
258.645
257.891
248.176
260.926
260.092
217.284
227.203
258.445
234.581
245.971
217.069
251.997
257.936
258.566
230.411
219.855
250.178
259.358
246.128
261.844
260.59
255.791
262.3
251.79
217.27
262.978
217.117
259.182
262.981
262.868
236.414
247.01
231.564
217.088
249.39
258.206
262.46
249.816
262.948
263.924
263.51
247.162
264.016
253.387
258.245
)


// ************************************************************************* //
