/*--------------------------------*- C++ -*----------------------------------*\
  =========                 |
  \\      /  F ield         | OpenFOAM: The Open Source CFD Toolbox
   \\    /   O peration     | Website:  https://openfoam.org
    \\  /    A nd           | Version:  7
     \\/     M anipulation  |
\*---------------------------------------------------------------------------*/
FoamFile
{
    version     2.0;
    format      ascii;
    class       scalarField;
    location    "0.7/lagrangian/reactingCloud1";
    object      tTurb;
}
// * * * * * * * * * * * * * * * * * * * * * * * * * * * * * * * * * * * * * //


2546
(
0.004115
0.00401
0.00400625
0.003905
0.0038
0.003695
0.00359
0.003485
0.00338
0.003275
0.00317
0.003065
0.00296
0.002855
0.00275
0.002645
0.00254
0.002435
0.00243125
0.00233
0.002225
0.00212
0.002015
0.00191
0.001805
0.0017
0.001595
0.00149
0.001385
0.00128
0.001175
0.00107
0.000965
0.00086
0.000755
0.00065
0.000545
0.00044
0.000335
0.00033125
0.00023
0.000125
2e-05
0.0008985
0.0013735
0.000741869
0.0004635
0.00615204
0.00603527
0.010315
0.0088285
0.01021
0.000152059
0.000115
0.0010755
0.000111701
0.0097
0.0096
0.0095
0.0094
0.0093
0.0091
0.0092
0.009
0.0088
0.0087
0.0086
0.00118561
0.0084
0.006975
0.0082
0.00127
0.008
0.0079
0.000227
0.0078
0.0077
0.0076
0.0074
0.0075
0.0073
0.0072
0.002315
0.007
0.0069
0.0068
0.0067
0.0065
0.0066
0.0064
0.0063
0.0061
0.0062
0.0059
0.006
0.00043
0.00569
0.005585
0.00548
0.00537125
0.005375
0.00527
0.005165
0.00516125
0.00506
0.004955
0.00485
0.004745
0.00474125
0.00464
0.004535
0.00443
0.004325
0.00422
0.00042
0.0119912
0.0121
0.00113624
0.011785
4.22208e-05
0.00397632
0.0116762
0.000261413
0.01168
0.01147
0.011365
0.011575
0.009907
0.011155
0.01105
0.01084
0.01126
0.01063
0.00177733
0.01336
0.00139678
0.003177
0.013045
0.002862
0.000788234
0.00100785
0.0005385
0.000137367
0.000992788
0.0125162
0.000617649
0.00160615
0.0002905
0.00313
0.00314248
0.002115
0.0027558
0.00362143
0.0079405
0.00543115
0.014305
0.00250624
0.011525
0.0032235
0.0018785
0.0142
0.002465
0.0098201
0.001707
0.013675
0.00158
8.2116e-05
0.01698
0.01688
0.0009805
0.01668
0.005912
0.0023355
0.01638
0.01628
0.004092
0.01618
0.0001385
0.003387
0.000257915
0.001472
0.0001285
0.015355
0.000385
0.00641657
0.003395
0.00424345
0.000232523
0.0021893
0.0011211
0.001967
0.0013855
0.002192
0.007895
0.00188006
0.007465
0.00707
0.01948
0.000577
0.01918
0.01908
0.0043635
0.005402
0.01848
0.005907
0.00686798
0.006337
0.00276
0.00632012
0.01808
0.00129
0.0046685
0.007092
0.0045735
0.01738
0.00570101
0.0008435
0.001552
0.000285117
0.000841629
0.00838
0.02376
0.0002935
0.0042685
0.0116535
0.023655
0.0117906
0.006532
0.0004255
0.0069435
0.004837
0.002862
0.003292
0.004685
0.005337
0.0041735
0.0020085
0.010427
0.008745
0.001465
0.02229
0.00452
0.021975
0.0100907
0.0100285
0.02187
0.0005085
0.00159817
0.00931007
0.0092385
0.0041005
0.0083485
0.009495
0.001192
0.00248635
0.0006085
0.0206062
0.00222123
0.020505
0.0008605
0.02019
0.0037485
0.00815758
0.00086
0.00400315
0.00833568
0.000150666
0.000250731
4.35796e-05
0.000164685
0.000930565
0.00035011
0.000314113
0.0009409
0.000652109
0.00232204
0.000134564
0.00291262
0.000689265
0.000578432
0.00155159
0.000484756
0.0028459
6.66281e-151
0.000234
0.000357765
6.26192e-151
0.000939883
6.46102e-151
0.000212789
0.000468772
0.00108782
5.60636e-151
0.000164245
0.000375191
0.000234521
0.000108161
7.32791e-05
0.000121573
0.000259153
0.000799948
0.00138302
0.00200519
0.000542995
0.000902395
0.000146874
0.00419568
0.0044835
0.000705
0.0014885
0.007012
0.00582326
0.00362701
0.0108055
0.00787907
0.0172625
0.0079255
0.002522
0.0006785
0.003337
0.004857
0.0013635
0.007257
0.008922
0.0018635
0.0021055
0.004812
0.02806
0.004312
0.000562
0.02746
0.00614777
0.02756
0.00232005
0.0089808
0.0013255
0.00027
0.0011985
0.014772
0.0129185
0.0041285
0.00658246
0.004645
0.008787
0.02626
0.0143685
0.0023235
0.0075055
0.0175665
0.0042785
0.005547
0.0040735
0.0224585
0.010207
0.0018605
2.2e-05
0.006253
0.005422
0.0218862
0.012307
0.025125
0.0246
0.006872
0.0016872
0.001552
0.00114461
0.000312184
8.6969e-05
0.000182667
0.00412036
0.00332141
0.00107974
0.00147782
0.00132793
0.000209034
0.000845522
0.000338991
0.000611874
0.000176088
0.000810775
0.0017817
0.000580475
0.000286246
0.000314007
0.00284016
0.00134523
0.000640427
0.00305652
0.000835007
0.000236378
0.00280321
0.000207511
0.000535105
0.000124251
0.00099562
0.000956023
0.000982412
0.00459867
9.15609e-05
0.000561218
0.00112605
0.000207036
0.000851873
0.000716544
0.00155062
0.000475472
1.08996e-150
0.000348796
0.000947447
5.71442e-151
0.000170605
0.00166027
0.000334761
0.00171053
0.000181186
8.53998e-05
5.08588e-05
0.00178751
0.00128146
6.1733e-151
1.57762e-19
0.0043293
0.000922982
0.000203071
0.000436241
0.000733757
0.000336365
0.000943421
0.000435162
0.000190268
3.2544e-53
0.00126868
0.000843547
0.000537529
0.00226272
0.001097
0.001722
0.00137181
0.013845
0.0063135
0.0254403
0.0017155
0.006367
0.00259122
0.011342
0.000522
0.0099835
0.004147
0.00212003
0.0083335
0.010107
0.0180955
0.0243011
0.003352
0.00283205
0.0076085
0.0045035
0.0025835
0.0059805
0.0232726
0.0010955
0.008137
0.00777293
0.0115385
0.0182455
0.018255
0.005545
0.006237
0.0054635
0.0062435
0.006552
0.004287
0.00607131
0.0101205
0.00971323
0.007562
0.02143
0.0023785
0.007167
0.008395
0.004195
0.0075485
0.0051205
0.00587278
0.0004685
0.011312
0.000578071
0.006627
0.005302
0.03164
0.0088185
0.006727
0.0016485
0.000127
0.00724616
0.0081505
0.0308
0.00638583
0.0083085
0.0013205
0.03017
0.0082285
0.004905
0.015782
0.02986
0.000228204
0.000685236
0.000409089
0.0100079
0.000880561
0.00147888
0.0031775
0.000281716
0.000279882
0.000391308
0.000213088
0.00118035
4.98354e-05
8.5864e-05
0.000703911
0.00169918
0.000385983
0.00037122
0.000199701
0.000308098
0.00031933
0.000222069
0.000546959
0.000890407
0.00018099
0.00164711
0.000183029
0.00737837
0.000546937
0.00547553
0.000231649
0.0067698
0.00129924
0.0119572
0.000832736
0.00137356
0.00150316
0.00064898
0.000293915
0.000669791
0.000417472
0.000736964
3.34314e-150
0.000620683
0.00137058
0.00189181
0.000471743
0.00042232
0.000269539
1.07166e-150
0.000912151
0.000686719
0.000623476
0.000573224
0.00233487
0.00404655
0.000708691
0.0016841
0.00034035
0.000675216
0.00053548
0.00030224
0.000510133
0.002804
0.00298714
0.00279437
0.00168564
0.00721758
0.00096765
0.00134291
2.49031e-05
0.000615258
1.00122e-150
0.000349563
0.00307207
0.000684267
0.000325371
0.00625311
0.000722196
0.00278455
4.19864e-151
0.000427478
0.000244018
0.000235978
0.00258216
0.000913777
2.36586e-05
0.00311653
0.000533952
0.000509906
0.000117114
0.00127047
0.00507017
0.00352086
0.00185673
0.0001819
0.000440975
0.00091522
0.000277642
0.000473632
9.06106e-05
8.22149e-05
0.00275452
5.20104e-05
0.000129138
0.00159405
0.001402
0.00342472
0.00131857
0.0006055
0.0069105
0.0058205
0.00556413
0.017215
0.000201921
0.0064435
0.0115055
0.0118705
0.000682161
0.0139555
0.00973209
0.00746215
0.0125305
0.003597
0.0106185
0.010492
0.0118
0.00199119
0.0049305
0.017995
0.0067955
0.0024685
0.003865
0.004597
0.0021535
0.00593
0.007045
0.00403207
0.00881405
0.0099455
0.0031205
0.005522
0.011632
0.0030235
0.0009105
0.013251
0.006947
0.01192
0.011815
0.016032
0.000213801
0.009545
0.00467
0.00764108
0.00699
0.00100705
0.0101435
0.0132085
0.011892
0.0064285
0.005277
0.01049
0.0125185
0.00796
0.012015
0.004022
0.0070155
0.0048855
0.008885
0.0052905
0.0259775
0.00938163
0.007802
0.0085705
0.000537
0.00842
0.00526991
0.000175714
0.00030742
0.00393697
1.98194e-150
0.00137597
0.000347082
0.00568042
0.000178782
0.00101421
0.0038259
0.000101505
0.000984536
0.00027562
0.00268412
0.000265564
2.75692e-150
1.64985e-150
0.000155991
0.00351208
3.08116e-150
0.000161542
1.46101e-150
0.000325457
0.000685043
0.000239926
0.000310652
0.000411199
1.20784e-150
0.00390057
9.40469e-05
0.000242405
0.000402912
0.00379796
0.00036663
0.00170319
0.00016094
0.00154276
0.00207318
0.00417077
2.12548e-150
0.00275694
0.0148012
2.04348e-150
0.00801565
0.000780122
0.000545502
0.00321879
7.88649e-05
0.00299627
0.000855638
0.000258874
0.000174649
0.00801393
0.000119343
0.00184144
0.00149483
1.14903e-150
0.00908963
0.00102145
0.000601167
0.000255916
0.00257437
0.000344928
0.000687663
0.000874372
0.000309189
0.000438936
0.00573489
0.00010464
0.000497887
3.84576e-05
0.000238169
0.00203369
0.000139298
0.00037437
1.43839e-149
0.000241522
0.00899029
0.00091071
5.4028e-150
0.000539923
0.000478808
0.000697429
0.000936769
0.00543789
0.000408231
0.0102037
0.00103852
0.000293146
0.0105362
0.00702674
0.0122691
0.000353377
0.00274819
0.000996141
0.00167777
0.00015772
7.21908e-151
0.00119495
0.00166132
0.00438108
0.000229344
0.00118749
0.00408273
0.00103337
0.000321998
0.00123392
6.98562e-05
0.00026238
0.00305163
0.000501202
0.000546112
1.27478e-150
1.44661e-150
0.000130569
0.000291605
0.000513568
3.06626e-05
0.00188556
0.0105404
0.00324723
2.59173e-05
0.00018916
0.00709789
0.00376006
0.000741093
0.000965002
0.00258043
0.00317682
8.10438e-05
4.58373e-05
0.00172504
0.00193122
0.000735273
0.000106
0.00414927
0.000157729
3.49475e-151
8.98566e-06
0.000105068
0.00011973
0.000584999
0.00774127
0.00177998
0.000811587
0.000253394
0.00176466
0.00139921
0.00048788
6.66461e-151
0.0003223
0.00102486
0.00109744
0.00118187
5.67412e-151
9.95449e-151
0.00410402
0.00204525
0.000196245
0.0113071
0.0051333
0.001228
0.000219232
2.14187e-05
0.000484468
0.000308629
0.00271419
0.000249476
0.000645207
0.000528671
8.78922e-05
0.000386864
2.83057e-151
0.000189283
0.000310293
0.000102879
0.00979438
0.00268769
0.00068468
0.000177993
1.69177e-151
2.5176e-151
0.000472626
0.000548923
1.57814e-151
0.00540799
0.00346994
5.77123e-05
0.00438059
1.1447e-151
0.0001694
2.78098e-05
0.0016996
0.00258613
0.00497176
0.000685781
0.024127
3.23758e-152
0.00210462
0.0169555
0.013127
0.010032
0.00060146
0.02288
0.00994
0.0164485
0.0127856
0.0036085
0.0124435
0.0163005
0.0233485
0.0100205
0.0067485
0.0144085
0.009757
0.00494
0.005215
0.0052655
0.0108685
0.00688
0.0108055
0.00561548
0.0163955
0.002127
0.00382313
0.004777
0.014377
0.0036355
0.003115
0.011807
0.013542
0.0121659
0.00590304
0.0117252
0.0118455
0.01381
0.006647
0.0017585
0.0017555
0.0019805
6.34258e-05
0.014347
0.01056
0.0108305
0.003965
0.013452
0.0132485
0.0022405
0.0149255
0.0014735
0.0136005
0.0126673
0.0047985
0.006502
0.00146
0.013612
0.0152335
0.014092
0.0063005
0.0022235
0.0187855
0.00651
0.0154303
0.0063335
0.0051505
0.00703617
0.005527
0.002927
0.008085
0.00794
0.0077205
0.0129882
0.0170923
0.00290648
0.0115585
0.0084235
0.0130905
0.000487
0.0122955
0.0005785
0.00505266
0.007697
0.0086035
0.0120879
0.005077
0.0197505
0.0085785
0.0111135
0.014952
0.007125
0.0115155
0.003002
0.000261394
0.00387633
0.011717
0.0001455
0.0062905
0.003505
0.0036385
0.00977273
0.0130555
0.002705
0.0172355
0.0011285
0.004472
0.0212957
0.005495
0.005472
0.0100405
0.00995
0.0105155
0.008767
0.0059885
0.014542
0.0086535
0.0022685
0.013602
0.0017935
0.0122921
0.022392
0.0133535
0.0084285
1.7e-05
0.0157955
0.0094185
0.009005
0.0014405
0.0005435
0.000182
0.000436407
0.000671651
0.000259965
0.0100406
1.29061e-150
0.00662664
0.000182794
0.00042602
0.00027077
0.000317428
0.00183225
0.0151136
1.72499e-150
0.000217592
0.000374729
0.00657676
1.25604e-150
1.95269e-150
0.000775478
0.00630214
0.000232541
0.000782388
1.6984e-150
0.00120267
1.91572e-150
0.000127976
0.00152618
7.87549e-05
2.26993e-150
0.000248722
1.26986e-150
3.47753e-150
4.03548e-05
1.82393e-05
0.0106859
2.0412e-150
8.00602e-05
0.0108261
0.00169823
0.00922035
0.000119227
0.0015747
1.09478e-150
0.00095256
0.00151101
0.00372071
1.36017e-150
1.38612e-150
1.20519e-150
0.000751853
0.000226279
3.96195e-150
6.90708e-21
0.0112724
0.0126366
7.34112e-05
0.000393391
0.00101068
0.000209635
0.000128847
0.000477757
0.000103072
0.00166899
7.87019e-05
0.0242976
0.000425215
2.23994e-46
9.36062e-151
6.42406e-05
0.000707689
0.0001454
0.00119579
2.52097e-150
0.00335587
0.0167593
0.0104975
9.67032e-151
0.00201824
1.81939e-05
0.000848439
0.0014333
0.00240512
0.000173716
3.53104e-05
0.000671322
0.00024955
4.70791e-05
9.34536e-05
0.00292684
0.000562606
0.000178239
0.000145057
0.0148764
0.00129007
0.000152816
0.00573758
0.000687318
0.0247531
0.0177128
0.000196316
0.00218942
0.000447004
0.00795317
7.57338e-05
9.02288e-151
7.61801e-05
0.00430211
0.015989
0.00174059
0.00232067
0.00154283
0.00326768
0.000507282
0.000156404
7.80112e-05
0.0101675
0.000335082
0.000147231
5.98712e-150
7.88387e-05
0.00958339
9.2514e-05
0.00383763
1.09946e-149
7.7282e-05
2.49903e-149
0.000190136
0.000122442
9.77386e-151
7.62362e-151
0.0158479
0.000495729
2.6096e-150
0.00740368
0.00457859
0.000542862
0.000714677
0.00342587
0.00313092
0.00137535
6.03198e-151
0.000290847
0.00327046
5.69588e-151
0.000102548
1.37328e-150
0.00972825
0.00104816
6.7709e-151
2.22014e-05
0.000132891
0.00750885
0.0137081
9.00584e-151
0.000177534
0.0157849
0.0120899
5.04774e-151
0.000169134
0.000813832
0.000172774
0.00110107
0.000954033
0.00378402
7.88278e-05
9.68976e-05
0.000509477
7.60073e-05
0.000207108
6.94845e-05
0.00152533
0.000631596
0.022479
0.00383172
0.000311522
0.000392285
0.00200219
0.0013968
0.00359064
7.08757e-150
0.000166405
0.00224942
0.000757096
0.000117413
3.90614e-05
3.97373e-151
9.23964e-05
0.00960061
7.92154e-151
0.0202557
0.00262846
3.08696e-151
6.62362e-05
0.00218382
0.012706
0.00191654
2.71891e-05
0.000361759
3.5713e-151
5.25478e-151
0.0138684
0.000102221
0.0184077
0.0112099
0.000576638
0.00280746
2.86979e-151
0.000429614
3.54914e-151
0.0121041
0.00612282
0.000499065
0.000211562
0.00061137
6.27701e-05
5.81815e-151
0.00166198
1.86025e-151
1.81792e-151
1.68345e-151
0.000108502
0.00020498
0.000456798
0.000599811
0.000118769
0.00121879
0.0027444
3.50853e-151
2.71903e-05
4.61269e-151
8.15454e-152
0.00652342
3.6e-05
0.00272836
8.02486e-152
0.000526106
0.00183821
7.5747e-152
0.000191402
0.0129704
0.0151696
0.000124579
0.000350911
0.000589482
0.066747
9.28987e-05
7.32475e-05
0.0116855
7.43754e-05
0.0368805
0.0368305
0.0316455
0.0311805
0.0122755
0.054855
0.0355955
0.0026185
5.67875e-05
0.000122486
0.010167
0.018247
0.0144655
0.0164985
0.0016305
0.0180605
0.0157645
0.020307
0.000781911
0.015837
0.0036135
0.0191255
0.0203635
0.000423773
0.00320121
0.0142405
0.0213935
0.0136955
0.0117585
0.0139235
0.019352
0.0205035
0.0155105
0.021177
0.00860053
0.023152
0.0052785
0.011177
0.0198435
0.006777
0.0057221
0.016537
0.0073635
0.0040085
0.01143
0.0165835
0.017795
0.0179673
0.0162629
0.0202054
0.0122705
0.0020355
0.0238807
0.011197
0.0075755
0.023292
0.0118735
0.000387
0.016952
0.005
0.0205555
0.0224955
0.021605
0.0063585
0.0140085
0.007795
0.0046505
0.0179935
0.0026135
0.0069255
0.017787
0.008587
0.0180705
0.0054455
0.0199905
0.021697
0.013452
0.00780702
0.0244305
0.0135705
0.0088305
0.011972
0.0138171
0.00286585
0.015942
0.0125658
0.022087
0.0141374
0.00702
0.0166921
0.000912
0.010377
0.0137535
0.00213
0.0184555
0.0150655
0.005547
0.0064535
0.015835
0.01558
0.00200165
0.001252
0.0167735
0.0037905
0.014997
0.005902
0.010477
0.001652
0.009395
0.00847
0.0108835
0.006927
0.0060235
0.0159085
0.0100105
0.015995
0.00584548
0.012727
0.011357
0.004092
0.004992
0.0156385
0.0063035
0.016512
0.0065385
0.0155685
0.0067055
0.0132974
0.0084735
0.005917
0.0055085
0.00654207
0.013347
0.0138055
0.014617
0.00318404
1.28426e-150
0.000791751
0.00236013
9.33985e-150
1.84059e-150
0.000288657
0.00142744
1.45952e-150
0.00444899
0.00174279
0.0225544
0.000303892
0.000688697
0.000101769
3.78281e-150
0.00319179
0.00327529
0.00136945
0.00272099
0.000411402
0.0106232
0.00174448
0.000179287
0.000163652
1.0041e-150
3.56118e-150
0.000144232
0.00161946
0.00592689
3.20784e-05
0.000499831
4.51179e-150
3.29276e-150
0.0044661
0.00219536
0.000901738
0.00221451
0.0011511
0.00263003
1.94448e-150
0.000394285
0.000130977
0.0272774
0.00391376
1.24475e-150
0.000104576
6.60824e-05
0.00309332
0.000774594
0.000458944
1.03648e-150
0.00091475
0.000113364
0.00209903
9.43541e-05
0.000556327
0.000114664
0.00179739
7.72023e-151
7.73157e-151
0.00290741
2.03925e-150
0.00582276
0.000642395
1.45791e-150
0.00374832
0.000170622
0.0010233
1.20855e-150
0.00314114
0.0042849
5.55526e-05
4.45935e-150
0.00044387
0.0119917
0.00749737
0.00192918
0.000789391
8.81665e-151
3.15933e-05
0.026466
0.00573305
0.00431851
0.000188452
0.00107461
0.000216065
0.000175039
0.000557258
0.000955955
0.0237555
0.00104007
0.000496621
6.46479e-151
0.00010159
0.00126306
0.000299586
5.33819e-126
0.00685042
2.74087e-06
0.00023211
5.92347e-151
0.00416923
0.000346773
9.85719e-05
0.00128813
0.000485759
0.000279332
0.00436306
0.032934
7.60397e-151
0.00120836
0.000291557
0.026832
0.00318171
0.00450409
1.05763e-150
0.00104713
4.50135e-151
2.64476e-150
3.7858e-06
4.82949e-151
0.000866157
0.00121495
0.000835
0.00155845
0.028683
0.000232582
8.76945e-05
0.000196211
0.000209621
0.000747929
2.84176e-151
0.00114622
0.000158452
0.000200005
0.0029914
0.00233682
0.00143737
0.00769135
4.97275e-05
0.000279732
0.00171015
2.34132e-151
8.46204e-05
2.36816e-151
0.00158781
1.85251e-151
3.41444e-151
0.00245677
0.000158877
0.000569871
0.0106316
4.04405e-151
1.10397e-05
0.000555326
6.07677e-05
2.16054e-151
1.51212e-05
0.00483695
1.48459e-151
0.0279941
0.000147351
1.0942e-151
0.000224857
0.00787034
0.0194296
0.00492106
0.00224824
0.00259088
0.000470238
1.33311e-06
0.000233938
0.00259086
1.11908e-151
0.000973367
0.000388415
0.0337718
3.56956e-151
0.0301984
8.20914e-151
4.12952e-05
0.0115235
0.0726635
0.0515105
0.031532
0.000391422
0.0321905
0.068137
0.0291181
0.0598635
0.0493905
0.0173855
0.044035
0.0138142
0.0139464
0.00500464
0.0127705
0.000567
0.0228552
0.0347685
0.0083985
0.0353735
0.0030685
0.005022
0.000237
0.026361
0.005637
0.0198232
0.001352
0.027845
0.0266761
0.017617
0.02771
0.0193605
0.024427
0.027032
0.023957
0.0216518
0.0214255
0.0196835
0.0165205
0.0106505
0.00503612
0.0346615
0.0202635
0.01589
0.0171135
0.0198585
0.0142835
0.0280606
0.0076305
0.0013605
0.021187
0.0312885
0.0182005
0.0277621
0.0271835
0.0201885
0.0302235
0.0258666
0.024307
0.0095755
6.05e-05
0.0209785
6.05e-05
0.0205654
0.001092
0.0221835
0.0049635
0.000607
0.0228685
0.029677
0.0393
0.0012
0.0241872
0.0301555
0.019802
0.0291505
0.0187683
0.0204185
0.014227
0.005852
0.008365
0.022712
0.0001085
0.0254955
0.008175
0.004035
0.028132
0.0292955
0.003027
0.0250555
0.0266155
0.039207
0.0240855
0.0147005
0.0252685
0.0272785
0.009282
0.000965913
0.0160735
0.0190599
0.000315
0.0220655
0.0232635
0.0280035
0.0245455
0.00757447
0.022312
0.0229135
0.0233313
0.029502
0.020357
0.0278935
0.015237
0.028217
0.0282671
0.0258001
0.0233955
0.0273285
0.0029635
0.0178555
0.00971701
0.025347
0.009605
0.013547
0.010445
0.0223023
0.010666
0.021215
0.032657
0.026427
0.016147
0.0153855
0.0153687
0.0258985
0.0055205
0.0070085
0.0166
0.023017
0.009862
0.0080708
1.15839e-150
0.000102136
0.00111433
0.00103134
0.000355925
0.00128147
0.000279045
0.000320775
0.000105362
2.74334e-05
2.25493e-148
0.00190782
0.0188639
0.00717805
0.000938372
0.00120931
1.3704e-150
0.00254092
2.90981e-150
0.000522415
0.000131221
0.000135555
0.0193477
0.000220509
0.0394813
0.000634833
0.00060297
5.85338e-150
3.04665e-150
0.00161592
0.000248368
0.0084302
2.44978e-150
0.000307907
0.000304136
0.000526385
0.000128467
3.31723e-05
0.000513041
0.00222562
0.0104041
0.000195227
0.000360518
0.00446297
1.43843e-150
0.00137814
4.07623e-05
0.000115475
0.000204093
0.0190088
4.27026e-150
0.000700905
7.3734e-151
0.00235309
0.00381536
0.00125215
1.01955e-150
0.00894998
0.0012167
0.00126088
6.82168e-151
0.000205978
4.20988e-05
0.000220833
7.18236e-151
0.000210415
1.0682e-150
6.68694e-151
1.34457e-150
0.00317111
0.000793589
3.83898e-150
0.00336385
0.00995725
0.000233089
0.00072814
0.000848695
0.00010247
5.58866e-151
0.00127214
0.00348026
0.000219577
0.0145152
0.00676191
0.00741675
7.15195e-151
0.000893317
0.000623491
4.59817e-151
0.00342397
0.000958959
8.13089e-05
0.0116144
0.000558585
0.000662207
0.00172901
0.0017806
0.0209052
0.000569783
0.00922847
0.000360303
0.0312744
0.00133783
5.73266e-151
0.00236948
0.00247515
7.50284e-05
9.94315e-05
0.0128551
0.000320533
9.10795e-05
0.003182
2.47653e-151
0.000648746
0.0129824
0.000244684
0.00205091
0.00806462
0.00110036
0.0316236
0.0309342
0.0005372
0.000895754
2.7875e-19
3.22188e-151
0.00802662
0.0419086
0.00167069
0.00994147
0.0156381
0.000388666
0.000509479
0.000750724
0.0070851
0.00166099
0.00150389
0.0233006
0.097862
1.1687e-93
1.24463e-151
0.0422955
0.0484002
0.0485485
0.04301
0.024292
0.0418305
0.0225405
0.019767
0.000875444
0.0468292
0.0453405
0.050272
0.0425285
0.040222
0.0324505
0.0338085
0.015617
0.0229235
0.012712
0.0637955
0.029307
0.0165785
0.0399835
0.0372048
0.050107
0.002472
0.045985
0.0511778
0.0385435
0.000884156
1.52108e-145
0.00802
0.037692
0.0232585
0.067757
0.0302285
0.0162555
0.0105835
0.0173105
0.040575
0.095737
0.038237
0.00648501
3.6645e-135
0.039632
0.03079
0.046372
0.022342
0.003912
0.0293085
0.011457
0.032012
0.0123655
0.024082
0.028967
0.038345
0.0216035
0.0206005
0.0788555
0.0222924
0.0345655
0.0446535
0.0270505
0.0436655
0.0107998
3.10837e-118
0.0268005
0.0093735
0.0429805
0.042252
0.009122
0.010055
0.0137305
0.0160055
0.03703
0.023772
0.0111705
0.000434798
0.008237
0.0363202
0.036465
0.031767
1.81117e-152
0.00122303
0.0397115
0.042037
0.0148405
0.0119355
0.0169658
0.0438548
0.010652
0.0253276
0.0211935
0.0461335
0.0476485
0.0443305
0.035182
0.0247335
0.039067
0.00823
0.0415435
1.64014e-117
0.03367
0.000676148
0.0054985
0.0292055
0.0412785
0.035127
0.076255
0.0347805
0.0026705
0.0382955
0.0233885
0.064672
0.0359943
0.024075
0.0387055
0.0349255
0.0420711
0.014457
0.0409705
0.0260835
0.039847
0.00381205
0.0270535
0.0396835
0.038365
0.0414685
0.0612805
0.0326055
0.0158835
0.0322685
0.0312085
0.074995
0.039037
0.0015035
0.065707
0.037862
0.0223921
0.003057
0.0202556
0.040082
0.027622
0.0238119
0.01363
0.0068805
0.0184655
0.0032505
0.0074455
0.0344352
0.011207
0.0279635
0.0220885
0.020542
0.0371485
0.001107
0.037387
0.0380285
0.0234735
0.0210735
0.0121885
0.0290155
0.0219335
3.93301e-05
0.025622
0.0307935
0.03816
0.0145435
0.018917
0.0295505
0.0427155
0.037217
0.0323505
0.0320655
0.03699
0.0898
0.0316085
0.0236085
0.0237285
0.02509
0.0327605
0.0278705
0.0146971
1.13022e-150
8.77018e-05
3.70047e-05
0.0175121
9.68511e-05
0.000303462
0.000348773
0.00176969
0.00464194
0.000979221
0.00545281
0.0012278
0.000161619
0.0185568
8.83156e-151
0.000155601
2.9384e-149
0.000314326
2.2664e-150
0.0129115
8.7749e-151
0.000551485
0.00345886
4.90336e-05
0.000120749
0.000166342
0.000414227
5.31046e-05
0.000122478
0.0336006
1.66427e-22
0.000326131
4.09674e-150
1.73326e-150
0.000252647
9.89924e-05
1.81378e-150
0.00168915
0.00152003
8.05996e-151
0.000355648
1.20131e-149
0.00314165
0.000535268
7.83254e-151
0.00543402
6.58042e-151
1.02697e-150
4.9262e-05
0.0011649
0.000153592
0.0122243
0.000443286
0.000309706
0.00035462
0.00340452
0.00148343
0.0110755
0.00467936
0.00148856
0.000249188
0.00570791
8.49259e-05
0.0189627
1.32455e-150
0.000242296
0.0164746
0.000354076
0.00587144
5.32526e-151
0.00304258
0.000225336
6.9841e-151
0.000816417
0.00224954
2.86891e-72
0.000178089
7.67576e-05
0.00938085
0.00443945
0.000722808
0.000458459
0.00720001
0.00219418
2.1587e-150
6.09365e-150
2.0561e-150
0.00583351
0.000281988
0.000171021
3.50433e-151
0.0559405
0.0006851
0.00216943
0.00252152
0.00101669
0.000351586
0.00106283
4.00983e-151
0.000743095
5.81657e-151
0.0302559
0.000994013
0.0201751
0.00109557
0.0508212
1.82181e-150
9.37229e-151
0.000299149
0.000120861
0.000154381
0.00126836
0.00177436
1.95885e-69
0.0703809
0.0147978
0.000255019
0.0074212
0.000182773
0.00251561
0.000328711
0.0611139
8.60299e-88
0.000434711
0.00199402
0.0252281
0.0623667
0.0566937
0.000117562
0.00995602
0.10413
0.097977
0.058862
0.0965055
0.0426315
0.000235585
0.0238605
0.0581055
0.0721105
0.00938818
0.101613
0.090685
0.124707
0.000407516
0.0002205
0.000589959
0.0777985
0.13968
0.030282
0.0560405
0.0188655
0.0037485
0.054302
0.025495
0.0320735
0.0773935
0.0879935
0.139817
0.052307
0.0752805
0.0200935
0.115443
0.0946085
0.078907
0.0204785
6.72571e-141
0.0333171
0.01535
0.068585
0.0683635
0.080972
0.060767
0.064737
0.06756
0.04768
0.00332709
0.0475655
0.0757305
0.0233785
0.0774085
0.0050855
0.0099831
0.09407
0.0677468
0.081312
5.42915e-05
0.129845
0.0586635
0.0728985
0.0118485
0.077997
0.0818335
0.0770455
0.0708735
0.0840535
0.000290766
0.0715935
0.0373035
0.039847
0.034977
0.0459735
0.078297
0.0191623
0.056077
0.000815815
0.064257
0.0558305
0.0686385
0.00530062
0.0264604
0.0536085
0.0807535
0.0688972
0.0285865
0.0675355
0.030277
0.106205
0.0631005
0.051617
0.0151655
0.0267805
0.0628985
0.0264396
0.0294805
0.0346755
0.0499085
0.079852
0.025055
7.40737e-05
0.0358205
0.0072805
0.0058405
0.0491185
0.0696985
0.0618885
0.007102
0.0689807
0.0546635
1.39221e-48
0.0154355
0.018255
0.0493401
0.0528835
0.045695
0.00847814
0.0593485
0.0392584
0.0595955
0.0635035
0.013745
0.0376885
0.045742
0.0411915
0.0294954
0.0924005
0.055442
0.051167
0.0079555
0.038817
0.071682
0.0649755
0.0686485
0.0549985
0.070887
0.0670855
0.0590918
0.0620185
0.144285
0.0534035
0.050727
0.005402
0.066032
0.023992
0.0361885
0.0472405
0.056102
0.045267
0.0192655
0.0705585
0.0705254
0.06769
0.032622
0.0283435
0.159135
0.0693285
0.067237
0.066112
0.0627705
0.0690685
0.056902
0.0492835
0.029987
0.020132
0.048177
0.0222705
0.0158035
0.0079955
0.054957
0.00119281
0.132673
0.0047185
0.021842
0.062082
0.0254897
0.0491955
0.015367
0.0183305
0.115887
0.063982
0.026847
0.028455
0.00312703
0.0638849
0.051162
0.00284
0.038657
0.044597
0.0337535
0.0403305
0.0565735
0.0412535
0.082552
0.0699788
0.0567863
0.066805
0.0605135
5.04027e-152
0.0527635
0.134057
0.024777
0.0480155
0.066445
0.0449885
0.073147
0.0278799
0.0001735
0.0574655
0.061947
0.0381055
0.0335205
0.0068485
0.067182
0.0463555
0.0467185
0.0150039
0.083837
0.0442835
0.0128555
0.0558105
0.0526305
0.023401
0.02397
0.076357
0.038317
0.0383835
0.0469355
0.058235
0.056825
0.0054885
0.113965
0.0645655
0.0618315
0.033627
0.0441885
0.104352
0.04784
0.036847
0.030327
0.0882555
0.059617
0.102422
0.112343
0.081227
0.009072
0.0549855
0.062122
0.046832
0.049602
0.0442885
0.068497
0.0193949
0.000333029
0.0600226
0.043277
0.0504535
0.0687835
0.058082
0.0438505
0.0555405
0.0526355
0.0220616
0.002675
0.017122
0.088982
0.090827
0.039472
0.0440205
0.0778035
0.021017
0.057857
0.052867
0.030162
0.0425553
0.0358262
0.0526805
0.0362465
0.0379621
0.0411355
0.029677
0.056842
0.0516635
0.04555
0.0481055
0.0606755
0.001385
0.000434133
0.0415285
0.03279
0.0453035
0.050792
0.031297
0.0782756
0.0454782
0.0601855
0.0414905
0.012912
0.0576685
0.0569535
0.0401235
0.0222085
0.0597955
0.050092
0.0448555
0.038542
0.0136141
0.0448655
0.0555805
0.087892
0.026457
0.017707
0.0509711
0.010797
0.047387
0.0816285
0.0405155
0.028152
0.0400877
0.0378189
0.0058055
0.0557431
0.021707
0.0989885
0.0737235
0.0526405
0.024757
0.056137
0.022992
0.028622
0.0548736
0.0433905
0.022207
0.029345
0.041167
0.03284
0.0569155
0.049857
0.0533105
0.0106305
0.044037
0.0453955
0.11566
0.0500355
0.053537
0.013872
0.0554185
0.052435
0.0331905
0.0155251
0.022357
0.0531606
0.02999
0.0003435
0.00774144
0.0301885
0.0735385
0.00495898
0.0566955
0.0410313
0.0095755
0.036292
0.0457805
0.0353535
0.0343785
0.075287
0.0385685
0.0301666
0.039015
0.0101661
0.008347
0.00548435
0.0144611
0.0413435
0.0352935
0.017087
0.0256355
)


// ************************************************************************* //
