/*--------------------------------*- C++ -*----------------------------------*\
  =========                 |
  \\      /  F ield         | OpenFOAM: The Open Source CFD Toolbox
   \\    /   O peration     | Website:  https://openfoam.org
    \\  /    A nd           | Version:  7
     \\/     M anipulation  |
\*---------------------------------------------------------------------------*/
FoamFile
{
    version     2.0;
    format      ascii;
    class       vectorField;
    location    "0.7/lagrangian/reactingCloud1";
    object      U;
}
// * * * * * * * * * * * * * * * * * * * * * * * * * * * * * * * * * * * * * //


2546
(
(130.384 20.7357 0.000794837)
(133.177 20.8572 0.000284852)
(129.585 25.3753 0.00113726)
(134.541 24.6647 -1.02773e-06)
(139.622 8.9131 -0.000131772)
(142.204 15.6484 -0.00083285)
(144.355 16.8 -0.00103029)
(144.382 9.76627 -0.00142516)
(143.271 2.56434 -0.000255354)
(147.262 8.9401 -0.00059054)
(146.611 5.52193 -6.60948e-05)
(149.328 7.24305 -7.37775e-05)
(146.638 1.30107 -1.82895e-07)
(149.196 4.55274 -0.000623652)
(149.583 3.80072 -0.000289629)
(148.869 1.73187 -0.000150589)
(158.182 4.7515 -0.00427449)
(154.989 4.00973 -0.00130426)
(157.535 3.30962 0.000648691)
(154.406 3.36759 4.31861e-05)
(155.847 2.37876 0.00048825)
(151.094 0.877326 1.02532e-06)
(154.075 1.9644 4.1884e-05)
(152.312 1.33519 7.07432e-06)
(154.076 1.3821 -0.000251334)
(152.497 0.94249 -0.000212674)
(154.79 0.0870564 3.82308e-06)
(152.421 0.277129 -0.00012005)
(153.833 0.667636 3.96122e-05)
(153.711 0.586602 6.21469e-05)
(153.693 0.49806 1.35023e-05)
(153.715 0.377279 -2.08553e-05)
(153.861 0.1116 0.000116715)
(153.653 0.245954 1.90093e-05)
(153.757 -0.0145551 8.95536e-05)
(153.662 0.0671476 4.31045e-05)
(153.393 0.230515 -1.50186e-05)
(153.591 0.000135061 9.07642e-06)
(153.497 0.157733 -2.17834e-05)
(153.558 -0.0211219 8.4998e-06)
(153.539 -0.192109 2.23597e-05)
(113.142 -0.241902 -0.000164069)
(152.874 -0.340358 -6.8288e-05)
(-29.2531 0.0281081 -12.5031)
(72.0251 -14.7202 -0.0140208)
(68.0391 -22.3386 1.96221)
(64.0548 -1.9592 -13.075)
(137.566 -36.7593 3.20536)
(130.025 -35.0153 0.00337434)
(132.536 -28.1584 0.000932804)
(128.574 -35.901 13.9639)
(144.764 -21.99 0.00205675)
(66.4826 -1.85926 -2.25896)
(112.605 -24.2925 0.559394)
(99.6815 -19.2912 1.91787)
(115.452 -24.4737 0.453329)
(129.906 -18.8197 -5.17573e-06)
(121.093 -20.0992 0.00355318)
(124.988 -17.7987 -8.87444e-06)
(131.242 -13.0746 0.00042989)
(133.48 -9.12402 4.41312e-05)
(113.769 -15.2077 -1.22867e-05)
(135.274 -3.47015 1.69623e-05)
(115.725 -14.0075 -6.96257e-06)
(126.189 -7.09137 -5.37479e-06)
(120.442 -9.3826 -4.57245e-05)
(113.265 -10.2247 -9.02389e-05)
(82.1735 -10.7903 1.77801)
(117 -7.86065 0.000609016)
(120.137 -21.9638 -3.67043)
(114.865 -6.82642 0.00118353)
(7.98481 17.6919 -6.82355)
(110.753 -5.60425 0.000830158)
(115.382 -4.65598 -1.87046e-05)
(25.6705 9.79145 1.47393)
(116.152 -3.92931 -4.46437e-05)
(117.658 -3.03295 0.0015813)
(116.954 -2.79874 -2.72557e-05)
(117.231 -1.87967 1.02878e-05)
(118.951 -1.52354 -1.05693e-05)
(111.904 -1.37658 0.000331046)
(112.083 -0.872622 -0.000242349)
(102.324 3.811 -1.0922)
(107.218 2.50559 0.00167186)
(108.918 2.22467 0.000169917)
(117.386 0.0591845 -1.10999e-05)
(113.775 1.28303 -0.000105081)
(113.37 2.36582 -2.612e-05)
(118.257 0.533166 0.000445288)
(117.93 1.34252 0.000452428)
(117.844 1.75829 -1.03435e-05)
(113.904 4.37612 4.36562e-06)
(120.358 0.787786 -1.93795e-06)
(113.674 5.58311 0.00116538)
(119.595 2.33394 -2.01195e-05)
(93.2919 4.80128 -0.713029)
(111.299 6.94301 0.000373667)
(122.961 2.02336 -9.64985e-06)
(120.76 5.30744 0.000295875)
(117.99 7.64246 6.51216e-05)
(122.09 5.04027 -1.13142e-05)
(122.854 5.44446 -3.42572e-05)
(120.551 8.46673 0.000828493)
(125.62 3.16822 3.46452e-05)
(124.594 6.25833 -1.93409e-05)
(115.47 12.0975 0.000199271)
(116.202 13.4807 0.00204685)
(126.469 8.60193 -0.000108004)
(124.584 11.0066 0.000468378)
(128.297 8.29453 -1.81916e-05)
(125.569 13.7298 -0.000183532)
(121.811 18.7682 0.00188911)
(127.84 16.6807 0.000318661)
(134.115 7.1839 -0.000116607)
(298.444 -29.517 2.17646)
(280.355 -16.7732 -0.000219093)
(273.734 -28.5778 -0.00119099)
(265.473 -43.3435 0.553343)
(255.907 -21.9003 0.000168718)
(234.097 -40.5555 1.16961)
(201.097 -54.7696 4.13879)
(224.246 -34.5358 0.000376398)
(204.371 -42.6001 3.12957)
(216.468 -37.6046 6.03226e-05)
(213.919 -29.5109 0.000245715)
(206.113 -28.0241 2.72576e-05)
(193.886 -40.7291 0.0040221)
(172.643 -48.9849 -19.3894)
(187.26 -28.894 0.000102239)
(180.81 -28.3673 5.2353e-05)
(182.828 -17.9292 0.000314092)
(167.381 -38.4063 0.00419493)
(177.33 -10.4788 4.55718e-07)
(404.748 -0.126839 6.05523)
(396.84 -1.65523 -0.000268279)
(389.952 -3.80489 -0.677003)
(364.16 -5.31316 2.76508)
(369.256 -5.7489 2.98469e-08)
(349.998 -10.639 -0.780228)
(342.51 -15.5771 -5.35913)
(338.997 -13.5206 1.44476)
(340.825 -12.7088 -0.547219)
(338.135 -10.0958 -4.69399)
(332.809 -16.7266 4.3581)
(323.726 -12.3164 -0.0020097)
(317.908 -20.1479 -10.6802)
(399.292 2.15595 -3.96527)
(375.413 6.19297 17.9019)
(432.011 -2.01457 2.8839)
(437.994 1.34113 0.796755)
(434.798 -2.08488 4.72761)
(421.945 -2.19616 4.09944)
(428.884 -2.43546 5.57217)
(428.251 -9.08045 -2.07363)
(413.939 -10.0585 -14.3766)
(433.488 1.33097 2.91052e-05)
(427.246 4.19473 4.0505)
(430.04 -11.6837 7.31687)
(431.113 0.362258 1.49281)
(414.726 2.96089 1.3218)
(429.172 1.66608 -2.50275e-05)
(430.231 6.05883 -1.72928)
(422.527 -8.44159 6.07111)
(419.61 -8.62104 5.60052)
(420.827 0.186435 -2.17193e-06)
(414.417 0.236557 -1.49668)
(452.948 -3.27356 -6.77248)
(442.533 -0.0836998 4.72029e-07)
(442.777 -0.0627754 7.83763e-07)
(402.783 -1.37129 1.38173)
(443.342 -0.0130284 1.05588e-07)
(443.252 -5.87679 1.68275)
(424.342 -0.256247 0.0313675)
(441.949 -0.0554508 -2.13289e-07)
(442.133 -0.0412813 1.04609e-05)
(439.409 -1.92241 -6.97379)
(441.51 -0.00676957 -9.05223e-07)
(431.406 -1.01996 3.95981)
(439.274 -7.43881 6.8567)
(435.289 -0.669096 4.22007)
(432.118 -21.2943 -1.90898)
(375.665 7.9249 -8.97529)
(441.032 0.241785 3.48994e-06)
(435.552 -1.12324 1.06709)
(436.398 -3.92878 1.33018)
(437.267 4.06792 8.48185)
(433.62 0.768088 -0.232225)
(451.36 0.729307 3.17998)
(443.929 -0.22232 -0.445232)
(444.85 -0.342305 -1.81564)
(404.947 -8.10145 3.77647)
(405.054 2.76986 4.35213)
(446.512 0.711127 0.421904)
(444.97 -0.127513 0.238596)
(425.531 2.48195 -2.03532)
(444.209 0.0443316 1.39928)
(444.878 3.58084 3.93268)
(445.389 0.0604742 -6.46348e-08)
(423.61 3.21933 3.93076)
(445.704 0.0326358 -3.66892e-06)
(445.761 0.0252852 -3.18604e-06)
(375.01 18.7068 6.43989)
(464.648 -15.0865 -11.1169)
(445.217 0.0152399 1.05187e-07)
(444.573 -2.16125 2.563)
(439.43 -1.45464 -0.417692)
(439.117 -2.87071 5.44561)
(410.367 5.34447 -1.26869)
(443.241 0.0419905 -4.83146)
(443.976 0.00136766 -7.93339e-06)
(433.299 3.673 -3.34991)
(373.33 19.9055 16.4541)
(433.292 -8.40402 0.364655)
(441.388 -4.39862 -2.34839)
(443.498 -0.0363108 -1.12896e-05)
(442.141 -0.165442 0.148804)
(419.88 -8.97433 -2.54271)
(402.482 4.69187 -2.73786)
(447.181 1.67967 -2.27662)
(449.89 1.36859 -1.59482)
(321.009 30.8295 -13.1154)
(447.534 0.00535929 1.49569e-09)
(419.986 -2.49403 0.536778)
(436.985 -14.4078 2.07796)
(444.637 -1.07702 -1.02275)
(447.341 0.00781308 8.48446e-08)
(446.714 -1.0273 -1.67286)
(420.424 -12.8338 2.26526)
(408.145 1.77601 4.31753)
(445.896 -0.697582 -0.940481)
(396.932 4.64461 -6.00757)
(391.38 7.1289 6.30903)
(443.014 2.22351 -0.569232)
(442.902 -5.47023 -1.26716)
(451.703 4.54294 0.30131)
(435.861 -16.3472 -4.43146)
(446.91 0.203568 0.0942926)
(440.138 1.44001 6.12131)
(451.728 -9.059 -8.26631)
(381.6 -6.53366 -13.9858)
(447.387 0.00583718 -1.40458e-09)
(406.513 4.64114 0.0423807)
(446.791 0.0205383 2.97769e-07)
(445.903 -0.218024 -0.147886)
(368.391 10.0316 -1.91864)
(446.804 0.020973 2.10835e-07)
(413.897 5.35031 -0.14258)
(405.571 -0.893363 -0.112611)
(440.94 -11.897 8.60496)
(453.282 -0.886865 -7.7541)
(396.614 -0.550462 -0.00838024)
(450.793 -1.14648 13.9939)
(443.364 -12.2846 1.48895)
(448.186 -0.709798 -2.17649)
(434.984 -0.223562 -0.555346)
(412.028 -1.29872 1.08907)
(446.347 0.0391276 5.47156e-07)
(427.916 3.77255 -1.19621)
(446.496 0.0310328 -2.83878e-07)
(413.8 -0.308942 -0.933132)
(446.797 0.00824601 -1.90135e-07)
(466.774 -19.0048 -4.1434)
(446.279 -0.387176 0.0153392)
(417.402 3.81193 -5.97959)
(432.692 -1.66048 7.5401)
(445.605 -5.50572 -11.4872)
(451.801 1.09299 2.18695)
(450.656 1.7063 6.51755)
(450.799 -4.38738 -7.9844)
(446.203 1.84164 3.70764)
(447.524 0.498896 0.473685)
(445.689 -1.73256 5.30998)
(450.003 2.45847 4.13875)
(447.561 -0.648899 -1.3497)
(449.915 -0.812067 5.29359)
(446.017 0.057917 0.577153)
(449.005 1.37648 -6.91541)
(447.412 0.115675 -1.0651)
(450.867 -1.49565 8.31019)
(450.417 0.497474 -5.38994)
(447.283 0.262038 -0.984978)
(448.116 0.508781 -3.65083)
(448.313 0.232988 0.416474)
(448.012 -1.16696 3.73137)
(447.538 0.2257 2.03883)
(447.78 0.332463 -1.94944)
(451.415 3.96954 1.44792)
(443.516 -0.406252 -4.98321)
(448.188 0.206421 0.267722)
(452.995 0.581564 -6.23336)
(448.742 0.0566943 2.99016)
(446.675 -0.349583 1.27607)
(450.86 0.209678 1.99769)
(446.149 -3.57178 7.5914)
(447.535 -1.41458 1.15909)
(448.615 3.04478 2.17165)
(451.086 -0.592315 9.0348)
(445.721 -0.741804 -3.28684)
(446.88 -0.988773 -1.71674)
(437.987 -5.79315 -6.76276)
(453.444 -1.05531 1.28602)
(449.024 1.03919 0.386523)
(447.784 -0.309098 -1.45298)
(454.271 -1.8373 3.30258)
(450.57 -1.65103 1.39751)
(445.898 -4.10909 1.90686)
(351.728 -0.315676 0.745234)
(397.065 1.16367 0.966906)
(413.188 -7.2094 -3.6061)
(432.317 -10.7782 0.864639)
(369.102 14.7152 3.76247)
(433.992 -0.11666 -0.28268)
(447.395 4.59424 6.28932)
(447.033 -4.75737 0.976609)
(436.46 3.91782 -1.65636)
(448.829 -12.58 12.1053)
(440.95 -18.7259 7.30743)
(423.429 -1.79868 -0.75218)
(445.971 0.110276 -1.75453)
(383.33 -0.527362 -0.0261963)
(420.567 -1.48746 -2.79758)
(448.896 1.26841 -3.12691)
(390.718 10.1386 -17.314)
(440.914 -2.05681 -1.10646)
(444.815 -1.50627 0.434901)
(425.624 -3.40675 0.344013)
(449.733 0.0965955 0.285598)
(447.696 0.00469286 5.59324e-07)
(416.767 0.487245 -1.07207)
(425.36 9.81814 5.20647)
(447.923 0.00242094 -3.47234e-07)
(421.274 2.3576 -1.02365)
(447.692 0.00481258 -4.57753e-07)
(438.428 2.46638 5.76195)
(340.565 -1.06663 10.433)
(436.141 -2.23568 8.8733)
(387.67 4.89229 14.5236)
(445.809 1.54826 -6.29273)
(454.123 -6.48206 6.27142)
(367.841 8.25732 -3.14195)
(349.548 -0.339313 -1.12978)
(431.154 -0.810259 -1.82043)
(448.328 0.169212 -0.153273)
(369.368 8.51669 -5.9462)
(447.5 0.00662922 3.45687e-08)
(444.726 -2.19324 -1.07304)
(435.213 -11.011 3.61731)
(446.274 0.131066 -0.260126)
(446.392 -7.41428 -5.99445)
(446.65 -1.48047 -0.501559)
(401.505 1.70084 -4.97239)
(443.207 1.27868 -0.164038)
(454.15 -11.1065 1.65234)
(364.678 10.3893 -13.9621)
(384.915 18.636 -7.002)
(450.347 1.18006 -0.354403)
(425.945 0.270781 -0.276526)
(341.686 3.88182 -0.824847)
(447.736 -9.05587 -1.73688)
(446.711 -8.24171 -0.722985)
(447.434 0.0076474 2.52033e-08)
(447.708 0.00368791 3.17144e-08)
(452.781 0.722608 5.02889)
(432.283 6.96355 -3.21585)
(413.542 -13.4412 5.03954)
(447.539 1.07467 -1.02969)
(449.894 0.11954 3.03875)
(455.682 3.80096 -3.1342)
(445.853 -1.82678 -5.53943)
(448.248 0.0203983 0.372078)
(447.513 0.373088 1.31946)
(449.239 -0.222682 -0.803283)
(442.406 0.996114 -2.12369)
(449.657 0.643962 -2.85377)
(448.843 -0.380472 -3.27315)
(449.273 0.606971 0.632016)
(444.027 1.17768 -4.69144)
(436 0.648134 -0.892624)
(444.141 -3.51416 8.76928)
(447.627 0.586227 0.185007)
(443.127 -1.98637 -1.52031)
(448.964 -0.533065 -0.977563)
(452.034 -1.89437 3.36813)
(452.101 1.69608 -0.303974)
(446.796 0.144747 -2.03051)
(448.749 -0.746653 0.473228)
(448.123 1.17488 1.78048)
(448.201 -0.704355 1.17631)
(446.863 2.73797 -1.82101)
(451.015 -3.48656 2.25976)
(448.5 0.258197 0.304543)
(444.642 -1.57518 2.20489)
(452.458 -0.883026 3.94865)
(445.328 0.0841882 -2.78928)
(448.068 -0.0156829 -1.32771)
(446.57 0.247747 1.17335)
(447.327 0.0291383 -5.17203)
(447.614 -0.148348 -2.25875)
(447.705 0.135016 3.88862)
(448.332 -0.409456 1.61117)
(444.533 -1.74711 0.612552)
(449.697 1.36184 0.870977)
(446.493 0.813869 -0.911)
(444.45 0.0963616 -4.12158)
(447.336 -0.526828 1.47242)
(450.748 -1.07286 4.77632)
(446.528 0.561001 1.19848)
(450.458 0.452611 2.08577)
(446.379 1.58441 -1.06189)
(447.919 -1.76326 -1.24899)
(448.954 0.982028 4.56158)
(447.699 -0.104837 -0.346691)
(449.423 1.60163 1.37195)
(445.396 -0.240643 -2.39429)
(444.304 -0.299741 -3.17937)
(449.867 -0.867924 -1.4238)
(451.631 0.910683 -7.58007)
(446.532 -0.334979 -0.993584)
(447.918 0.134132 0.365827)
(448.118 0.0188207 -0.0365112)
(449.673 0.200105 -1.77936)
(448.281 -0.277457 0.575656)
(442.091 -0.408679 1.41209)
(453.946 -4.21088 3.66184)
(448.123 -2.50907 3.80305)
(445.155 -1.0434 -5.85007)
(448.557 1.44823 -1.00191)
(450.687 0.0624632 4.37974)
(450.827 1.77278 5.24057)
(451.418 -3.77504 5.07422)
(446.605 1.46908 5.56964)
(448.895 -0.538129 -1.07595)
(448.85 0.311823 1.42823)
(448.846 -1.38059 3.69034)
(448.03 0.233131 -0.788246)
(340.21 -7.71985 4.71713)
(379.552 -2.20612 -16.3282)
(446.434 -0.476664 -5.44511)
(347.63 11.6383 -0.800332)
(418.05 2.23483 4.83824)
(445.695 -8.92527 0.705666)
(435.026 0.621193 -2.29869)
(433.728 -6.39017 0.777936)
(443.909 -1.25046 -1.09721)
(447.064 -1.11689 0.327982)
(412.493 1.57865 -11.5673)
(416.5 -0.125619 -3.08559)
(448.148 -3.14601 -0.650545)
(439.005 6.60417 -4.93352)
(446.044 -2.54593 3.03132)
(451.723 -6.50646 2.80936)
(428.474 -11.8707 -1.06558)
(435.847 -5.36595 -3.45011)
(422.65 -0.534846 0.0408285)
(443.331 1.50301 -0.509613)
(447.279 1.19121 1.37874)
(358.115 -4.52372 1.75076)
(424.868 -23.3529 7.29003)
(419.407 -0.609433 0.13977)
(450.125 -6.80752 -4.90251)
(399.432 0.581514 0.651638)
(442.621 2.25511 0.313363)
(452.196 -16.1391 -1.84477)
(363.171 6.42151 1.47551)
(446.315 -2.93398 1.26514)
(446.622 -8.13814 5.90707)
(445.509 -6.73743 -2.80005)
(418.213 -2.8394 -6.57252)
(421.563 -4.50223 6.00664)
(445.575 0.484921 1.54066)
(354.944 -3.27804 -2.71482)
(432.035 -0.830165 1.96038)
(452.818 5.47724 0.825059)
(325.116 5.27314 11.7416)
(374.511 -5.42419 17.0355)
(446.296 -1.17421 0.969598)
(446.719 -6.19676 -9.01383)
(434.258 -10.2603 -12.086)
(436.122 5.35233 -4.45341)
(396.704 1.15869 -5.0979)
(450.313 -13.9175 -6.63061)
(439.637 5.60068 6.36917)
(423.762 -2.55698 3.27991)
(439.055 -0.790964 0.844256)
(396.092 -2.46271 1.34542)
(449.794 -16 0.288017)
(434.941 11.9343 11.1678)
(386.393 -1.93908 2.58306)
(442.918 7.46817 1.76884)
(448.025 0.00105303 -2.67335e-07)
(392.585 0.480833 2.28446)
(446.757 -2.58989 0.415488)
(430.293 2.49736 -8.34688)
(442.52 0.131306 -1.65497)
(430.184 -0.289001 -0.29874)
(376.57 7.96887 -13.7449)
(447.97 0.00167041 4.64598e-08)
(418.843 4.10452 -1.59829)
(397.552 6.49197 4.69871)
(434.685 -1.18854 2.22582)
(447.979 0.00200108 3.49651e-08)
(434.124 -2.88407 2.59327)
(422.834 6.237 9.95397)
(363.229 6.72453 2.73026)
(447.885 0.00288624 7.62266e-08)
(452.646 3.51106 4.77867)
(449.761 -0.979345 -2.84033)
(446.416 1.09185 4.93777)
(447.015 0.134306 1.10652)
(446.805 -0.127203 3.28113)
(447.998 1.6274 3.25795)
(448.05 -0.0560365 2.66036)
(446.924 0.93878 -2.7459)
(449.546 -1.5312 -0.734068)
(454.832 -1.47313 -4.15807)
(447.044 -0.248406 2.25396)
(447.09 -0.278603 -1.55116)
(453.238 -8.41725 1.43769)
(446.896 -4.63821 6.92761)
(445.335 -2.6319 2.50416)
(448.24 -0.0612247 -1.28261)
(443.716 -0.42387 -2.51037)
(444.411 -0.220179 4.33393)
(448.591 2.31436 -1.12398)
(451.332 -1.1623 4.31001)
(448.195 0.911798 1.23068)
(441.212 1.6207 3.1349)
(448.166 -1.15324 0.948896)
(447.356 -0.122926 -2.02574)
(453.484 -3.39199 3.11543)
(446.211 -0.164007 4.53607)
(449.378 -1.43331 -1.62805)
(447.923 0.0310846 0.396509)
(448.328 -0.224011 0.221184)
(448.704 -0.112746 -0.19097)
(448.204 0.0752096 3.36084)
(447.681 0.163396 -1.86587)
(447.705 0.00274532 -0.793158)
(448.465 -0.386476 0.158442)
(449.547 1.56681 2.57107)
(448.906 0.851541 0.696889)
(447.94 -0.714966 -1.6138)
(450.82 0.315105 -8.44555)
(447.132 0.360605 0.555153)
(448.073 0.78808 -5.43836)
(450.481 -0.241868 1.55047)
(446.795 -0.593119 0.814043)
(447.385 0.0269804 2.96413)
(448.269 0.116976 2.75219)
(450.076 1.41169 -1.39359)
(445.594 -0.494356 0.215745)
(447.445 -2.34984 2.66982)
(442.993 -1.35327 -4.75943)
(449.212 -2.55077 -5.57596)
(447.673 1.98038 -3.05084)
(449.704 0.0293863 4.50886)
(448.738 1.08735 -2.03557)
(448.177 -4.87014 3.51883)
(449.195 3.49573 5.78884)
(446.768 -0.186276 -0.123575)
(449.075 0.0435149 -0.117913)
(449.524 -0.646153 -3.05316)
(448.004 0.397636 -0.771436)
(447.776 0.91378 -0.566561)
(450.546 -0.878119 5.81271)
(453.448 0.910542 1.66377)
(439.963 -0.883811 -3.04938)
(447.543 0.0309846 -1.62312)
(448.673 -0.264844 -2.105)
(443.896 -3.16683 0.0833583)
(448.989 0.240715 0.851168)
(448 -0.468124 2.23176)
(447.829 -0.146677 -0.669928)
(450.447 -0.628381 -0.528235)
(447.677 -1.33962 2.01641)
(448.604 0.234006 -1.95404)
(447.545 2.43622 0.622891)
(440.121 -0.834629 2.38114)
(448.03 -1.27422 1.58517)
(448.109 -0.175458 0.372202)
(447.376 -0.878387 -3.33014)
(450.214 -0.602532 2.39256)
(447.992 -0.397299 0.116856)
(447.511 0.762498 2.34175)
(447.45 -0.412284 -1.35864)
(449.311 0.455847 1.91095)
(446.579 -0.337285 3.30424)
(447.473 7.49135 -2.251)
(445.066 -1.18266 3.21838)
(448.262 -0.671928 0.483388)
(446.364 -0.227038 -2.20469)
(447.367 -8.17567 -4.00939)
(446.968 0.0124384 1.04877)
(448.469 -1.55366 -2.37535)
(447.432 0.530044 -1.10626)
(448.451 3.6863 -5.03223)
(449.968 -0.284035 3.56061)
(449.518 -0.470657 1.85193)
(447.992 0.38679 0.0936461)
(445.27 -0.777259 1.88314)
(446.349 -0.313374 -2.66043)
(448.698 0.758384 -0.279287)
(449.542 -0.118942 0.757981)
(450.669 -0.383936 0.771161)
(448.39 1.44334 -6.02909)
(446.045 -0.225217 -2.06981)
(452.097 3.59266 3.90105)
(448.582 -0.580125 2.00167)
(448.537 -2.14449 1.53519)
(450.955 1.44206 -2.65151)
(452.396 -1.33715 -6.95284)
(266.855 5.19179 -4.30983)
(449.979 -1.1066 1.32759)
(448.733 -0.799365 0.354171)
(307.239 4.60569 -0.716137)
(327.466 -0.651835 9.61582)
(417.185 -0.557786 0.0194263)
(446.048 -2.84152 -1.71554)
(299.117 1.36217 -0.453153)
(450.143 -3.17515 0.709893)
(413.36 -6.89398 -0.367013)
(356.414 -3.39634 2.30125)
(428.386 -2.72744 -4.10738)
(446.482 1.08676 0.315331)
(362.351 6.82755 5.38127)
(451.04 0.583095 2.10723)
(451.078 2.17888 -1.55312)
(375.315 6.30683 -3.69511)
(385.367 -1.30915 -0.380607)
(425.674 -2.29181 -18.0896)
(428.934 -1.74961 -3.46258)
(402.128 4.23118 6.93298)
(445.567 -0.537894 2.08227)
(368.185 -2.99728 9.90953)
(442.092 1.73711 -2.10764)
(414.072 4.23638 -0.754925)
(380.435 -1.12126 -4.49477)
(344.244 -3.56719 4.96693)
(388.94 -7.98968 -2.33964)
(396.595 8.45374 1.52422)
(447.584 1.24588 0.568449)
(433.929 -1.72982 0.778888)
(450.046 -0.0327118 2.08903)
(445.247 3.34323 0.531057)
(450.005 -16.5027 -5.39633)
(433.784 -1.05324 -3.94381)
(420.395 0.485584 2.53585)
(434.7 1.39314 -7.20149)
(439.763 -1.47973 1.11492)
(389.363 -0.677877 -0.615436)
(448.072 0.208967 0.335281)
(338.208 21.5578 -6.29066)
(447.206 -1.04807 -2.19616)
(432.229 2.40666 0.313125)
(450.181 -5.05675 -4.02906)
(449.191 0.795114 -4.57806)
(441.94 1.83924 -0.99742)
(403.293 -1.19538 1.0993)
(435.743 -0.286011 -0.061617)
(448.325 -0.925884 0.0526285)
(447.553 -0.0715503 2.86158)
(425.143 -7.24007 -8.88853)
(360.389 8.50265 -11.6335)
(440.937 -5.15944 -0.153977)
(343.326 8.70766 2.84089)
(360.645 -4.45921 6.23342)
(274.765 -8.38296 -4.10498)
(440.496 -0.133357 -0.00122454)
(357.576 9.81702 -6.4162)
(445.879 -4.95515 0.189453)
(408.926 -3.40506 3.62997)
(435.89 -3.28147 -4.43434)
(395.518 -1.2708 -8.06177)
(432.804 -1.68173 0.793968)
(402.097 -12.463 5.05998)
(449.703 -4.79183 0.58686)
(423.553 -2.8363 0.695721)
(352.046 0.313823 -0.281692)
(415.926 -0.353474 -2.92236)
(425.8 -0.0894799 -0.259577)
(424.073 -7.65273 -11.33)
(426.173 0.0763702 -2.54087)
(452.455 2.44266 5.40839)
(419.223 -0.850782 6.72944)
(447.934 0.132234 -0.86071)
(448.429 -2.00824 3.81749)
(447.658 -0.0478114 3.07678)
(415.734 1.77865 9.71291)
(447.92 0.0784502 -2.50562)
(455.274 2.93156 4.8655)
(448.785 -0.51835 1.18177)
(431.942 0.395702 0.74402)
(434.505 5.84259 -29.4763)
(452.801 3.14981 11.2112)
(422.061 -2.90805 3.24601)
(445.157 0.491114 2.57893)
(448.261 5.94898 -2.43437)
(407.801 -1.05285 1.9569)
(423.53 -9.55472 -12.0323)
(443.756 -3.78656 5.29842)
(414.414 1.56113 4.76814)
(435.958 1.27881 3.58607)
(446.25 1.6792 9.33568)
(416.825 0.294182 1.28144)
(427.499 -4.1597 15.828)
(447.924 0.243717 0.44478)
(426.996 -8.24688 8.14523)
(445.714 0.262188 2.98162)
(418.177 -9.59977 10.0858)
(425.131 -0.573626 1.22767)
(445.195 -0.65569 -0.351816)
(444.546 -11.4964 -2.7457)
(436.771 5.69213 -7.52796)
(446.729 -0.675865 -0.550674)
(446.976 0.228459 -0.279136)
(441.634 -2.2999 -1.40548)
(437.376 2.057 -4.93193)
(423.982 5.83295 -24.7576)
(434.559 0.0269911 -0.661046)
(427.114 4.18619 8.17417)
(416.623 -0.129871 -1.95396)
(424.653 0.424223 0.721827)
(428.251 -4.04769 -4.5776)
(446.017 -0.00914258 0.697672)
(407.231 -4.5759 -16.0556)
(447.954 0.0203202 0.243469)
(436.5 0.961212 3.20315)
(429.715 -1.49564 5.21751)
(443.484 0.0554815 -1.54202)
(447.515 -2.99801 -1.60135)
(444.916 0.102582 -1.79071)
(447.653 0.300613 -0.553838)
(446.118 -2.88824 -1.55986)
(444.924 1.38969 -3.3389)
(414.391 0.257963 0.326733)
(446.471 1.10241 -2.3113)
(410.144 0.0552352 6.80394)
(449.875 0.0938086 0.273124)
(438.173 5.82507 -3.78264)
(449.268 -0.439835 -0.491884)
(443.564 -0.0968556 -2.15731)
(430.766 -1.09287 4.69147)
(420.048 -3.69866 -43.8621)
(437.574 -0.149336 0.885292)
(447.5 -0.563847 -0.217555)
(447.383 -0.356025 -1.64243)
(438.374 -0.0846285 -2.55429)
(428.401 0.848457 -5.35271)
(449.849 -3.3567 -2.94616)
(432.077 0.0531224 0.593502)
(427.261 6.92467 -7.62937)
(443.442 -0.577803 -1.23334)
(444.75 1.28967 1.03244)
(444.97 -1.13285 -4.58101)
(429.506 0.586082 -0.700716)
(444.521 -3.22038 -1.64457)
(426.565 -3.34107 -4.49114)
(442.229 0.0986045 -3.00764)
(419.906 -1.22199 40.4706)
(416.21 -1.25948 -3.09383)
(445.137 1.66153 -1.9364)
(438.814 -0.388663 -5.81165)
(430.852 -1.99182 -8.76805)
(446.388 1.60801 -1.04052)
(444.555 0.11998 3.30254)
(451.171 0.816908 -8.74035)
(420.333 -2.27704 1.55966)
(428.542 4.31546 6.99881)
(439.914 -0.217849 0.914517)
(449.21 -1.80649 1.19273)
(450.333 0.814854 -0.232865)
(416.298 -0.281759 1.36154)
(411.454 -1.95896 1.98171)
(410.795 -0.046213 1.58479)
(447.55 2.57065 2.16558)
(424.843 -0.174002 -4.43334)
(447.207 -0.290892 -2.12528)
(447.503 -2.63129 4.81419)
(443.364 -0.793317 4.07039)
(444.032 6.59352 8.33743)
(442.677 -4.54163 2.64378)
(448.504 1.38102 0.953012)
(415.715 1.88929 2.5439)
(445.989 -0.860778 1.91781)
(445.475 1.46811 -1.2558)
(424.955 2.71863 2.73319)
(446.127 0.171035 -4.74836)
(452.323 -7.48714 8.67746)
(418.169 -0.683927 -1.62725)
(442.587 -2.35568 -2.51671)
(411.042 -29.56 -28.6692)
(431.726 3.78876 -3.11054)
(446.618 7.93523 13.8273)
(450.902 -3.22493 9.10413)
(423.63 -2.61233 4.25998)
(429.706 -2.87524 10.3861)
(401.284 -4.06379 16.9492)
(447.616 0.000776364 -2.75533)
(444.034 -10.4079 -5.58633)
(440.466 -3.28692 -11.4864)
(447.47 -1.01002 1.97231)
(432.3 0.0136544 0.398704)
(438.57 -0.0564064 -2.24788)
(421.928 -2.27513 11.6542)
(416.041 -6.39694 -9.79748)
(440.124 -0.185895 -1.70686)
(410.916 1.91104 -2.8715)
(442.046 -11.8036 -7.9042)
(450.351 -0.748602 7.4332)
(447.753 -0.618309 0.563187)
(428.247 1.29192 2.10552)
(445.599 -9.61508 15.7789)
(409.621 -8.70139 -21.4153)
(441.537 -0.193894 1.35538)
(447.562 -0.449063 3.29168)
(442.349 -0.162266 0.954766)
(448.375 3.80172 -4.96113)
(437.865 -0.0711179 1.30754)
(449.13 0.953118 2.30716)
(423.941 -20.4334 -13.256)
(399.055 -20.5948 14.0901)
(447.711 -1.05045 -3.77635)
(448.526 -1.54734 4.52994)
(448.33 -0.0179029 -1.43215)
(436.601 0.0606527 -0.367513)
(411.04 -5.90107 -12.5426)
(427.196 1.70817 2.07049)
(440.484 3.44264 -5.47393)
(446.542 0.770725 -0.866065)
(413.747 -15.6933 -7.90799)
(423.349 -19.4157 -35.7226)
(439.946 0.00436 2.33057)
(449.06 -4.568 -10.5161)
(444.196 1.42007 -2.44821)
(448.634 0.0498775 -1.71632)
(441.249 -0.483616 3.05078)
(447.315 0.059042 0.0599798)
(417.773 -0.160531 2.21754)
(446.65 0.0287899 -0.51753)
(439.206 1.79399 -2.85975)
(414.976 10.3622 13.5098)
(422.778 0.0234604 0.020439)
(410.332 -0.0476694 0.340406)
(434.713 -3.62719 -9.34153)
(424.468 -3.51792 5.3545)
(420.424 -5.54738 30.3312)
(417.943 -0.132715 1.40178)
(441.85 -1.31827 15.2563)
(434.292 -1.87529 1.79362)
(448.077 0.271748 -1.45226)
(434.618 8.38089 -2.13916)
(429.652 0.505496 2.18092)
(422.285 4.50333 -14.1204)
(448.377 -0.49099 3.46288)
(418.884 0.242407 0.28725)
(450.701 -1.22944 -1.0237)
(448.298 0.578343 -3.55338)
(442.329 -2.27209 9.60184)
(444.002 -0.0746707 0.375758)
(428.032 -0.349215 2.06996)
(445.577 1.65697 -8.60968)
(415.87 -2.07963 10.9235)
(435.985 9.03356 2.73622)
(448.93 -0.88991 6.44605)
(448.255 -0.412045 0.442335)
(444.547 0.442136 -1.85577)
(444.945 0.0110908 0.642456)
(442.764 0.0808604 -0.0790934)
(447.458 0.170032 -0.264643)
(446.231 -2.07065 9.03343)
(450.518 0.228203 -0.800652)
(444.782 -0.0679009 -2.02789)
(408.819 -10.3501 8.23424)
(411.52 13.0327 24.5615)
(447.808 -0.0623517 -0.335756)
(443.566 0.1319 -0.573101)
(422.617 -1.19504 -2.33512)
(444.087 -1.83673 3.4592)
(300.76 5.77915 -2.55508)
(433.992 -2.97585 18.031)
(415.647 -9.44934 -3.99216)
(253.074 28.3636 -13.7038)
(316.295 9.71172 3.38615)
(307.523 9.69608 -45.7336)
(434.971 -4.62305 -1.5216)
(264.917 2.18741 6.08345)
(350.594 9.55288 -2.97052)
(382.508 3.91786 -5.27415)
(390.393 3.29129 2.4296)
(386.494 8.19841 -18.3499)
(334.277 5.00289 14.5871)
(306.666 -3.23088 7.05637)
(260.116 10.5019 6.85874)
(401.354 -0.812761 -3.88627)
(372.116 1.76641 3.63284)
(399.611 -0.635887 -0.253795)
(382.62 2.67058 -0.148737)
(378.35 0.68457 3.37303)
(406.299 1.54913 -1.33659)
(384.223 13.2344 11.3016)
(401.409 3.64005 -2.36675)
(415.086 2.46993 -1.04951)
(393.824 1.54382 3.97533)
(416.268 1.70791 -3.94476)
(309.098 8.79162 1.60934)
(342.794 -15.1284 17.5177)
(397.925 2.53464 -10.3797)
(393.012 -2.69399 -3.1387)
(404.825 0.067741 5.23474)
(371.235 4.19762 -6.28396)
(423.157 10.8156 -3.9018)
(391.281 -1.71927 0.0760115)
(397.515 -5.5326 4.02058)
(414.456 -3.84647 4.72492)
(420.887 0.483618 -6.28792)
(417.446 -0.0926949 -2.60764)
(419.231 2.88739 0.880654)
(410.015 -0.733705 -1.80548)
(367.822 0.0438983 2.21379)
(352.568 15.3827 -14.6277)
(367.379 40.6655 -32.9848)
(408.343 -3.77981 -0.54947)
(428.973 -16.5926 -8.23268)
(417.915 -8.87307 -15.1023)
(407.663 0.39737 -3.58502)
(419.71 -5.95662 -1.75814)
(423.197 -11.506 -0.801619)
(312.745 1.55663 0.529348)
(359.363 7.41434 5.76723)
(405.7 0.147436 -0.396731)
(362.507 5.43018 -9.76571)
(410.947 -5.74182 -2.34962)
(412.706 -4.18729 -2.87989)
(443.876 -2.0114 0.924924)
(339.72 -7.64178 -5.22296)
(396.02 3.90993 -2.78785)
(405.88 -3.11394 0.682445)
(408.805 0.293384 -0.961028)
(381.518 -0.407693 9.87367)
(402.116 -1.76247 3.8624)
(363.548 6.76393 -2.49451)
(417.592 0.501324 2.20868)
(310.532 12.3016 4.24114)
(432.988 -3.90606 -2.88048)
(436.091 0.926344 0.370626)
(387.852 2.03917 3.21534)
(405.966 0.276206 3.17046)
(425.39 -0.185431 -0.907404)
(367.801 -12.8739 4.82026)
(431.047 7.54174 -0.324907)
(426.871 -6.04081 1.00621)
(320.054 9.47586 2.98642)
(419.505 -1.79929 0.656564)
(425.53 -0.974505 -1.03454)
(311.579 10.3924 21.2163)
(441.134 2.276 3.5965)
(418.819 -1.14908 1.52938)
(390.459 -40.1214 1.21667)
(375.888 4.63971 -0.312523)
(426.421 -2.96447 -8.17116)
(432.163 -2.10472 -1.63326)
(430.405 -8.74204 6.89158)
(435.369 -2.02095 0.0473418)
(312.318 23.9974 5.48601)
(353.285 -7.84861 -9.76306)
(409.44 2.64561 -0.826057)
(407.367 7.50396 2.9153)
(251.161 14.7353 -0.913703)
(427.839 1.51972 -7.99019)
(344.584 -9.30454 2.75106)
(348.278 9.88921 6.3691)
(446.309 0.518207 -1.00069)
(344.599 4.89764 -19.5569)
(378.477 6.36748 6.61079)
(435.407 2.87966 0.497969)
(446.555 2.52345 -0.437094)
(407.066 -3.42513 -0.844383)
(364.163 13.8793 -12.4945)
(365.075 4.25125 9.38109)
(379.985 -19.1485 -1.56385)
(373.01 14.9408 9.36869)
(441.593 -2.72923 -2.84041)
(349.569 7.11638 -4.66108)
(404.98 4.55108 9.72833)
(331.552 9.73073 13.0724)
(427.151 -5.69338 -8.82648)
(409.731 2.15483 -9.48029)
(447.416 0.195108 -0.787776)
(443.234 0.251738 3.21089)
(422.601 2.51553 -6.91597)
(336.541 18.8901 0.0450101)
(422.171 -9.08379 8.05666)
(350.747 13.4133 9.31794)
(338.655 8.54999 5.24137)
(407.403 0.875263 2.66258)
(271.362 13.8881 6.47102)
(326.345 3.41427 19.7077)
(414.536 -0.866774 -0.158144)
(440.217 -0.100076 -0.624861)
(408.7 0.817973 2.75618)
(426.331 -1.74367 -1.72232)
(446.906 -8.59457 -6.27264)
(376.876 9.60225 -0.0780012)
(405.639 0.489426 16.9154)
(440.175 0.527464 8.01686)
(343.628 15.914 -0.0753837)
(426.771 -0.862994 -0.659588)
(425.545 -4.25679 4.50679)
(406.276 0.220148 -9.33162)
(410.716 2.38515 -3.6537)
(382.541 -13.1809 -10.3714)
(449.439 0.512224 -0.992299)
(349.808 -0.134155 -6.90545)
(378.012 -7.7946 -20.3287)
(384.791 2.25672 1.38677)
(421.121 -7.32603 -2.62622)
(407.977 -3.58368 -2.93553)
(394.08 -5.78618 -13.5017)
(384.202 2.32099 16.988)
(375.926 -1.64804 -4.7151)
(396.549 -5.64315 -21.2548)
(343.663 -0.579559 15.4226)
(379.22 -0.422329 2.58394)
(393.623 6.49223 -6.88405)
(374.425 5.17346 1.60962)
(369.517 9.08726 8.55328)
(394.831 -0.364607 -3.99761)
(398.577 28.6038 20.3046)
(366.901 -0.46933 5.81264)
(382.909 -1.39783 -6.84487)
(382.009 0.27442 3.54299)
(340.519 -5.25614 -12.4059)
(358.84 -0.581502 3.29986)
(397.058 1.31052 2.83331)
(410.304 2.15148 12.5656)
(374.821 0.752359 -20.4421)
(398.124 5.8188 3.59142)
(415.07 6.39151 -11.4962)
(417.732 3.01135 10.1306)
(374.222 -2.4922 12.1165)
(421.493 -10.0144 4.65214)
(373.843 -5.29463 -7.85837)
(372.368 0.893351 -29.2638)
(361.292 6.37924 10.4502)
(375.939 4.89624 -35.9993)
(384.317 -0.772886 -1.26134)
(358.035 6.08852 -24.2396)
(354.702 -3.81894 15.0369)
(393.882 -1.13841 2.79071)
(360.768 -0.633177 -3.59208)
(394.675 -1.91754 2.08542)
(365.705 13.901 7.06447)