/*--------------------------------*- C++ -*----------------------------------*\
  =========                 |
  \\      /  F ield         | OpenFOAM: The Open Source CFD Toolbox
   \\    /   O peration     | Website:  https://openfoam.org
    \\  /    A nd           | Version:  7
     \\/     M anipulation  |
\*---------------------------------------------------------------------------*/
FoamFile
{
    version     2.0;
    format      ascii;
    class       vectorField;
    location    "0.7/lagrangian/reactingCloud1";
    object      UTurb;
}
// * * * * * * * * * * * * * * * * * * * * * * * * * * * * * * * * * * * * * //


2546
(
(0 0 0)
(0 0 0)
(0 0 0)
(0 0 0)
(0 0 0)
(0 0 0)
(0 0 0)
(0 0 0)
(0 0 0)
(0 0 0)
(0 0 0)
(0 0 0)
(0 0 0)
(0 0 0)
(0 0 0)
(0 0 0)
(0 0 0)
(0 0 0)
(0 0 0)
(0 0 0)
(0 0 0)
(0 0 0)
(0 0 0)
(0 0 0)
(0 0 0)
(0 0 0)
(0 0 0)
(0 0 0)
(0 0 0)
(0 0 0)
(0 0 0)
(0 0 0)
(0 0 0)
(0 0 0)
(0 0 0)
(0 0 0)
(0 0 0)
(0 0 0)
(0 0 0)
(0 0 0)
(0 0 0)
(0 0 0)
(0 0 0)
(-18.8044 2.33154 -12.5032)
(-0.00759305 0.00555431 -0.0138699)
(2.14668 -5.23264 1.9637)
(1.11605 5.61382 -13.0747)
(3.95129 -5.45452 3.20399)
(1.13565 -6.4426 0.00351556)
(0 0 0)
(-2.77022 -12.6112 13.9645)
(0 0 0)
(-8.24064 7.81051 -2.25871)
(3.28097 -1.11883 0.554886)
(-0.76673 0.0758218 1.91203)
(-0.809093 -1.45422 0.448849)
(0 0 0)
(0 0 0)
(0 0 0)
(0 0 0)
(0 0 0)
(0 0 0)
(0 0 0)
(0 0 0)
(0 0 0)
(0 0 0)
(0 0 0)
(-8.92736 -7.17452 1.77523)
(0 0 0)
(10.6198 -11.1684 -3.6703)
(0 0 0)
(-9.497 13.9035 -6.82559)
(0 0 0)
(0 0 0)
(-6.47265 7.5028 1.47158)
(0 0 0)
(0 0 0)
(0 0 0)
(0 0 0)
(0 0 0)
(0 0 0)
(0 0 0)
(0.252724 0.392526 -1.09278)
(0 0 0)
(0 0 0)
(0 0 0)
(0 0 0)
(0 0 0)
(0 0 0)
(0 0 0)
(0 0 0)
(0 0 0)
(0 0 0)
(0 0 0)
(0 0 0)
(-4.6037 -1.33435 -0.713164)
(0 0 0)
(0 0 0)
(0 0 0)
(0 0 0)
(0 0 0)
(0 0 0)
(0 0 0)
(0 0 0)
(0 0 0)
(0 0 0)
(0 0 0)
(0 0 0)
(0 0 0)
(0 0 0)
(0 0 0)
(0 0 0)
(0 0 0)
(0 0 0)
(3.19648 -4.19248 2.17895)
(0 0 0)
(0 0 0)
(0.294857 2.75582 0.554945)
(0 0 0)
(-1.01062 3.31166 1.16991)
(0.268895 -1.44524 4.13743)
(0 0 0)
(-4.3806 4.78025 3.1296)
(0 0 0)
(0 0 0)
(0 0 0)
(0 0 0)
(-12.071 -9.80371 -19.3925)
(0 0 0)
(0 0 0)
(0 0 0)
(0 0 0)
(0 0 0)
(-2.42734 0.411173 6.05526)
(0 0 0)
(0.667175 -0.0147884 -0.67553)
(-4.23338 3.98353 2.7653)
(0 0 0)
(1.41866 3.09529 -0.780336)
(2.51306 -3.74033 -5.35934)
(-0.896546 -0.175445 1.44499)
(3.80199 -1.41816 -0.547253)
(6.19472 1.23785 -4.69355)
(6.07777 -0.173052 4.35817)
(0 0 0)
(-7.61404 -2.24821 -10.6806)
(2.45853 1.16757 -3.96553)
(8.73731 4.92824 17.9017)
(-6.52946 -3.18011 2.88364)
(0.182233 -0.0704862 0.796749)
(-1.84404 -3.55046 4.72744)
(-13.3025 -4.00406 4.0994)
(-5.5768 -4.58858 5.57209)
(-5.88218 -11.242 -2.07364)
(-19.8709 -12.1732 -14.3765)
(0 0 0)
(-3.46191 1.92745 4.05048)
(-0.41812 -13.5084 7.31683)
(6.50335 -2.22633 1.4928)
(-0.224115 0.474185 1.32145)
(0 0 0)
(3.15139 3.69611 -1.72927)
(-1.69413 -10.1586 6.07108)
(-4.07867 -9.98268 5.60053)
(0 0 0)
(-2.26466 -0.515562 -1.49667)
(10.6021 -5.5722 -5.05303)
(0 0 0)
(0 0 0)
(1.2337 -0.822885 1.38172)
(0 0 0)
(3.08753 -5.72656 1.68273)
(-0.0203785 0.0566846 0.031202)
(0 0 0)
(0 0 0)
(-2.29344 -1.86424 -6.97382)
(0 0 0)
(-5.10427 -0.994892 3.95974)
(-1.75102 -7.62811 6.85662)
(1.74622 -0.985164 4.22005)
(-2.51865 -21.7755 -1.90904)
(-17.6909 7.66611 -8.97534)
(0 0 0)
(1.76219 -1.79672 1.06697)
(-2.81876 -4.60906 1.32996)
(-2.34479 3.36246 8.48183)
(-3.57624 -0.247551 -0.232228)
(6.87112 -3.17998 0.729307)
(-2.51223 -0.384192 -0.316314)
(-0.0173718 -0.622119 1.73974)
(-6.91248 -7.80232 3.77647)
(0.134069 3.13138 4.35212)
(0.952883 0.645938 0.421903)
(-0.10784 -0.202597 0.238585)
(-3.24041 2.59412 -2.03533)
(-1.01652 -0.0306557 1.39928)
(0.115501 3.50419 3.93268)
(0 0 0)
(-0.72576 3.38526 3.93074)
(0 0 0)
(0 0 0)
(15.6707 18.5789 6.43991)
(20.4758 -15.1393 -11.1169)
(0 0 0)
(0.0644708 -2.19525 2.56301)
(-3.59739 -1.45779 -0.417694)
(-5.05233 -2.89146 5.44562)
(6.22149 5.75834 -1.26868)
(-0.339932 0.0359504 -4.83146)
(0 0 0)
(3.48123 3.8524 -3.34994)
(13.8721 19.8338 16.4541)
(-8.84111 -8.33649 0.364654)
(-1.83527 -4.34825 -2.34838)
(0 0 0)
(0.0883592 -0.091443 0.148818)
(-11.9737 -8.7449 -2.54271)
(6.55913 5.27665 -2.73792)
(0.0540503 -1.84043 2.14875)
(2.24548 -2.06545 -0.387819)
(-5.55689 30.1147 -13.1154)
(0 0 0)
(-0.317285 -2.15289 0.536778)
(-9.19022 -14.4118 2.07796)
(-1.9035 -1.08588 -1.02276)
(0 0 0)
(1.26435 -1.02059 -1.67286)
(-24.6657 -12.8237 2.26523)
(-11.6015 2.11949 4.31746)
(-0.824986 -0.711344 -0.940482)
(-0.230509 5.16735 -6.00758)
(-3.08956 7.66272 6.30904)
(-3.65393 2.20948 -0.569232)
(-0.322488 -5.43793 -1.26716)
(5.84727 4.53651 0.301307)
(4.33826 -16.1565 -4.43148)
(0.105556 0.188012 0.0942875)
(-4.42684 1.44523 6.12129)
(6.27518 -9.06605 -8.26632)
(-17.9956 -6.04458 -13.9858)
(0 0 0)
(-1.60545 5.06424 0.0423742)
(0 0 0)
(0.54996 -0.234297 -0.147908)
(6.88524 9.89951 -1.91865)
(0 0 0)
(-2.2517 5.68347 -0.142656)
(0.460713 -0.464518 -0.112661)
(-5.53293 -11.9298 8.60496)
(7.07898 -0.923558 -7.75411)
(-0.00805417 -0.0717878 -0.00839533)
(4.57923 -1.19066 13.9939)
(-2.76364 -12.3312 1.48895)
(1.93172 -0.752245 -2.17649)
(-0.117175 -0.143543 -0.555363)
(-0.704182 -0.968015 1.08904)
(0 0 0)
(0.638792 3.93664 -1.19632)
(0 0 0)
(0.330842 0.00378067 -0.933135)
(0 0 0)
(21.2771 -19.0764 -4.1434)
(0.688556 -0.456994 0.0153394)
(-1.90502 4.04399 -5.9796)
(2.80995 -1.5514 7.54009)
(0.0623516 -5.57337 -11.4872)
(3.763 -2.44244 0.108978)
(2.62259 -2.22998 6.35745)
(2.78695 -8.79123 -2.39041)
(-1.83965 -3.24372 2.57226)
(-0.511338 -0.687303 0.0298261)
(-2.2661 -2.45471 5.01718)
(2.00622 -2.50012 4.11372)
(-0.210778 -0.741468 -1.30114)
(2.07239 -2.89496 4.50563)
(-1.83556 -0.577153 0.057917)
(0.955816 -6.26811 -3.2293)
(-0.461446 -0.36294 -1.00801)
(2.87143 -1.64046 -8.28283)
(2.37822 -4.41908 -3.12579)
(-0.713073 -0.614847 -0.812902)
(0.257776 -2.37265 -2.82098)
(0.366087 -0.244183 0.410011)
(0.272597 -3.82928 -0.788356)
(-0.220299 -2.00407 0.437579)
(-0.274015 -1.56517 -1.20875)
(3.42058 -3.99612 -1.37287)
(-4.4009 -1.92627 -4.61378)
(0.316718 -0.307295 -0.140906)
(5.00335 -4.55391 -4.29592)
(0.725468 -2.18418 2.04294)
(-1.29595 -0.94078 0.930314)
(2.83264 -1.44511 1.39513)
(-1.88937 -4.34574 7.17646)
(-0.205423 -1.74578 0.544779)
(0.569558 -3.54658 1.18682)
(3.05972 -1.53346 8.9234)
(-2.15725 -3.1805 -1.11268)
(-1.14392 -1.3241 -1.47364)
(-10.0683 -7.75678 -4.37354)
(5.39136 -1.63505 0.306803)
(1.1615 -1.10832 0.0309115)
(-0.258106 -0.334409 1.44736)
(6.23148 -3.76537 0.323594)
(2.51876 -1.65103 1.39751)
(-1.98283 -4.52421 0.228713)
(0.386941 -0.692645 0.74526)
(0.281506 1.70962 0.966921)
(0.513721 -6.75333 -3.60611)
(-4.84137 -10.6103 0.864586)
(7.08034 14.7266 3.76246)
(0.797248 0.10804 -0.282686)
(-0.642971 4.59337 6.28932)
(-0.624617 -4.76096 0.976609)
(0.0111106 4.0953 -1.65637)
(0.854737 -12.5821 12.1053)
(-6.78942 -18.7302 7.30743)
(-0.875623 -1.46381 -0.752186)
(-1.70024 0.105754 -1.75453)
(0.0402408 0.00488462 -0.0261961)
(4.04948 -1.06968 -2.79761)
(1.30797 1.26412 -3.12691)
(12.068 10.6341 -17.3141)
(-6.36685 -2.05839 -1.10647)
(-0.0241937 -1.46645 0.434864)
(-3.13696 -3.13119 0.343989)
(2.46471 0.0945976 0.285598)
(0 0 0)
(-5.02724 0.845529 -1.07209)
(1.50067 10.1531 5.20647)
(0 0 0)
(0.434356 2.72466 -1.02365)
(0 0 0)
(-0.786205 2.59308 5.76195)
(1.46981 -1.67325 10.433)
(0.69135 -2.05477 8.87327)
(-16.727 5.40088 14.5236)
(-1.66084 1.54286 -6.29273)
(6.40672 -6.48661 6.27142)
(5.9925 8.2169 -3.14195)
(-0.619207 -0.817318 -1.12974)
(2.39306 -0.543301 -1.82044)
(0.383139 0.169151 -0.153273)
(1.59244 8.83238 -5.94615)
(0 0 0)
(-1.9759 -2.19206 -1.07304)
(1.73596 -10.8097 3.61731)
(-0.371973 0.133146 -0.260127)
(-0.782063 -7.42198 -5.99445)
(-0.593934 -1.48857 -0.501558)
(-3.04146 2.20253 -4.9724)
(-3.85406 1.27252 -0.164037)
(6.46117 -11.111 1.65234)
(2.30748 10.4327 -13.9621)
(-4.12575 19.1908 -7.00199)
(3.00789 1.17247 -0.354403)
(0.814293 0.573666 -0.276529)
(2.32488 3.24949 -0.824836)
(0.293577 -9.06336 -1.73688)
(-0.953856 -8.24678 -0.722985)
(0 0 0)
(0 0 0)
(6.17683 0.717067 5.02889)
(-3.84012 7.11379 -3.21588)
(-12.6381 -13.1602 5.03952)
(-0.543143 -1.42907 -0.415842)
(1.80925 -2.25098 2.04484)
(7.59691 -4.24519 -2.49978)
(-2.23132 -2.39581 -5.31813)
(0.162773 -0.12047 0.352626)
(-0.558469 -0.473724 1.28676)
(1.15353 -0.82821 -0.0944483)
(-5.67479 -1.40746 -1.87653)
(1.57205 -1.29548 2.62305)
(0.759643 -1.87259 -2.7114)
(1.19197 -0.842993 0.23921)
(-4.05717 -2.03719 4.38707)
(-12.0789 -0.738363 -0.819558)
(-3.9388 -5.53126 7.65864)
(-0.456914 -0.614149 0.0266515)
(-4.95686 -2.32847 -0.913895)
(0.878823 -0.533065 -0.977563)
(3.94856 -3.73877 0.977004)
(4.02978 -1.707 -0.23502)
(-1.26177 -0.420544 -1.99175)
(0.663207 -0.856345 0.219338)
(0.0407535 -1.38767 1.62014)
(0.115686 -1.14873 0.748493)
(-1.22116 -2.89326 -1.56257)
(2.93514 -3.8802 1.48548)
(0.416725 -0.383232 0.112006)
(-3.44336 -1.57518 2.20489)
(4.39887 -1.42398 3.78733)
(-2.75537 -0.828498 2.66472)
(-0.0124843 -0.447088 1.25027)
(-1.48708 -0.919697 0.769603)
(-0.752734 -0.421745 5.15489)
(-0.4715 -0.227087 -2.2522)
(-0.374354 -3.14831 2.28642)
(0.260192 -0.837694 1.4359)
(-3.55248 -1.82694 0.299863)
(1.62014 -1.57254 0.374591)
(-1.57416 -1.2154 -0.122961)
(-3.62891 -1.58837 -3.80445)
(-0.749209 -0.774507 1.35856)
(2.66499 -2.64176 4.12133)
(-1.55742 -0.831261 1.0296)
(2.37267 -1.80518 1.13869)
(-1.70047 -1.86449 -0.402079)
(-0.162415 -2.10275 -0.497519)
(0.871432 -1.58446 4.38884)
(-0.383491 -0.196337 -0.304364)
(1.33724 -2.09948 0.199084)
(-2.68999 -0.448403 2.36421)
(-3.77472 -3.13883 -0.588224)
(1.78169 -1.63885 -0.307718)
(3.57119 -5.59712 -5.19221)
(-1.55337 -0.94742 -0.449238)
(-0.165662 -0.23916 0.307609)
(0.0371552 -0.0368341 0.0181807)
(1.60262 0.16902 1.78258)
(0.201764 -0.336109 0.5435)
(-5.99461 -0.907899 1.15617)
(5.86181 -5.51151 0.873987)
(0.0391528 -3.01393 3.41685)
(-2.92993 -2.98131 -5.1404)
(0.474957 -1.75806 -0.102103)
(2.61951 -0.924366 -4.28154)
(2.74724 -4.19487 3.60685)
(3.33487 -5.80638 2.50688)
(-1.47654 1.37165 -5.59443)
(0.811721 -0.665243 1.00235)
(0.770888 -1.31037 0.648081)
(0.76073 -3.93999 -0.0336046)
(-0.0452235 -0.643516 -0.511438)
(9.62615 -8.19342 4.71714)
(8.53719 -1.73728 -16.3282)
(-1.64881 -0.571622 5.43596)
(8.19042 11.2631 -0.800325)
(-4.94928 2.60874 4.83824)
(-2.38347 -8.92529 0.705666)
(-0.68462 0.829498 -2.29869)
(6.94428 -6.06284 0.777936)
(-0.845966 -1.19006 -1.09722)
(2.02498 -1.06169 0.327952)
(4.56161 2.08373 -11.5673)
(3.26394 0.340164 -3.08559)
(0.154654 -3.14651 -0.650545)
(1.21261 6.77984 -4.93352)
(-1.60153 -2.54137 3.03132)
(3.73725 -6.50698 2.80936)
(-19.5168 -11.8714 -1.06558)
(-12.0243 -5.36563 -3.45011)
(-0.281572 -0.164724 0.0408185)
(-4.75021 1.50286 -0.509613)
(1.91074 1.23942 1.37874)
(4.44775 -4.60335 1.75078)
(6.98571 -22.9317 7.29004)
(0.0294808 -0.202974 0.139754)
(2.20294 -6.80787 -4.90251)
(0.660039 1.12507 0.651633)
(-0.102437 2.34878 0.313363)
(4.18942 -16.1395 -1.84477)
(-4.32078 6.75049 1.47557)
(-0.114052 -2.90714 1.26514)
(-0.967161 -8.13379 5.90707)
(0.818749 -6.67945 -2.80009)
(-5.43348 -2.4815 -6.57253)
(-7.27996 -4.20709 6.00664)
(-1.79428 0.492495 1.54066)
(4.52378 -3.517 -2.71477)
(1.71344 -0.554713 1.96037)
(4.78945 5.47567 0.825059)
(14.7647 4.65166 11.7416)
(16.6772 -5.44748 17.0355)
(-1.02478 -1.16722 0.969592)
(-1.08387 -6.19804 -9.01383)
(0.641874 -10.0333 -12.086)
(-0.80738 5.53146 -4.45342)
(-5.39181 1.68415 -5.09791)
(2.7149 -13.9168 -6.63061)
(5.69283 5.82279 6.36916)
(2.65613 -2.17682 3.2799)
(2.23865 -0.610974 0.844251)
(1.08225 -1.91793 1.34543)
(1.80688 -16.0017 0.288017)
(-3.21224 12.0938 11.1678)
(-5.51842 -1.39344 2.58309)
(2.07195 7.58552 1.76884)
(0 0 0)
(-0.869401 1.02674 2.28447)
(-0.83844 -2.58947 0.415487)
(8.65046 2.87031 -8.3469)
(-5.37684 0.129618 -1.65497)
(-0.40815 -0.0236531 -0.298742)
(-10.1696 8.50577 -13.7449)
(0 0 0)
(-0.950625 4.49629 -1.59834)
(7.82951 7.03892 4.69873)
(0.687397 -0.972387 2.2258)
(0 0 0)
(-0.858032 -2.68203 2.59324)
(20.8036 6.76445 9.95398)
(2.24394 6.71417 2.73027)
(0 0 0)
(4.58958 -4.65323 3.67569)
(1.72611 -1.89173 -2.33408)
(-1.60825 -2.1796 4.56323)
(-0.943534 -0.175896 1.10068)
(-1.26722 -0.58261 3.2315)
(-0.0375535 -1.846 -3.13926)
(-0.0251513 -0.195192 -2.65378)
(-1.14292 -2.77699 -0.842378)
(1.56504 -1.68992 -0.166097)
(6.80244 -3.80123 -2.23836)
(-0.918779 -1.84124 1.3236)
(-0.975482 -0.645586 -1.43768)
(5.16617 -8.41725 1.43769)
(-1.08507 -5.97718 5.81189)
(-2.71977 -3.63149 0.0998643)
(0.232652 -0.412387 -1.21605)
(-4.34451 -2.41552 -0.804292)
(-3.6399 -1.82766 3.93587)
(0.548377 -2.54721 -0.362355)
(3.27194 -1.67889 -4.13624)
(0.159872 -1.05365 1.11165)
(-6.83566 -2.29951 2.67704)
(0.112529 -1.31311 -0.711414)
(-0.613691 -0.368886 1.99566)
(5.41404 -4.18869 1.91477)
(-1.84154 -1.99481 4.0772)
(1.34457 -1.93882 -0.972578)
(-0.116386 -0.207914 0.339053)
(0.252739 -0.231594 0.213231)
(0.628393 -0.138226 -0.17342)
(0.213499 -0.740086 3.27921)
(-0.394706 -0.640465 1.76011)
(-0.341623 -0.268696 -0.746264)
(0.435959 -0.40092 0.117176)
(1.53997 -2.22487 -2.02861)
(0.927921 -0.946106 0.561837)
(-0.101911 -1.38891 -1.08925)
(2.75562 -0.716498 8.421)
(-0.924253 -0.528646 0.398452)
(0.000824323 -1.02541 5.39865)
(2.42493 -0.37608 -1.52349)
(-1.24897 -0.772435 0.646374)
(-0.665183 -0.890307 2.82739)
(0.22198 -2.15781 1.71233)
(2.07677 -1.44201 -1.36219)
(-2.37305 -0.494356 0.215745)
(-0.554359 -2.61604 2.40957)
(-5.06521 -1.51855 -4.70931)
(1.16942 -3.48027 -5.04831)
(-0.349944 -2.94302 2.13733)
(1.64586 -0.908701 4.41644)
(0.711669 -1.59994 -1.66315)
(0.107626 -5.71916 1.84165)
(1.12024 -4.77119 4.79234)
(-1.29728 -0.215346 -0.0599639)
(1.00283 -0.050607 -0.115047)
(1.51096 -0.752313 -3.02875)
(0.00808988 -0.784843 -0.370471)
(-0.225871 -1.02138 -0.335818)
(2.47173 -0.878119 5.81271)
(5.47841 -1.09623 1.54774)
(-8.01656 -3.02227 -0.972481)
(-0.491503 -1.617 -0.144132)
(0.602766 -0.834802 -1.95046)
(-4.13059 -3.1678 -0.0280768)
(1.01876 -0.471471 0.748428)
(-0.068342 -0.994129 2.05221)
(-0.175459 -0.193051 -0.658064)
(2.45052 -0.81282 -0.114978)
(-0.31376 -2.42079 0.0169634)
(0.559128 -0.774365 -1.80925)
(-0.522194 -2.49216 0.33509)
(-7.93785 -1.34888 -2.13236)
(-0.0390118 -1.53013 1.33982)
(0.0311692 -0.237424 0.33608)
(-0.637626 -1.44331 -3.12702)
(2.14804 -0.602532 2.39256)
(-0.0241678 -0.404483 0.0888572)
(-0.566415 -1.7705 1.71189)
(-0.542344 -1.06961 -0.933717)
(1.24572 -1.95579 0.185459)
(-1.49166 -2.30008 2.39612)
(-0.59543 -7.54588 -2.06085)
(-2.89945 -2.63341 2.19587)
(0.241285 -0.732663 0.385169)
(-1.69472 -0.531662 -2.15164)
(-0.702538 -8.31061 -3.72163)
(-1.02733 -0.745779 0.737482)
(0.456916 -2.04818 1.96497)
(-0.607248 -0.888319 -0.845954)
(0.405447 -5.49629 -2.95007)
(1.90074 -0.346133 -3.55511)
(1.49684 -0.470657 1.85193)
(-0.0232246 -0.388697 0.0853892)
(-2.80574 -1.37446 1.50373)
(-1.71506 -2.52855 -0.884596)
(0.67576 -0.806415 -0.0533213)
(1.47305 -0.522465 0.561884)
(2.65627 -0.664402 0.54833)
(0.431965 -4.34811 -4.41895)
(-1.99863 -1.90512 -0.839862)
(4.03401 -4.02406 3.45433)
(0.542011 -0.580125 2.00167)
(0.556792 -2.63633 0.0735477)
(2.87991 -2.48625 -1.71132)
(4.4281 -1.45829 6.92844)
(2.55122 4.86278 -4.30983)
(1.93155 -1.1066 1.32759)
(0.712828 -0.799365 0.354171)
(-2.60003 4.08099 -0.716137)
(-0.90123 -0.97388 9.61582)
(-0.0163136 -0.0285897 0.0194148)
(-2.01647 -2.84152 -1.71554)
(-0.0920066 0.801456 -0.453159)
(2.10909 -3.17515 0.709893)
(1.70727 -6.31949 -0.367016)
(3.91722 -3.1996 2.30125)
(-1.6492 -2.39536 -4.10742)
(-1.49579 1.08695 0.315332)
(-7.77815 7.38548 5.38128)
(3.05971 0.58457 2.10723)
(3.14042 2.18267 -1.55312)
(-16.7719 6.9997 -3.69511)
(-0.545785 -0.6183 -0.380588)
(1.76557 -1.88169 -18.0897)
(2.61895 -1.37315 -3.46261)
(2.60127 4.89366 6.93301)
(-2.44585 -0.537842 2.08227)
(-12.9289 -2.33383 9.90956)
(-5.7402 1.74335 -2.10765)
(-2.50683 4.73266 -0.754933)
(0.638133 -0.466591 -4.49478)
(-6.40981 -3.45177 4.96694)
(-3.8363 -7.31421 -2.33966)
(0.936729 9.12238 1.52421)
(-0.441739 1.24641 0.568449)
(1.92498 -1.4457 0.778881)
(2.01273 -0.0326679 2.08903)
(1.14817 3.42503 0.531036)
(1.98015 -16.502 -5.39633)
(-1.00242 -0.814663 -3.94382)
(-0.118254 0.918219 2.53584)
(-3.50319 1.57701 -7.2015)
(-0.540178 -1.33124 1.11491)
(0.0331395 -0.0157858 -0.61544)
(0.0229666 0.209038 0.335281)
(-7.19766 21.5002 -6.29067)
(3.08583 -0.968522 -2.19616)
(-0.35932 2.6736 0.313095)
(2.31687 -5.053 -4.02906)
(1.13492 0.795119 -4.57806)
(-0.0327159 1.95612 -0.99744)
(-1.25241 -0.619625 1.09928)
(-0.0712899 -0.0691431 -0.0616307)
(0.37142 -0.924202 0.0526282)
(-0.507167 -0.0715456 2.86158)
(-1.93016 -6.90301 -8.88857)
(6.82908 8.62471 -11.6333)
(-7.02279 -5.15826 -0.153977)
(-4.63746 8.66291 2.84088)
(2.51858 -4.22778 6.23352)
(-28.6471 -8.97067 -4.10498)
(-0.000789973 0.00554959 -0.00122679)
(-7.08146 10.2009 -6.41621)
(2.89633 -4.85898 0.189451)
(11.8418 -2.80687 3.62997)
(18.8296 -2.83565 -4.43435)
(-14.9586 -0.764976 -8.06178)
(1.04671 -1.41179 0.793968)
(-17.199 -12.0422 5.05998)
(2.0254 -4.78566 0.586854)
(-3.37518 -2.50477 0.695714)
(-0.188772 0.323867 -0.281693)
(4.12773 0.131496 -2.92237)
(0.428524 0.25819 -0.259586)
(-9.5545 -7.41308 -11.33)
(4.73556 -2.44692 -0.688793)
(4.59311 -4.6568 3.67851)
(3.78367 -5.70193 3.67387)
(0.470272 -0.527285 -0.69302)
(2.56624 -3.19279 2.90041)
(-0.215776 -0.686465 2.9996)
(0.207663 -6.02795 7.821)
(-0.0236947 -0.183888 -2.50009)
(7.35513 -2.9197 4.87263)
(1.3349 -1.25038 0.319105)
(-1.31986 -0.44649 0.714698)
(9.19247 -28.997 -7.88453)
(7.04539 -11.4791 1.96066)
(9.39672 -4.35727 -0.0869579)
(-1.64986 -1.11854 2.37507)
(0.37831 -6.29321 -1.30844)
(-1.9264 -1.15383 -1.89912)
(5.17897 -12.3433 9.14933)
(-1.63901 -6.40441 1.181)
(-12.1378 -3.01041 -4.0137)
(3.97619 -1.75053 -3.38096)
(-1.23456 -6.80063 6.61257)
(0.00979797 -1.12782 0.675772)
(-4.77384 -4.4353 -15.7529)
(0.0955598 -0.384389 0.330866)
(-0.84176 -10.3603 5.19815)
(-0.0243837 -2.50953 1.63129)
(-6.18752 -10.91 8.65161)
(9.14866 -1.32058 0.303808)
(-2.37331 -0.688873 -0.28135)
(8.7288 -11.7204 -1.52895)
(1.07538 -7.90669 -5.15314)
(-0.777795 -0.712631 -0.502187)
(-0.464897 -0.279136 -0.228459)
(-5.3412 -2.50902 -0.984757)
(3.31244 -4.77643 -2.39602)
(3.44792 -22.611 -11.6491)
(0.0792091 -0.366717 -0.550663)
(6.60312 -7.51202 5.28307)
(3.92008 -1.45076 -1.31535)
(2.37242 -0.521855 -0.654726)
(-7.51165 -5.36922 -2.91714)
(-0.234694 -0.0456434 -0.696238)
(-5.2072 -10.0258 13.3493)
(0.0721994 -0.240011 0.0456583)
(2.8202 -2.87547 1.70757)
(-1.14378 -1.85595 5.10047)
(0.494551 -0.29282 1.51498)
(-0.439522 -3.23054 -1.05642)
(-1.47779 -0.516064 -1.71781)
(0.379695 -0.383686 -0.49989)
(-1.21904 -2.88824 -1.55986)
(0.789885 -3.61284 -0.163915)
(0.434498 -0.399576 0.116783)
(-1.43358 -1.62885 1.97592)
(-9.473 -2.71695 6.23817)
(1.9497 -0.281433 0.0647455)
(4.00934 -6.29468 -2.93544)
(1.3209 -0.488842 -0.443214)
(-4.2793 -2.01019 -0.788975)
(-0.387165 -2.48913 4.12414)
(7.37562 -8.26324 -43.2352)
(5.85641 -0.330135 0.834898)
(0.0438779 -0.588638 -0.136966)
(-0.258496 -1.42878 -0.884825)
(-2.93004 -0.700053 -2.45794)
(8.25716 -4.21136 -3.41114)
(1.96232 -3.64627 -2.57915)
(0.221061 -0.173076 0.570186)
(3.88504 -7.38305 -7.18671)
(-0.95286 -0.821603 -1.08626)
(-3.16994 -1.63021 0.267573)
(1.45523 -3.27158 -3.40084)
(-1.4411 -0.775463 -0.482857)
(-0.0800498 -3.41792 -1.18037)
(-4.39397 -5.52317 -0.909754)
(-0.0681785 -0.21632 -3.00147)
(4.56075 -6.84252 39.9067)
(6.28828 -2.56451 -2.1404)
(-0.776362 -1.99321 -1.59294)
(-2.32538 -1.09403 5.72096)
(-1.70103 -3.77128 -8.16232)
(-0.579876 -1.90774 -0.170047)
(4.00636 -0.398129 -3.28065)
(4.01313 -0.713247 -8.74941)
(1.54915 -2.47194 1.22758)
(-1.70749 -8.14899 1.09569)
(-3.1322 -0.233777 -0.910576)
(2.26054 -2.16084 0.129689)
(2.52982 -0.839121 -0.118698)
(-1.5852 -0.887984 1.06989)
(-0.313 -2.66001 0.83007)
(-0.12962 -0.0738643 -1.58374)
(1.31009 -3.32944 0.461312)
(7.89454 -0.251348 4.42962)
(-0.0411463 -1.61385 1.41313)
(2.98675 -2.9607 4.61892)
(2.9351 -3.22411 2.60816)
(2.75253 -10.2509 -2.81167)
(-3.31679 -5.20131 0.749946)
(1.18879 -1.66399 0.21586)
(0.136534 -3.15852 0.25415)
(-1.67634 -1.89214 0.915832)
(-2.26446 -1.64801 -1.00819)
(-1.0779 -3.2387 2.09096)
(-1.57941 -0.40892 4.73381)
(4.45991 -7.78542 8.41088)
(-4.2831 -1.75121 -0.221329)
(-2.63963 -3.01809 -1.66558)
(-3.17706 -37.5828 -16.8302)
(-5.79429 -4.81818 -0.902939)
(7.45733 -11.6878 -10.8423)
(7.05546 -6.88954 6.76902)
(-2.92126 -3.17978 3.85495)
(15.4592 -4.9718 9.56134)
(-13.3734 -15.8581 7.23266)
(-0.321866 -0.712383 2.66165)
(0.767765 -10.4079 -5.58633)
(1.34886 -11.9455 0.215009)
(1.14911 -1.7724 1.32994)
(-1.71342 -0.0488847 -0.395931)
(4.05442 -2.10533 -0.789773)
(-10.649 -11.089 4.24638)
(2.57628 -7.69823 -8.81185)
(-0.117733 -0.333951 1.68416)
(-2.65613 -3.3783 -0.696207)
(6.43945 -12.5652 -6.62708)
(2.52464 -1.26529 7.36287)
(-0.0523731 -0.802617 0.23514)
(7.61709 -1.90523 1.57238)
(14.0551 -14.0204 12.0354)
(-11.3972 -11.5971 -19.9959)
(-5.58331 -0.845608 1.07685)
(-0.309303 -0.449063 3.29168)
(-5.58508 -0.604801 -0.756389)
(0.435506 -4.38375 -4.45518)
(-0.445529 -0.341417 1.26418)
(2.02587 -2.39415 0.706732)
(10.1016 -24.1211 3.3785)
(-12.857 -23.6808 7.86759)
(0.201661 -3.15272 -2.32908)
(0.602446 -4.25982 2.18369)
(0.466653 -0.643904 -1.27936)
(-0.0124451 -0.270766 -0.255794)
(-9.78153 -7.58923 -11.5992)
(-3.48498 -2.58626 0.718348)
(-1.10904 -3.96635 -5.10722)
(-0.271606 -0.780758 -0.857032)
(1.98658 -16.2068 -6.79402)
(7.16044 -36.7049 -17.488)
(5.00639 -1.36635 1.88803)
(2.95687 -11.3912 -1.30202)
(-0.90483 -2.79451 0.448387)
(1.7483 -1.35921 -1.04918)
(-3.06635 -1.77205 2.53002)
(0.0100685 -0.0693211 0.0477296)
(-0.683181 -0.837931 2.0594)
(0.125691 -0.217546 -0.470468)
(0.226528 -2.97793 -1.59014)
(3.28728 -17.0255 -0.145213)
(-0.00846427 -0.0304422 -0.00643577)
(0.284712 -0.150527 0.309014)
(2.84794 -4.26998 -9.06575)
(-10.2935 -5.82082 2.67666)
(8.95164 -29.3852 9.34161)
(-1.39748 -0.691396 1.22661)
(1.48655 -1.58433 -15.2309)
(2.57915 -2.10666 1.51517)
(0.49873 -1.12182 -0.961473)
(0.416331 -8.47044 -1.75127)
(1.03419 -1.83275 1.28568)
(12.8839 -9.97696 -10.9602)
(3.56109 -3.03107 1.74506)
(1.43903 -0.348099 0.141778)
(2.81924 -1.53953 -0.43514)
(0.545104 -3.14128 -1.75879)
(6.0074 -8.3044 5.32866)
(0.0290195 -0.22105 0.312901)
(0.58 -0.349215 2.06996)
(1.16619 -3.72013 -7.93932)
(-10.712 -3.57965 10.5278)
(-0.838651 -9.1914 2.14714)
(1.17766 -5.44873 -3.55737)
(1.75054 -0.412045 0.442335)
(-1.9192 -1.5155 -1.15872)
(0.973151 -0.617694 -0.176993)
(0.109024 -0.109924 -0.0266604)
(0.0869574 -0.309068 -0.058514)
(-1.67548 -6.42745 -6.6767)
(4.04494 -0.366153 -0.747698)
(-1.64269 -1.8224 -0.892083)
(-14.0132 -13.2134 0.57798)
(-4.74683 -20.679 18.5876)
(0.107999 -0.0623517 -0.335756)
(-1.23758 -0.285458 -0.514155)
(-0.692237 -1.19504 -2.33512)
(-3.20937 -1.83673 3.4592)
(-0.37634 5.46801 -2.55508)
(0.411314 -16.477 -7.90449)
(5.46658 -9.44934 -3.99216)
(-9.87311 28.0691 -13.7038)
(-2.92509 9.5851 3.38613)
(7.49423 9.34432 -45.7336)
(6.65016 -4.78983 -0.863389)
(-0.0888005 1.8627 6.08345)
(-5.60447 10.0303 -2.9705)
(-3.46256 4.57115 -5.27414)
(0.517084 3.9232 2.42963)
(-3.43402 8.84105 -18.3499)
(-9.59374 5.27041 14.5872)
(-7.53365 -3.4731 7.05636)
(1.79285 10.2544 6.85872)
(-4.72528 -0.484593 -3.88628)
(-11.4329 2.46737 3.63288)
(-0.0830612 -0.0695301 -0.253785)
(7.39856 3.34013 -0.148706)
(0.973187 1.36829 3.37305)
(-4.85799 1.64722 -1.33659)
(6.60338 13.9176 11.3017)
(8.87615 4.31782 -2.36676)
(2.12638 2.62153 -1.0495)
(1.56125 2.24594 3.97538)
(2.91344 1.87554 -3.94478)
(0.997352 8.45521 1.60932)
(0.627654 -14.9301 17.5177)
(2.65045 3.2402 -10.3797)
(10.4816 -1.9768 -3.13869)
(3.85704 0.725525 5.23476)
(26.2453 4.45839 -6.28396)
(11.719 11.2547 -3.90181)
(0.466683 -0.985465 0.0760145)
(-7.60168 -4.87125 4.02063)
(-2.33228 -3.41772 4.72496)
(-0.860254 0.550249 -6.28796)
(3.39512 0.407976 -2.60763)
(-0.0132523 3.21003 0.880665)
(3.97622 -0.0845124 -1.80547)
(4.62685 0.586551 2.21386)
(-8.00136 15.8894 -14.6277)
(12.8947 41.0783 -32.9848)
(-0.571533 -3.14972 -0.549471)
(1.93655 -16.5926 -8.23268)
(-8.60802 -8.759 -15.1023)
(-1.44783 1.04108 -3.58503)
(-1.31666 -5.53169 -1.75814)
(-2.22621 -11.2464 -0.801623)
(-1.55962 1.24141 0.529332)
(-4.43431 7.95394 5.76725)
(-1.41179 0.834866 -0.396704)
(12.3521 5.74339 -9.76571)
(3.3995 -5.05672 -2.34963)
(-3.07185 -3.59029 -2.87991)
(-3.55695 -2.0114 0.924924)
(-0.56493 -7.52883 -5.22296)
(0.396704 4.65952 -2.78786)
(-5.38936 -2.45977 0.682442)
(0.124144 0.97287 -0.96104)
(6.97098 0.258442 9.87377)
(-1.36122 -1.04313 3.86244)
(-1.94537 7.32216 -2.49449)
(-13.0555 0.825666 2.20866)
(-12.1723 12.0832 4.24115)
(-1.29386 -3.6943 -2.88049)
(0.874094 1.07657 0.370625)
(0.120861 2.78639 3.21535)
(-2.74357 0.957906 3.17051)
(3.65783 0.336734 -0.907405)
(8.90723 -12.422 4.82028)
(8.89649 8.0594 -0.324895)
(17.6819 -5.36244 1.00621)
(17.7828 9.01948 2.98642)
(3.26782 -1.19623 0.656542)
(0.379337 -0.500213 -1.03456)
(0.933154 9.99336 21.2163)
(0.294288 2.34531 3.5965)
(-0.103063 -0.580832 1.52935)
(16.9153 -39.4726 1.21669)
(-2.2521 5.33044 -0.312521)
(11.252 -2.34997 -8.17119)
(0.950627 -1.73587 -1.63331)
(-1.26895 -8.38174 6.89157)
(1.77897 -1.69752 0.0473447)
(4.78494 23.5574 5.48601)
(8.67294 -7.69214 -9.76306)
(-5.22204 3.26043 -0.826077)
(12.0174 8.25005 2.91529)
(-29.8408 14.2624 -0.913719)
(17.4032 2.17783 -7.99019)
(7.88613 -9.31973 2.7511)
(-0.19871 10.1121 6.3691)
(0.288058 0.53448 -1.00071)
(-12.2982 5.28399 -19.5569)
(9.66267 6.94969 6.61081)
(-11.0093 2.888 0.49797)
(0.523497 2.55705 -0.437096)
(-1.07932 -2.75302 -0.844367)
(10.468 14.2026 -12.4945)
(-2.39307 4.81413 9.3811)
(2.55625 -18.4674 -1.56385)
(18.9905 15.2702 9.36876)
(1.05336 -2.55108 -2.84043)
(-1.81625 7.3922 -4.66108)
(6.30374 5.28716 9.72837)
(9.00735 9.43985 13.0724)
(-10.375 -5.44214 -8.82652)
(-2.7959 2.79137 -9.48031)
(0.0688271 0.20534 -0.787777)
(-4.17121 0.257087 3.21089)
(9.95788 3.15225 -6.91598)
(-18.9121 19.2567 0.0450248)
(-3.18611 -8.616 8.05667)
(10.577 13.4502 9.31803)
(-1.98672 8.59671 5.24138)
(-0.500208 1.56755 2.66255)
(-11.6098 13.3955 6.47102)
(5.24312 3.08433 19.7078)
(0.297968 -0.247192 -0.158167)
(-0.119623 0.0851454 -0.624865)
(2.41495 1.52471 2.75618)
(1.14852 -1.28779 -1.72232)
(-0.750026 -8.58606 -6.27264)
(0.812872 10.3086 -0.0779925)
(-5.43224 1.1378 16.9154)
(-2.54884 0.652405 8.01682)
(12.7499 15.7405 -0.0754014)
(-0.345197 -0.45016 -0.65959)
(8.5133 -3.70001 4.50679)
(-0.182522 0.899666 -9.33169)
(-1.94629 2.98688 -3.65374)
(7.69338 -12.5079 -10.3715)
(1.49057 0.512276 -0.992299)
(-12.2367 -6.67493 -1.77444)
(3.61429 -14.2773 -16.4368)
(3.55677 -2.28392 1.34152)
(14.4982 -7.49138 -2.10878)
(-1.09308 -3.77973 -2.67839)
(-1.41948 -12.8721 -7.07717)
(-6.61701 -3.04219 16.8738)
(2.69741 -3.02442 -3.97505)
(-2.62542 -11.935 -18.4707)
(-38.1353 -0.579559 15.4226)
(1.47738 -2.60025 0.306262)
(-2.23276 -7.72059 -5.47098)
(3.05724 -5.38088 0.633769)
(-20.5523 -10.7267 6.37763)
(-1.63493 -1.38684 3.76703)
(-5.88162 -34.4757 6.4711)
(1.35653 -4.16764 -4.07894)
(17.0204 -3.23038 -6.19442)
(4.77179 -3.06412 1.79979)
(-28.1932 -13.0119 -3.49591)
(-5.24795 -1.77531 2.84174)
(1.40312 -2.62335 1.69209)
(6.85045 -5.64527 11.4304)
(-14.4039 -14.4373 14.4917)
(7.0734 -6.62553 1.69088)
(6.17494 -12.7009 -3.42048)
(16.2667 -10.5582 0.47109)
(0.26015 -7.5515 9.79774)
(23.2556 -10.7628 2.46837)
(-18.5195 -8.95777 3.08958)
(-11.1999 -12.0255 -26.6938)
(-7.19047 -9.97974 7.09267)
(2.13826 -35.57 -7.39549)
(-2.16586 -1.01824 -1.07309)
(-9.85135 -15.6944 19.4502)
(-20.2893 -14.2004 6.2483)
(1.52708 -3.01247 0.0950966)
(-2.76083 -1.24732 -3.42756)
(-5.38234 -2.39195 -1.51806)
(-19.4141 -15.3985 2.45552)
(-0.419673 -0.620806 1.27046)
(7.57017 -15.5707 -4.19334)
(7.89055 -6.5024 13.1659)
(7.60293 -27.3212 -8.52324)
(-0.507316 -0.606191 -3.02742)
(-5.13055 -20.0476 3.69685)
(-13.0961 -5.81999 -3.69369)
(-13.1015 -3.80282 -1.55315)
(-14.7484 -19.6923 0.54153)
(7.21339 -2.62495 -23.5891)
(1.19732 -2.12231 -6.25826)
(8.03156 0.315644 -12.3876)
(-0.685851 -0.150405 -0.124638)
(0.617538 -1.39969 -1.17896)
(4.83002 -7.94174 -0.509031)
(2.93273 -5.78537 0.182631)
(1.10049 -9.82705 14.2396)
(-24.4813 -11.8783 -9.62765)
(18.1595 -9.31799 -22.9564)
(0.475384 -1.91223 1.64597)
(-5.24192 -15.0332 -1.73192)
(-3.93337 -1.00526 2.67798)
(3.07758 -14.2954 -2.03359)
(-0.207049 -0.040267 -0.614227)
(-71.1068 -8.75198 -14.1044)
(3.39273 0.365133 17.1129)
(10.2896 -5.06877 0.831756)
(-6.08394 -43.9837 34.9848)
(-0.821765 -1.97565 1.09197)
(-12.4705 -7.4765 7.43871)
(-0.769236 -0.448947 1.68323)
(6.93273 -4.38494 8.79795)
(11.1245 -1.60579 0.369423)
(2.32716 -0.610523 2.67807)
(0.679308 -2.70564 2.07961)
(-2.37435 -3.19143 0.138495)
(3.48702 -2.83022 -4.12162)
(9.14382 -11.3949 18.7493)
(-0.378022 -1.2845 18.6863)
(36.1559 -19.0026 -17.2321)
(-1.90978 -0.418811 -0.347059)
(4.29829 -2.6072 -4.78123)
(5.34893 -33.1715 5.12131)
(0.383461 -2.9028 15.1213)
(-22.3585 -15.9815 -8.6829)
(-8.24047 -18.7618 -3.85091)
(21.5266 -8.71259 8.19974)
(-1.9099 -1.50219 -4.17211)
(28.0548 -33.7827 10.5989)
(17.8291 -7.55235 -1.03981)
(1.18059 -4.09247 18.1331)
(-0.240184 -0.461196 0.0248094)
(-1.96419 -16.4084 -6.8378)
(9.20654 -10.4738 7.36603)
(-8.66792 -3.53052 1.06843)
(2.56122 -1.51648 7.8459)
(0.684577 -0.0100118 -0.170623)
(0.0233965 -2.26983 -1.07143)
(0.00444147 -5.52494 29.088)
(0.351928 -7.81518 -3.38881)
(-6.09941 -14.4511 -7.80468)
(1.70428 -1.93091 -2.87987)
(-17.788 -27.2541 18.9486)
(-14.9527 -30.4873 -14.3101)
(15.687 -20.7379 7.93922)
(0.0693347 -0.650065 -0.419616)
(0.668908 -2.18867 0.715908)
(-6.87712 -5.35309 -3.97153)
(3.07779 -4.62721 -4.80742)
(10.9966 -16.3695 3.59476)
(-13.9617 -4.19808 13.5024)
(-6.94324 -4.29411 3.59331)
(8.73804 -8.645 -10.1157)
(1.24989 -12.1499 9.64158)
(1.91043 -1.08115 2.59366)
(22.708 -2.18202 -0.758427)
(-1.36192 -7.52771 -4.66181)
(-4.47022 -1.43937 10.3293)
(11.8421 -8.22259 -7.76747)
(-0.433278 -2.47488 -1.91131)
(-17.7334 -7.39194 -7.27778)
(-18.9722 -2.18012 -3.92613)
(-3.9837 -2.232 27.2812)
(11.1593 -20.7356 -14.6671)