/*--------------------------------*- C++ -*----------------------------------*\
  =========                 |
  \\      /  F ield         | OpenFOAM: The Open Source CFD Toolbox
   \\    /   O peration     | Website:  https://openfoam.org
    \\  /    A nd           | Version:  7
     \\/     M anipulation  |
\*---------------------------------------------------------------------------*/
FoamFile
{
    version     2.0;
    format      ascii;
    class       scalarField;
    location    "0.7/lagrangian/reactingCloud1";
    object      yH2O;
}
// * * * * * * * * * * * * * * * * * * * * * * * * * * * * * * * * * * * * * //


2546
(
0.022
0.022
0.022
0.022
0.022
0.022
0.022
0.022
0.022
0.022
0.022
0.022
0.022
0.022
0.022
0.022
0.022
0.022
0.022
0.022
0.022
0.022
0.022
0.022
0.022
0.022
0.022
0.022
0.022
0.022
0.022
0.022
0.022
0.022
0.022
0.022
0.022
0.022
0.022
0.022
0.022
0.022
0.022
0.022
0.022
0.022
0.022
0.022
0.022
0.022
0.022
0.022
0.022
0.022
0.022
0.022
0.022
0.022
0.022
0.022
0.022
0.022
0.022
0.022
0.022
0.022
0.022
0.022
0.022
0.022
0.022
0.022
0.022
0.022
0.022
0.022
0.022
0.022
0.022
0.022
0.022
0.022
0.022
0.022
0.022
0.022
0.022
0.022
0.022
0.022
0.022
0.022
0.022
0.022
0.022
0.022
0.022
0.022
0.022
0.022
0.022
0.022
0.022
0.022
0.022
0.022
0.022
0.022
0.022
0.022
0.022
0.022
0.022
0.022
0.022
0.022
0.022
0.0219999
0.022
0.022
0.022
0.022
0.022
0.022
0.022
0.022
0.022
0.022
0.022
0.022
0.022
0.022
0.022
0.0218043
0.022
0.0219999
0.0214792
0.022
0.0215042
0.022
0.0219988
0.022
0.022
0.0219951
0.022
0.0219429
0.0154266
0.0105946
0.021999
0.0219848
0.022
0.0219997
0.0219642
0.0219806
0.0219938
0.022
0.021995
0.022
0.0211198
0.0192655
0.022
0.0219157
0.0219998
0.022
0.022
0.022
0.022
0.0219999
0.022
0.0149393
0.022
0.0215141
0.0186897
0.022
0.022
0.0219995
0.0219999
0.0210488
0.022
0.0208504
0.0209425
0.0136192
0.022
0.0210622
0.0219006
0.0219925
0.0215594
0.022
0.022
0.022
0.0154722
0.0138034
0.0219955
0.0219132
0.0189361
0.0219783
0.0218792
0.0219991
0.0174468
0.022
0.022
0.000387029
0.0219282
0.022
0.0219989
0.0217874
0.0219978
0.0148414
0.0219576
0.0219997
0.0188717
0.000188897
0.0218177
0.0219999
0.022
0.0218374
0.019841
0.0135215
0.022
0.022
6.43194e-05
0.022
0.0165855
0.0217636
0.0219021
0.0219999
0.0216237
0.0215434
0.0161099
0.0219642
0.0117213
0.0110713
0.0219724
0.0210408
0.0217638
0.018387
0.0219925
0.0215708
0.0217361
0.01204
0.022
0.0141823
0.0219995
0.0217245
0.000285396
0.0219998
0.0157932
0.0137478
0.0219972
0.0219667
0.011587
0.0219924
0.0219838
0.0219972
0.0191851
0.0148414
0.0219999
0.0180645
0.022
0.0158127
0.022
0.0219463
0.0219676
0.0168999
0.0184973
0.0219887
0.022
0.022
0.022
0.022
0.022
0.022
0.022
0.022
0.022
0.022
0.022
0.022
0.022
0.022
0.022
0.022
0.022
0.022
0.022
0.022
0.022
0.022
0.022
0.022
0.022
0.022
0.022
0.022
0.022
0.022
0.022
0.022
0.022
0.022
0.022
0.022
0.022
0.022
0.022
0.022
0.000253106
0.0106629
0.0143216
0.0192936
0.00106697
0.0183852
0.022
0.0219865
0.0194026
0.0219998
0.0219967
0.0165187
0.0219941
0.00762389
0.01516
0.0219845
0.00667579
0.0219127
0.0212556
0.0173756
0.0219298
0.0219974
0.0159696
0.0164694
0.022
0.0161363
0.0219987
0.0200167
8.26601e-05
0.0191696
0.0127174
0.021985
0.0219993
0.000679838
0.00010167
0.0176199
0.022
0.00356343
0.0219977
0.0218419
0.0189747
0.0217597
0.0219521
0.0219818
0.012605
0.0219524
0.022
0.00106354
0.00940191
0.0219957
0.0172624
7.03264e-05
0.0219992
0.022
0.0219992
0.022
0.0218884
0.0196374
0.0173029
0.0219998
0.0219994
0.0219997
0.0219997
0.0219997
0.0219999
0.0219997
0.0219984
0.0219996
0.0219991
0.0219985
0.0219997
0.0219999
0.0219999
0.0219991
0.0219998
0.0219997
0.0219997
0.0219999
0.022
0.0219996
0.0219987
0.0219996
0.0219997
0.0219982
0.0219991
0.0219995
0.022
0.0219998
0.0219998
0.022
0.0219979
0.0219994
0.0219982
0.0219999
0.0219997
0.0219999
0.0219999
0.0219979
0.0219996
0.0219998
0.0219994
0.0219996
0.0219982
0.0219985
0.021999
0.0219998
0.0219994
0.0219995
0.0219977
0.0219994
0.022
0.0219996
0.0219997
0.0219984
0.0219999
0.0219979
0.0219995
0.0219997
0.0219997
0.0219994
0.0219987
0.0219999
0.0219982
0.0219991
0.0219985
0.021999
0.0219999
0.0219997
0.0219999
0.000440142
0.00458647
0.0219998
0.000605547
0.0160036
0.0219977
0.0186257
0.0166084
0.0211268
0.0211268
0.012838
0.013855
0.0219875
0.01928
0.0218998
0.0219888
0.02199
0.0219656
0.0161969
0.0219988
0.0211001
0.00115994
0.0148566
0.01523
0.0219797
0.0109579
0.0204721
0.0219947
0.00335224
0.02155
0.0218978
0.0210386
0.0163052
0.0175699
0.0218375
0.000697239
0.0176627
0.0219978
9.3268e-05
0.00120731
0.0217888
0.0219756
0.0185534
0.0193652
0.0117871
0.0219326
0.018655
0.0158421
0.0191693
0.0102674
0.0219984
0.0196797
0.00946394
0.0200724
0.0219995
0.00992785
0.0219457
0.0158341
0.0219968
0.0180992
0.008349
0.0219992
0.0155673
0.00880801
0.0185199
0.0219997
0.0189654
0.0118521
0.00105049
0.0219985
0.0219869
0.0219698
0.0219629
0.0219049
0.0219955
0.0219698
0.0219964
0.0219923
0.0219235
0.0219666
0.0219049
0.0219923
0.0219955
0.0219235
0.0219854
0.0219495
0.0219894
0.021982
0.0219779
0.0219882
0.0219698
0.0219801
0.0219838
0.0219049
0.0219944
0.0219838
0.0219698
0.0219755
0.0219968
0.0219968
0.021931
0.0219968
0.0219801
0.0219666
0.021944
0.021915
0.0219755
0.0219914
0.0219869
0.021996
0.0219854
0.0219779
0.021982
0.0219801
0.0219378
0.0219049
0.0219378
0.0219882
0.0219779
0.0219629
0.0219869
0.0219629
0.0219944
0.0219968
0.0219923
0.0219955
0.0219544
0.0219378
0.021944
0.0219964
0.0219049
0.0219235
0.0219698
0.021995
0.0219629
0.021915
0.0219938
0.021944
0.0219378
0.021931
0.0219779
0.0219931
0.0219882
0.0219944
0.0219974
0.0219544
0.0219923
0.0219544
0.0219974
0.021931
0.0219923
0.021995
0.0219938
0.0219049
0.0219589
0.0219882
0.0219944
0.0219378
0.0219495
0.0219755
0.0219801
0.0219931
0.0219589
0.0219544
0.0219968
0.0219914
0.0219589
0.0219938
0.0219544
0.0219049
0.0219779
0.0219904
0.0219755
0.0219235
0.0219968
0.0219049
7.98133e-05
0.0219801
0.0219589
0.000415461
0.00101785
0.0142691
0.0219914
0.000220184
0.0219698
0.0130933
0.00281619
0.0171506
0.021915
0.00522333
0.0219275
0.0219152
0.00911295
0.0079079
0.0159485
0.0165948
0.0106784
0.0219544
0.00689871
0.0218612
0.0142049
0.00661601
0.00230625
0.00907398
0.00995593
0.0219683
0.017641
0.0219698
0.0206817
0.0219713
0.0185932
0.0153919
0.0192484
0.0195711
0.00843427
0.021982
0.00163209
0.0206711
0.0179824
0.021915
0.0219854
0.0200573
0.011926
0.0188447
0.0219477
0.0219882
0.0167492
0.00225309
0.0219654
0.00158665
0.00269484
0.000156835
0.019759
0.0034825
0.0204009
0.0103712
0.0146979
0.0130772
0.0178819
0.0151897
0.0218645
0.0166565
0.00176385
0.0134702
0.0166372
0.0184366
0.0146601
0.0218344
0.0134505
0.0216478
0.0209908
0.0218584
0.0134505
0.0218926
0.0218774
0.0216478
0.0173036
0.015517
0.0207586
0.0127019
0.021341
0.0218584
0.0123458
0.0138426
0.0207586
0.015517
0.0168528
0.0216478
0.0134505
0.0168528
0.0218344
0.0159572
0.0207586
0.0150842
0.0134505
0.0217115
0.0177526
0.0177526
0.0216478
0.0216478
0.021341
0.0173036
0.014246
0.0177526
0.014246
0.0127019
0.0146601
0.0177526
0.0209908
0.0127019
0.0218584
0.0173036
0.0168528
0.0198289
0.0218926
0.0211838
0.0215679
0.0215679
0.0201752
0.0130702
0.0218584
0.014246
0.0218774
0.0173036
0.0218926
0.0218344
0.0168528
0.0127019
0.0168528
0.0216478
0.0217115
0.0194523
0.014246
0.0218584
0.0168528
0.0150842
0.0204863
0.0218774
0.0201752
0.0168528
0.0204863
0.0168528
0.0198289
0.0134505
0.0123458
0.0209908
0.0194523
0.0173036
0.021341
0.0190511
0.0214673
0.0138426
0.0164032
0.0198289
0.021341
0.0218033
0.0138426
0.0127019
0.0123458
0.0209908
0.0138426
0.0214673
0.0204863
0.0190511
0.0194523
0.0209908
0.0215679
0.0134505
0.0217624
0.0217624
0.015517
0.0217624
0.0218344
0.0146601
0.0207586
0.0130702
0.0181963
0.0186306
0.0201752
0.015517
0.0130702
0.0130702
0.0218774
0.0201752
0.0186306
0.0209908
0.0173036
0.0177526
0.0173036
0.0130702
0.0190511
0.0130702
0.0177526
0.0218344
0.0218033
0.014246
0.0168528
0.0146601
0.0214673
0.0218584
0.0218774
0.0218926
0.0186306
0.0214673
0.0130702
0.0127019
0.0216478
0.0218774
0.0218344
0.0181963
0.0146601
0.0168528
0.0194523
0.021341
0.0127019
0.0134505
0.0177526
0.0209908
0.0204863
0.021341
0.0204863
0.0215679
0.0138426
0.0211838
0.0186306
0.0127019
0.0146601
0.0123458
0.0168528
0.0177526
0.0127019
0.014246
0.0190511
0.0168528
0.0217115
0.0173036
0.0159572
0.0123458
0.0204863
0.0138426
0.0218584
0.0218033
0.0181963
0.0201752
0.0159572
0.0204863
0.015517
0.0181963
0.0218033
0.0211838
0.0211838
0.0201752
0.0198289
0.0215679
0.0218584
0.0211838
0.0211838
0.0150842
0.0134505
0.0217624
0.0204863
0.0150842
0.0215679
0.000932418
0.0173036
0.0123458
0.000131952
0.0017565
0.000837354
0.0159572
0.000130963
0.00496398
0.00871097
0.00928423
0.00928423
0.00356261
0.00131571
9.71607e-05
0.0118673
0.00822864
0.0108785
0.00727845
0.0074265
0.0126667
0.0075764
0.00966189
0.0129923
0.00966803
0.0129399
0.000977065
0.00318782
0.0100183
0.00821246
0.0111293
0.00346876
0.0127708
0.00941234
0.0115738
0.0139194
0.014643
0.0133711
0.0140326
0.0117766
0.00544406
0.0051434
0.00440571
0.0124326
0.0159572
0.0158855
0.0124638
0.0146036
0.0154678
0.00111546
0.00543315
0.0119905
0.00375386
0.0121989
0.0136944
0.0216478
0.00274796
0.0100297
0.0129138
0.0124086
0.00672868
0.0116108
0.0054656
0.0167903
0.00145405
0.0176534
0.0179693
0.00875689
0.0123635
0.0150073
0.00463829
0.0152781
0.012569
0.000595927
0.0138613
0.0155457
0.000831305
0.0193104
0.0143738
0.00648243
0.00705843
0.0137517
0.0172544
0.0172279
0.0178273
0.000677204
0.0029446
0.013608
0.0100875
0.000186969
0.0127548
0.00217902
0.00323677
0.0209908
0.00412964
0.00574394
0.0211838
0.0210574
0.012465
0.00371733
0.00541605
0.00677573
0.00371733
0.0194557
0.00344152
0.0105403
0.00116649
0.0186967
0.0133112
0.0215435
0.0215679
0.0133112
0.00369891
0.0159762
0.00224218
0.00221527
0.0121623
0.000170167
0.000996264
0.0135531
0.0195334
0.0120281
0.0160576
0.0217265
0.00647417
0.0131001
0.0203002
0.0014811
0.0162371
0.0143313
0.0121485
0.0135181
0.0061493
0.0218926
0.00562007
0.00696106
0.00776702
0.0116698
0.0120018
0.00991894
0.00918402
0.0068168
0.0104586
0.007947
0.00742668
0.00991894
0.00667762
0.00895747
0.00991894
0.0113498
0.00593741
0.00605044
0.00726575
0.00628836
0.00582811
0.00991894
0.0110414
0.00895747
0.00918402
0.0120018
0.0107445
0.00696106
0.0101836
0.00941953
0.00813393
0.00628836
0.00696106
0.00852987
0.00628836
0.00711063
0.00941953
0.00572238
0.0104586
0.00832811
0.0104586
0.00542516
0.00572238
0.00628836
0.00918402
0.0104586
0.00759367
0.00941953
0.00873955
0.0104586
0.0113498
0.00654329
0.00873955
0.007947
0.0113498
0.0116698
0.0107445
0.00918402
0.00776702
0.0116698
0.00552105
0.00776702
0.00813393
0.00593741
0.00572238
0.00562007
0.00696106
0.00593741
0.00813393
0.0064136
0.00654329
0.00832811
0.0064136
0.0068168
0.00941953
0.0068168
0.0113498
0.00562007
0.00593741
0.00696106
0.00628836
0.00941953
0.00628836
0.0110414
0.0068168
0.00696106
0.0116698
0.00628836
0.0064136
0.0110414
0.00918402
0.00667762
0.00813393
0.0116698
0.00991894
0.00742668
0.00562007
0.0064136
0.00552105
0.00941953
0.00742668
0.0110414
0.00605044
0.00918402
0.0064136
0.00711063
0.00873955
0.00572238
0.00605044
0.00941953
0.00582811
0.00813393
0.00813393
0.00726575
0.0110414
0.0064136
0.00941953
0.00711063
0.00582811
0.0110414
0.00616736
0.00759367
0.00696106
0.00667762
0.00895747
0.0064136
0.0068168
0.00895747
0.00941953
0.00605044
0.00776702
0.00759367
0.0110414
0.00726575
0.00711063
0.00562007
0.00696106
0.00562007
0.0101836
0.0101836
0.00605044
0.0113498
0.00605044
0.00667762
0.0113498
0.0068168
0.00759367
0.00711063
0.00667762
0.00593741
0.0116698
0.00759367
0.0107445
0.00941953
0.00726575
0.00696106
0.007947
0.00813393
0.00918402
0.0107445
0.0064136
0.00759367
0.0110414
0.0107445
0.00776702
0.00572238
0.00696106
0.00667762
0.00813393
0.00873955
0.00572238
0.00593741
0.00726575
0.0116698
0.0110414
0.00941953
0.0064136
0.00562007
0.00991894
0.00605044
0.0110414
0.00852987
0.0113498
0.0068168
0.007947
0.00582811
0.00895747
0.0116698
0.0068168
0.00991894
0.00616736
0.00918402
0.0120018
0.00759367
0.0110414
0.0068168
0.00726575
0.00562007
0.00711063
0.00813393
0.0116698
0.00667762
0.00542516
0.00873955
0.00832811
0.0116698
0.00852987
0.00562007
0.0113498
0.00941953
0.00832811
0.00852987
0.00991894
0.007947
0.0068168
0.00654329
0.00852987
0.0064136
0.0113498
0.00593741
0.0107445
0.0113498
0.00776702
0.00991894
0.00873955
0.00776702
0.00813393
0.00696106
0.0104586
0.00552105
0.0110414
0.00628836
0.00776702
0.00667762
0.00832811
0.00654329
0.0068168
0.0120018
0.007947
0.00991894
0.00582811
0.00991894
0.0101836
6.3211e-05
0.00711063
0.00813393
0.000323828
0.00726575
6.32234e-05
0.00019113
0.000393888
0.000259871
0.000944306
6.3211e-05
6.3211e-05
0.00155047
0.00572238
0.00759367
0.00413762
0.00501756
0.0014928
0.000413038
0.00508712
0.00537874
0.00628836
0.00138562
0.00593741
0.00352221
0.00481264
0.00351503
0.00537874
0.00813393
0.00551983
0.00370682
0.00414975
0.00476786
0.00414286
0.00498645
0.00572238
0.00367978
0.00554885
0.00577054
0.00616736
0.00552015
0.00364409
0.00534725
0.00218307
0.00550397
0.00589838
0.00574417
0.00266027
0.00601228
0.0055159
0.00587565
0.00623612
0.00574417
0.0064136
0.00628667
0.00640201
0.00502974
0.0033401
0.00320501
0.00612395
0.00296854
0.00441801
0.00381215
0.00522546
0.00415626
0.00601551
0.00579639
0.00188564
0.00710325
0.00325882
0.00339246
0.00325882
0.00651702
0.00636706
0.00561999
0.00335425
0.00653755
6.3211e-05
0.00722548
0.0019746
0.00478652
0.00676867
0.00757585
0.00122338
0.00635607
0.00407666
0.00774813
0.00776702
0.00759367
0.0059858
0.00800534
0.00161129
0.00852987
0.00642828
0.00838461
0.00303287
0.00670345
0.00806668
0.000579924
0.00846055
0.00854711
0.00891148
0.00792007
0.00448012
0.00777368
0.00894405
0.00683146
0.00544418
0.00550406
0.009136
0.00752731
0.00257346
0.00694156
0.00841572
0.00930914
0.00756339
0.00386312
0.00552741
0.00979236
0.0087177
0.0101836
0.0104383
0.00739279
0.000765511
0.0079767
0.00595435
0.00657905
0.0100164
0.00417285
0.0058059
0.00751691
0.00523116
0.00889133
0.00627249
0.0102611
0.00675033
0.0104077
0.0101853
0.000364223
0.00932606
0.00337452
0.00380563
0.00345435
0.0044783
0.00524231
0.00380563
0.00400654
0.00475697
0.00483187
0.00380563
0.00468424
0.00524231
0.00400654
0.00400654
0.00366706
0.00395439
0.00475697
0.00366706
0.00400654
0.00417152
0.0044783
0.00454498
0.00515511
0.00406007
0.00353701
0.00441348
0.00454498
0.00515511
0.00490905
0.00454498
0.00362284
0.00417152
0.00349531
0.00533229
0.0035795
0.00411505
0.00533229
0.0034141
0.00475697
0.00422954
0.00483187
0.00345435
0.00533229
0.00411505
0.00533229
0.00524231
0.0035795
0.00337452
0.00507057
0.00428917
0.00337452
0.00524231
0.00435046
0.00400654
0.0035795
0.00422954
0.00454498
0.00380563
0.00411505
0.00411505
0.00345435
0.00395439
0.00490905
0.00345435
0.0046136
0.00362284
0.00524231
0.00345435
0.00371223
0.00507057
0.00371223
0.00371223
0.00435046
0.00400654
0.00411505
0.0034141
0.00533229
0.00468424
0.00524231
0.00390356
0.0044783
0.00475697
0.00422954
0.00507057
0.00362284
0.00507057
0.00507057
0.00406007
0.00345435
0.003854
0.00515511
0.00333556
0.00390356
0.00362284
0.00390356
0.003854
0.00533229
0.00400654
0.00400654
0.00353701
0.00498858
0.00411505
0.00349531
0.00428917
0.00435046
0.00362284
0.00337452
0.00515511
0.00390356
0.00353701
0.00468424
0.00435046
0.0037584
0.0034141
0.00475697
0.0037584
0.00524231
0.0046136
0.0044783
0.00390356
0.00371223
0.0046136
0.00428917
0.00441348
0.00475697
0.0046136
0.00441348
0.00475697
0.0044783
0.00337452
0.00417152
0.00428917
0.0034141
0.00333556
0.00454498
0.00400654
0.0035795
0.00349531
0.00349531
0.00390356
0.00362284
0.00498858
0.0037584
0.0035795
0.0034141
0.00400654
0.00498858
0.00333556
0.00435046
0.0037584
0.00507057
0.00490905
0.00417152
0.00524231
0.00406007
0.00483187
0.00524231
0.00422954
0.00400654
0.00441348
0.003854
0.00422954
0.00353701
0.00395439
0.0044783
0.00515511
0.00524231
0.00380563
0.00349531
0.0035795
0.00475697
0.00435046
0.00515511
0.00345435
0.00411505
0.00390356
0.00533229
0.00353701
0.00441348
0.00390356
0.00428917
0.00524231
0.000657202
6.3211e-05
6.41492e-05
0.00116734
0.00507057
0.000815948
6.3211e-05
0.000625657
6.3211e-05
6.3211e-05
0.000932937
0.00020608
0.00406007
0.00329522
0.00362284
0.00295053
0.00268619
0.00145235
0.00333556
0.00324277
0.0032312
0.000719122
0.000450135
0.0032186
0.00337338
0.00139757
0.000794313
0.00333739
0.00318365
0.00325564
0.00253422
0.00156134
0.00300838
0.00292623
0.00308608
0.00240541
0.00273615
0.00330715
0.00350228
0.00322918
0.00248359
0.00351747
0.00362284
0.00360834
0.00359163
0.000246326
0.00308335
0.00242608
0.00331577
0.0018252
0.00335132
0.00142452
0.00129076
0.00124037
0.00373974
0.00275005
0.00172699
0.00307084
0.003854
0.00111645
0.00324082
0.00295959
0.00164306
0.00331782
0.00395269
0.00381736
0.00377046
0.00384442
0.00200566
0.00400654
0.00331791
0.00016145
0.00396649
0.00327197
0.0016646
0.00332733
0.00356943
0.00400654
0.00402764
0.00395507
0.00365566
0.0039266
0.00367572
0.00197356
0.00215149
0.00358577
0.00415272
0.00340199
0.00380516
0.00396122
0.00294233
0.00397871
6.3211e-05
0.00421009
0.00399318
0.00420359
0.000306996
0.0041358
0.0044783
0.0022794
0.00439486
0.00342525
0.0044343
0.00245936
0.00360671
0.00351809
0.0046136
0.00443346
0.00330524
0.0042394
7.66898e-05
0.0021037
0.00398175
0.00398175
0.00448365
0.00468165
0.00461471
0.00278966
0.00325812
0.00471512
0.00259527
0.00482617
0.00482617
0.00482617
0.00488088
0.00468936
0.00490738
0.0049415
0.00187888
6.3211e-05
0.00435368
0.00444513
0.00487954
0.00493087
0.00331628
0.00510232
0.00520417
0.00175974
0.00416832
0.00420672
0.00329721
0.00322215
0.00280798
0.00329721
0.00255653
0.00240677
0.00258713
0.00304292
0.0027436
0.00314912
0.00287349
0.00294023
0.0029741
0.0029741
0.00255653
0.0029067
0.00223373
0.00311329
0.00223373
0.0029741
0.0024363
0.00318539
0.0030779
0.00231939
0.00252616
0.00304292
0.00237744
0.0030779
0.00311329
0.00249599
0.00220553
0.00261794
0.00252616
0.00294023
0.00240677
0.00255653
0.00249599
0.0027436
0.00234832
0.00304292
0.00237744
0.00246604
0.00258713
0.0029741
0.00284059
0.00261794
0.00268028
0.00223373
0.00325941
0.00240677
0.00237744
0.00277565
0.00255653
0.0029067
0.00322215
0.00322215
0.00271181
0.00325941
0.00300833
0.00314912
0.00229065
0.00234832
0.00277565
0.00231939
0.00234832
0.0030779
0.00237744
0.0022621
0.0024363
0.00311329
0.00329721
0.00237744
0.00280798
0.00237744
0.00264899
0.00255653
0.00287349
0.00318539
0.00223373
0.00231939
0.00237744
0.00304292
0.00304292
0.00271181
0.0024363
0.00284059
0.0022621
0.00325941
0.00223373
0.00255653
0.00240677
0.00271181
0.00249599
0.00277565
0.00231939
0.00284059
0.0029741
0.00280798
0.0029067
0.0024363
0.00329721
0.00264899
0.00277565
0.00300833
0.00322215
0.0022621
0.00271181
0.00237744
0.00287349
0.00325941
0.00268028
0.00246604
0.00277565
0.00234832
0.0029741
0.00304292
0.00304292
0.0030779
0.00255653
0.0027436
0.0027436
0.00240677
0.00300833
0.00280798
0.00246604
0.00271181
0.00231939
0.0027436
0.00264899
0.00304292
0.00252616
0.00240677
0.00223373
0.00300833
0.00304292
0.00226125
0.00329721
0.00220553
6.3211e-05
0.00268028
0.00318539
0.0007674
0.00137881
0.002198
0.00074726
0.0015473
0.00111511
0.00120785
0.000858277
0.00246604
0.00144871
0.000342227
0.00193024
0.00133292
0.00137836
0.00160655
0.00121782
0.000739244
0.00180171
0.00203021
6.3211e-05
0.00211629
0.00155796
0.0015982
0.00164997
0.00205234
0.00217704
0.00231848
0.000424695
0.00221736
0.00277565
0.00264899
0.00197639
0.000158419
0.00214795
6.3211e-05
0.00212563
0.00119732
0.00234925
0.00233149
0.00232384
6.3211e-05
0.00217679
0.00237581
0.00314912
0.000583203
8.07049e-05
0.00122982
0.00156872
0.00234767
0.00154612
0.00237
0.00239738
0.00187806
0.00234496
0.00198547
0.00187806
0.00223892
0.000583203
6.3211e-05
0.00241785
0.00236607
0.00184883
0.00235519
0.00067177
0.0030779
0.00318539
0.00196764
0.000374402
0.001771
0.00183971
0.00229733
0.000774641
0.000825956
0.00164557
0.000552915
0.00242102
0.000922992
0.00258713
0.00202664
0.000541544
0.00233648
0.00249771
0.00287349
0.00322215
0.00230534
0.00125227
0.00155689
0.0022891
0.00253276
0.00218811
0.00257588
0.00255099
0.0019622
0.000217496
6.3211e-05
0.00255635
0.000942597
0.00153052
6.3211e-05
0.00212446
0.00261957
0.00280798
0.00171951
0.0030779
0.00264293
0.00209293
0.00255167
0.00234608
6.3211e-05
0.00142206
0.00255875
0.00138295
0.00255167
6.3211e-05
0.00233566
0.00237698
0.00262035
0.00167474
0.00255661
0.00264685
0.00260748
0.00271877
0.00245389
0.00271525
0.00154109
0.00245854
0.0007925
0.00275956
6.3211e-05
0.00139157
0.0027501
0.00273811
0.002776
6.3211e-05
0.00090203
0.00286153
6.3211e-05
0.00279497
0.00171565
0.0023184
0.00257583
0.00277516
0.00221957
0.00263223
0.00086343
0.000893974
0.0018986
0.0024684
0.000993963
0.00293942
0.00296107
0.0017188
0.000836838
0.0029976
0.00258115
0.00298494
0.00290473
0.00179492
0.00261806
0.0030713
0.00306908
0.00226545
0.00279066
0.00325941
0.0028682
0.00148177
0.003182
0.00244924
0.00302113
0.002633
0.00046275
0.00178563
0.00198628
0.0023094
0.00276697
6.3211e-05
0.00282789
0.00309616
0.003204
0.00311867
0.00329501
0.00186804
0.00328936
0.00195781
0.00182386
0.00156528
0.00185031
0.00137197
0.00174641
0.00177184
0.00209431
0.00182386
0.00149066
0.00162802
0.0021775
0.00203945
0.00145527
0.00156528
0.00179767
0.00209431
0.00169712
0.00209431
0.00185031
0.00149066
0.00182386
0.0015086
0.00165036
0.00143716
0.00187697
0.00143716
0.00149066
0.00182386
0.00134372
0.00174641
0.0015086
0.00177184
0.00185031
0.00169712
0.0016734
0.0019038
0.00147296
0.00143716
0.00160639
0.00177184
0.00134372
0.00156528
0.00154578
0.00149066
0.00156528
0.00143716
0.00143716
0.00134372
0.00154578
0.00169712
0.0021775
0.00165036
0.00143716
0.00134372
0.00174641
0.00193075
0.00156528
0.00139654
0.00143716
0.00143716
0.0016734
0.00141792
0.00201216
0.00185031
0.00195781
0.00137197
0.00145527
0.00134372
0.00152692
0.00182386
0.00137197
0.00141792
0.00193075
0.00193075
0.00147296
0.00206684
0.00165036
0.00198495
0.00195781
0.00185031
0.00147296
0.00143716
0.00154578
0.00158548
0.00172148
0.00195781
0.00152692
0.00172148
0.00172148
0.00158548
0.00160639
0.00145527
0.00139654
0.00154578
0.00141792
0.00198495
0.0016734
0.00162802
0.00212191
0.00179767
0.00147296
0.0016734
0.00212191
0.00141792
0.00187697
0.00203945
0.0015086
0.00209431
0.00143716
0.00177184
0.00172148
0.00162802
0.00158548
0.00162802
0.00156528
0.00134372
0.00147296
0.00201216
0.00198495
0.00203945
0.00177184
0.00154578
0.0015086
0.00158548
0.00134372
0.00179767
0.00174641
0.00154578
0.00160639
6.66075e-05
6.3211e-05
0.000299583
8.42761e-05
0.0013262
0.00198495
0.000838609
0.000824431
0.000686792
0.0013708
7.19202e-05
6.52529e-05
6.3211e-05
0.00212191
0.000889555
0.00214963
0.00132729
6.3211e-05
0.00121664
0.00123646
0.0013108
0.00125735
0.00124452
0.000319458
0.00119548
0.000811268
6.3211e-05
6.3211e-05
0.00096176
0.000927024
0.00134002
6.3217e-05
6.3211e-05
0.00037436
0.0010353
0.00158548
0.00134059
0.000948453
0.00136229
0.00137391
0.00110891
0.00134654
0.000637387
0.00101517
0.00131515
0.00152692
7.29492e-05
0.00141259
0.00138994
0.000132117
0.000775937
0.00147296
0.000132117
0.00113706
0.00139629
0.00172148
6.3211e-05
0.00106295
0.000221471
0.000790173
0.00130948
0.00028213
0.000779048
0.000920677
0.00136245
0.00141792
0.00110487
0.00125604
0.00131235
0.00135358
0.00119896
0.001024
0.0016734
0.000771514
0.00206684
0.00142112
0.00136845
0.00136845
0.00172148
0.00117874
0.0013179
0.000244191
0.00125241
0.00140669
8.40835e-05
0.00134916
6.32248e-05
0.000717853
0.000846391
0.00142932
0.00143464
0.00141683
0.00119896
0.00144534
0.00139856
0.000480047
0.00144883
0.00037693
0.00203945
0.000388363
0.00142758
0.00147296
0.00133829
0.00143541
0.000913118
0.00102824
0.00145953
0.00113636
0.0015086
0.00103329
0.00147296
0.00107968
0.00135862
0.00147121
0.00152692
0.00114644
0.00148886
0.00144435
0.000793724
0.000989991
0.00107461
0.000452649
0.00149062
0.00148609
6.32111e-05
0.00148383
0.00132508
0.000676993
0.000325605
0.00023189
0.00122856
6.3211e-05
0.000794087
0.000913899
0.000169977
0.00150855
0.00105958
6.3211e-05
0.00137607
0.00149881
0.000998464
0.00130935
0.00124297
0.00148767
0.00154273
0.00123374
0.0014116
0.000954702
0.00138416
0.00143539
6.32242e-05
0.00117971
0.00113884
6.3211e-05
0.000783338
0.00104327
0.000909693
0.00154562
0.00114916
0.00126326
0.00155545
0.00128246
0.0012486
0.00137824
0.00153049
0.0015095
0.00132247
0.0012777
0.00122875
6.3211e-05
0.00119129
0.00156212
0.00107588
0.00135932
0.00121362
0.00157531
0.000681706
6.3211e-05
6.3211e-05
0.000670422
0.00152776
0.0016051
0.00159991
0.00140864
0.00124304
0.00115004
0.00157213
8.22203e-05
0.00147462
0.00139595
0.00160621
6.32133e-05
0.00140864
0.00162764
6.3211e-05
6.32111e-05
0.00179767
0.00153959
6.3211e-05
0.00159695
6.32113e-05
0.00139987
6.32116e-05
6.32174e-05
0.00162783
0.00139595
0.00164021
0.00131272
0.00050302
0.00163902
0.00132348
0.0015995
0.000958715
0.00160396
0.0016732
6.3262e-05
0.00129639
0.000726765
0.00116052
0.00111753
0.00161258
6.34224e-05
6.39937e-05
0.00157847
0.00169241
0.00161888
0.00122074
0.00163745
0.00165604
6.3211e-05
0.000168786
0.00141409
0.000849032
6.32229e-05
6.3211e-05
0.00163407
0.00152654
0.00169937
6.3211e-05
6.3216e-05
6.3211e-05
6.3211e-05
6.3211e-05
0.00171571
6.3247e-05
0.0017462
0.00171371
0.000396536
0.00110374
6.40765e-05
0.00174635
0.00212191
0.00168513
0.00165544
0.00171759
6.3211e-05
0.00144732
0.00152104
0.00171141
0.00155441
0.00177184
0.00158696
0.000494851
6.3211e-05
6.3211e-05
0.00179719
0.0017407
6.32112e-05
0.000524971
0.00137358
8.44332e-05
0.00170008
0.00178038
0.00176445
0.00126803
0.0017976
0.00159677
0.00125835
0.00178506
0.00104859
0.00169815
0.00182386
0.00106912
0.00163722
0.0015553
0.00182386
0.001636
0.00178193
0.00126372
0.00139953
0.00090824
6.3211e-05
0.00184339
0.00184712
0.000824818
0.0017984
0.00184445
0.00183202
0.000741611
0.00177293
0.00185775
0.00167746
0.00126579
0.00117795
0.00209431
0.0011328
0.00126003
6.3211e-05
0.00180455
0.0018682
0.000292384
0.00111999
0.00193075
6.3211e-05
0.00075026
0.000958365
0.00166959
0.00186654
0.000887913
0.0013768
0.001799
6.3211e-05
6.34402e-05
0.00184731
0.00197674
0.000360054
0.00197916
0.00107581
0.00195607
0.00154557
0.00191631
0.00189421
0.00150726
0.00201207
0.00197974
6.32111e-05
0.000649181
0.00192247
0.000961831
0.00142422
6.3211e-05
0.00166329
0.00190255
0.00192724
0.000788388
0.000300369
0.00159628
0.00196517
0.00143448
0.00206265
0.00201351
0.00183021
0.0020877
0.00166555
6.3211e-05
0.0021218
6.3211e-05
0.00197128
0.00212191
0.00211744
0.00104527
0.00148165
0.000840614
6.3211e-05
0.00157823
0.00193836
0.0021083
0.00159547
0.00213482
0.0021738
0.00215726
0.00149139
0.0021775
0.00174439
0.00194594
)


// ************************************************************************* //
