/*--------------------------------*- C++ -*----------------------------------*\
  =========                 |
  \\      /  F ield         | OpenFOAM: The Open Source CFD Toolbox
   \\    /   O peration     | Website:  https://openfoam.org
    \\  /    A nd           | Version:  7
     \\/     M anipulation  |
\*---------------------------------------------------------------------------*/
FoamFile
{
    version     2.0;
    format      ascii;
    class       scalarField;
    location    "0.1075/lagrangian/reactingCloud1";
    object      age;
}
// * * * * * * * * * * * * * * * * * * * * * * * * * * * * * * * * * * * * * //


316
(
0.007165
0.007045
0.007237
0.006349
0.006301
0.006445
0.007021
0.006133
0.006277
0.006157
0.006229
0.006037
0.005989
0.005941
0.005845
0.006061
0.006205
0.005893
0.005749
0.005869
0.006109
0.005797
0.005701
0.005773
0.005821
0.005725
0.005677
0.006085
0.006181
0.005557
0.005653
0.005509
0.005581
0.005485
0.006253
0.005533
0.005629
0.005461
0.005293
0.005437
0.005365
0.005341
0.005413
0.005917
0.005173
0.005221
0.005197
0.005389
0.005245
0.005605
0.005317
0.005149
0.005053
0.005005
0.004981
0.005077
0.005101
0.002461
0.002413
0.001741
0.001645
0.001573
0.001549
0.001525
0.001501
0.001477
0.001453
0.001429
0.001405
0.001381
0.001357
0.001333
0.001309
0.001285
0.001261
0.001237
0.001213
0.001189
0.001165
0.001141
0.001117
0.001093
0.001069
0.001045
0.001021
0.000997
0.000973
0.000949
0.000925
0.000901
0.000877
0.000853
0.000829
0.000805
0.000781
0.000757
0.000733
0.000709
0.000685
0.000661
0.000637
0.000613
0.000589
0.000588625
0.000565
0.000541
0.000517
0.000493
0.000469
0.000445
0.000421
0.000397
0.000373
0.000349
0.000325
0.000301
0.000277
0.000253
0.000229
0.000205
0.000181
0.000157
0.000133
0.000109
8.5e-05
6.1e-05
3.7e-05
1.3e-05
0.006325
0.003181
0.003013
0.003301
0.002845
0.002869
0.002749
0.002773
0.002701
0.002725
0.002629
0.002653
0.00260462
0.002605
0.002581
0.002509
0.002557
0.002533
0.002485
0.002437
0.002677
0.002941
0.002389
0.002341
0.003109
0.002293
0.002365
0.002317
0.002269
0.002221
0.002245
0.002197
0.002149
0.003205
0.002101
0.002125
0.002173
0.002053
0.002077
0.002029
0.001981
0.001957
0.00198062
0.001933
0.002005
0.001909
0.001885
0.001861
0.001837
0.001813
0.001765
0.001717
0.001693
0.001789
0.001669
0.001621
0.001597
0.004045
0.004165
0.004141
0.003949
0.004117
0.003973
0.003997
0.003901
0.004189
0.003853
0.003877
0.004261
0.003805
0.004093
0.003781
0.003685
0.003637
0.003733
0.003661
0.004885
0.003829
0.003517
0.003709
0.003757
0.003541
0.003925
0.003589
0.003493
0.005965
0.003373
0.003445
0.003397
0.003253
0.003229
0.003349
0.004525
0.003421
0.003085
0.003613
0.003277
0.003469
0.003037
0.003061
0.002989
0.003565
0.003157
0.003325
0.002917
0.003133
0.002893
0.002821
0.002797
0.002965
0.004861
0.005125
0.004717
0.004909
0.004813
0.004789
0.004837
0.004933
0.004765
0.004645
0.004741
0.004621
0.004693
0.004573
0.004669
0.004597
0.004549
0.00522062
0.005269
0.004957
0.004501
0.005029
0.004453
0.006013
0.004477
0.004429
0.004309
0.004405
0.004357
0.004285
0.004237
0.004333
0.004381
0.007261
0.004213
0.004069
0.004021
0.007453
0.007477
0.007429
0.007381
0.007309
0.007189
0.007405
0.007069
0.007285
0.007357
0.006997
0.007213
0.007333
0.007117
0.006949
0.006925
0.006853
0.006829
0.007093
0.006733
0.006805
0.006685
0.006781
0.006757
0.006637
0.006901
0.006877
0.006709
0.006541
0.006565
0.006469
0.006589
0.006517
0.006973
0.006613
0.006421
0.006661
0.007141
0.006493
0.006397
0.006373
)


// ************************************************************************* //
