/*--------------------------------*- C++ -*----------------------------------*\
  =========                 |
  \\      /  F ield         | OpenFOAM: The Open Source CFD Toolbox
   \\    /   O peration     | Website:  https://openfoam.org
    \\  /    A nd           | Version:  7
     \\/     M anipulation  |
\*---------------------------------------------------------------------------*/
FoamFile
{
    version     2.0;
    format      ascii;
    class       labelField;
    location    "0.1075/lagrangian/reactingCloud1";
    object      cellId;
}
// * * * * * * * * * * * * * * * * * * * * * * * * * * * * * * * * * * * * * //


316
(
24
23
14
19
18
52
154
114
189
151
186
184
183
254
249
329
292
290
317
361
400
360
353
396
433
431
465
469
468
458
465
533
536
570
609
641
644
642
669
710
744
743
745
779
772
810
809
841
867
923
949
977
1002
1001
1000
1055
1058
840
900
1042
740
1025
1001
1002
990
985
964
941
933
917
901
890
862
846
844
825
814
785
763
751
729
708
708
694
664
643
420
623
603
581
573
555
524
501
504
488
471
448
425
406
402
397
372
361
346
352
325
303
291
272
241
244
222
207
185
190
164
142
127
130
103
82
91
63
46
40
25
6
675
996
896
897
957
896
1046
1000
877
816
943
919
943
858
838
904
776
756
861
798
778
656
758
806
575
785
677
782
766
749
721
726
680
555
663
660
597
644
597
622
609
611
578
585
536
564
518
520
477
477
481
461
453
436
420
406
391
1029
904
844
929
843
887
865
889
763
871
848
622
767
623
624
668
651
605
628
321
502
575
503
503
508
447
485
467
200
410
365
304
288
246
203
100
182
212
161
163
141
194
169
175
122
124
101
112
82
70
77
33
3
461
492
510
545
543
571
599
627
624
622
626
649
623
646
651
676
644
680
763
816
840
870
894
981
921
948
972
1003
403
383
343
280
279
217
180
184
171
628
628
630
658
687
713
719
742
777
776
802
806
837
806
832
833
830
894
891
886
924
916
921
921
916
951
982
981
974
1005
1000
1007
1005
1009
1035
1028
1034
1035
1055
1051
1050
)


// ************************************************************************* //
