/*--------------------------------*- C++ -*----------------------------------*\
  =========                 |
  \\      /  F ield         | OpenFOAM: The Open Source CFD Toolbox
   \\    /   O peration     | Website:  https://openfoam.org
    \\  /    A nd           | Version:  7
     \\/     M anipulation  |
\*---------------------------------------------------------------------------*/
FoamFile
{
    version     2.0;
    format      ascii;
    class       vectorField;
    location    "0.1075/lagrangian/reactingCloud1";
    object      coordinates;
}
// * * * * * * * * * * * * * * * * * * * * * * * * * * * * * * * * * * * * * //


316
(
(1.82088 0.0876062 -9.72833e-07)
(1.80853 0.0820086 4.65077e-07)
(1.80557 0.0229618 2.40136e-07)
(1.79987 0.0516345 4.64342e-07)
(1.79489 0.0456142 -1.91568e-12)
(1.7891 0.0616575 -3.90937e-07)
(1.69207 0.0796952 6.9012e-08)
(1.72727 0.0481056 6.10952e-07)
(1.67594 0.0826666 5.61207e-07)
(1.69289 0.0603118 1.41168e-08)
(1.6861 0.0579678 -1.0305e-07)
(1.68113 0.0438769 -2.03143e-13)
(1.66906 0.0361102 -2.2026e-14)
(1.63531 0.047157 -1.50872e-13)
(1.62001 0.0177528 -1.83343e-14)
(1.59281 0.0823281 6.57599e-07)
(1.60796 0.0679465 5.2698e-07)
(1.60728 0.0508891 1.2731e-07)
(1.58061 0.00450663 -1.09623e-13)
(1.57185 0.060596 3.92769e-08)
(1.53741 0.0859708 -1.17848e-07)
(1.56243 0.0530975 -1.05354e-13)
(1.55828 0.0121018 -1.90962e-14)
(1.53749 0.0601238 -1.98519e-07)
(1.52502 0.0748354 -5.45263e-07)
(1.526 0.0582994 1.57285e-07)
(1.50694 0.0541209 -1.17229e-12)
(1.49128 0.0788274 3.81223e-07)
(1.49991 0.0746631 2.54515e-07)
(1.49677 0.0109302 -2.4411e-14)
(1.4901 0.0547054 -1.09026e-07)
(1.45994 0.0358022 -2.46047e-12)
(1.44992 0.057803 2.99739e-07)
(1.42989 0.0502638 -7.77115e-13)
(1.42133 0.0768921 3.801e-08)
(1.40662 0.0620779 6.70061e-08)
(1.39658 0.0781457 -1.21868e-11)
(1.38952 0.0654008 -2.64282e-07)
(1.37602 0.0220801 -2.21351e-12)
(1.36132 0.0670323 -9.09976e-08)
(1.34782 0.0625313 -7.6767e-07)
(1.3506 0.0567862 -3.38176e-08)
(1.34446 0.0713147 4.54567e-07)
(1.33209 0.0709436 -2.07036e-08)
(1.31958 0.027603 -1.18407e-12)
(1.31611 0.0487338 -5.17469e-13)
(1.31225 0.0436604 -3.27595e-13)
(1.29284 0.0756057 3.63492e-07)
(1.26891 0.0720437 -2.84406e-10)
(1.25173 0.0840831 1.41382e-07)
(1.22958 0.0779372 -2.99039e-07)
(1.21605 0.0849493 2.55171e-07)
(1.20341 0.0675729 -2.93595e-07)
(1.19563 0.0612283 5.89097e-08)
(1.19211 0.0585595 -5.03977e-08)
(1.17047 0.061746 -5.43961e-07)
(1.17041 0.0854508 -2.70673e-07)
(0.387385 0.136169 -4.76285e-08)
(0.402314 0.140387 -1.70473e-07)
(0.42914 0.139017 -2.31474e-08)
(0.3644 0.134217 -2.81595e-08)
(0.425909 0.112805 -7.72714e-11)
(0.421928 0.139127 7.2745e-08)
(0.420449 0.129951 1.75138e-10)
(0.415388 0.0681958 4.84047e-11)
(0.414068 0.108152 -1.5468e-10)
(0.411648 0.116404 9.37421e-12)
(0.407896 0.133649 -1.34583e-07)
(0.40139 0.0463734 -4.06569e-12)
(0.398161 0.017246 8.53226e-13)
(0.399301 0.131228 1.75403e-11)
(0.392988 0.0694703 -1.45926e-11)
(0.392563 0.125287 -1.05617e-10)
(0.387509 0.0964473 -2.14546e-11)
(0.384866 0.108065 -2.32329e-10)
(0.381169 0.0990462 -2.31665e-12)
(0.374484 0.0408493 -1.07305e-12)
(0.373736 0.101028 -4.34521e-11)
(0.371704 0.110052 -7.01276e-12)
(0.364376 0.0606092 -4.32948e-11)
(0.361388 0.0729964 -5.84329e-12)
(0.357536 0.0789131 -3.03477e-11)
(0.353976 0.0744691 -9.28678e-12)
(0.348243 0.03637 -5.97799e-12)
(0.347977 0.0996395 -1.44262e-10)
(0.344035 0.106041 -1.03118e-10)
(0.290482 0.128042 3.83193e-07)
(0.336348 0.107699 -1.1955e-11)
(0.332838 0.110648 -1.3626e-10)
(0.329326 0.118891 -1.80073e-10)
(0.322686 0.0393656 -4.6304e-11)
(0.318085 0.0271656 -1.59705e-11)
(0.31664 0.102206 -5.27858e-12)
(0.311822 0.119737 6.86477e-11)
(0.308108 0.0998506 1.70445e-11)
(0.303869 0.0763769 -2.53908e-11)
(0.299533 0.0530108 -3.28844e-11)
(0.295708 0.0732238 -7.9141e-12)
(0.292439 0.095798 -1.69479e-12)
(0.287877 0.0843175 3.8387e-13)
(0.283923 0.113357 1.03708e-10)
(0.279442 0.0137073 -7.59685e-12)
(0.275785 0.0515594 -2.86836e-11)
(0.276674 0.118382 -1.30851e-11)
(0.271754 0.0901297 -3.43162e-11)
(0.268206 0.0511059 2.78381e-13)
(0.263737 0.0919338 2.05844e-11)
(0.260291 0.103362 -2.46549e-11)
(0.255776 0.0533944 -7.08932e-12)
(0.252199 0.0470477 2.9328e-12)
(0.247886 0.116706 -1.25819e-12)
(0.244283 0.0996307 1.9941e-11)
(0.240842 0.11128 -6.75112e-12)
(0.235971 0.0826195 -4.87508e-12)
(0.231887 0.0954647 4.54652e-12)
(0.228722 0.0609452 2.58048e-12)
(0.224864 0.102928 -7.40546e-12)
(0.22049 0.114866 -4.32764e-13)
(0.216419 0.0804517 1.93563e-11)
(0.212783 0.0587891 -2.50109e-12)
(0.208248 0.108474 -1.08204e-12)
(0.20405 0.111914 1.18475e-12)
(0.200794 0.0528961 8.55574e-13)
(0.196347 0.108698 -2.9395e-13)
(0.192458 0.0843022 -9.68778e-13)
(0.189062 0.122643 -8.01606e-14)
(0.184294 0.0929192 1.22956e-11)
(0.180113 0.0871511 -2.84417e-12)
(0.491497 0.164241 4.66494e-07)
(0.557452 0.143276 -3.15137e-08)
(0.538044 0.146436 -1.03948e-07)
(0.537016 0.139938 -3.58641e-07)
(0.549691 0.131626 -3.68184e-07)
(0.53781 0.144216 -1.65855e-09)
(0.564817 0.0657289 1.82744e-11)
(0.558047 0.1078 1.19415e-10)
(0.533959 0.135538 -4.83692e-07)
(0.520947 0.14793 3.66007e-08)
(0.546352 0.0920093 -2.84278e-13)
(0.540888 0.120259 1.95826e-11)
(0.543822 0.0909439 -1.12566e-13)
(0.530346 0.131175 -1.6559e-11)
(0.526049 0.134311 2.2428e-11)
(0.53474 0.0795487 1.33192e-11)
(0.512029 0.145678 -1.107e-08)
(0.507902 0.147062 3.67136e-08)
(0.527538 0.104605 4.7523e-11)
(0.515075 0.129223 6.98931e-11)
(0.511901 0.130757 9.20383e-07)
(0.488619 0.155409 -9.01797e-08)
(0.509115 0.132617 1.90539e-11)
(0.516715 0.0644333 1.2966e-11)
(0.468841 0.160685 -1.508e-07)
(0.51007 0.0787213 1.78574e-13)
(0.489327 0.146729 1.20638e-07)
(0.509843 0.100402 2.01952e-11)
(0.508307 0.0689302 6.20862e-12)
(0.503439 0.0474612 8.92416e-12)
(0.500874 0.109345 3.96671e-11)
(0.499542 0.0689671 3.70472e-12)
(0.489512 0.118326 2.4897e-11)
(0.466344 0.156924 1.16873e-07)
(0.486963 0.0953563 3.86009e-12)
(0.487255 0.117046 7.8033e-11)
(0.475956 0.14544 1.29148e-07)
(0.482052 0.0837985 1.13123e-10)
(0.474064 0.142127 -2.88081e-07)
(0.478871 0.0995785 9.81673e-11)
(0.474718 0.0466114 -9.63635e-13)
(0.472245 0.0277655 5.20477e-14)
(0.468896 0.132145 1.08748e-10)
(0.468293 0.0798656 -7.76216e-13)
(0.462184 0.147374 3.89036e-07)
(0.46574 0.088875 8.5604e-11)
(0.457712 0.137094 2.04066e-10)
(0.458724 0.119171 2.24471e-12)
(0.449005 0.141681 -7.98939e-08)
(0.448009 0.141561 9.08656e-08)
(0.448328 0.107726 1.8691e-11)
(0.443351 0.111858 8.13617e-11)
(0.438966 0.00865857 8.26763e-12)
(0.440789 0.145311 -5.44781e-07)
(0.437692 0.113544 -2.43975e-11)
(0.430567 0.066403 -2.5488e-11)
(0.427019 0.0236711 2.32884e-11)
(0.815403 0.0566546 -1.55125e-10)
(0.778806 0.0820508 2.80699e-07)
(0.764756 0.0818582 -5.50791e-07)
(0.786432 0.054836 -6.74796e-11)
(0.760911 0.0855637 3.42301e-08)
(0.774383 0.0666583 1.5779e-07)
(0.766384 0.0761554 -3.14008e-07)
(0.773627 0.0542181 -2.38325e-11)
(0.739149 0.0841786 5.45434e-07)
(0.767648 0.0450186 -1.77066e-10)
(0.761036 0.0585813 3.6928e-11)
(0.70615 0.0987078 -3.70391e-08)
(0.737816 0.0624095 5.24246e-11)
(0.70837 0.0891298 1.37151e-07)
(0.706538 0.0844996 7.31402e-11)
(0.713135 0.0600342 1.85739e-12)
(0.711341 0.0474913 2.78264e-12)
(0.702123 0.0805586 1.82841e-12)
(0.70467 0.0640667 5.62101e-11)
(0.636674 0.125498 -5.49689e-07)
(0.680637 0.104083 -8.27487e-08)
(0.693352 0.0271174 1.0759e-12)
(0.678842 0.0972368 7.7056e-11)
(0.676346 0.100573 -8.85288e-09)
(0.67905 0.0692593 5.52578e-12)
(0.665882 0.07612 1.03374e-06)
(0.67395 0.0861729 9.92896e-11)
(0.667994 0.0736871 8.28512e-11)
(0.613651 0.137371 -1.01702e-07)
(0.654163 0.0615124 1.29246e-12)
(0.646984 0.093262 -4.79278e-13)
(0.635395 0.100906 1.26543e-12)
(0.627428 0.0807086 1.01661e-11)
(0.619448 0.0918842 2.05866e-12)
(0.614145 0.117198 4.138e-11)
(0.59272 0.144161 -1.49424e-07)
(0.609507 0.125143 2.30184e-08)
(0.612458 0.0540885 2.32059e-11)
(0.603392 0.129909 1.32518e-08)
(0.605597 0.119027 2.20193e-11)
(0.600419 0.133964 -2.34363e-09)
(0.607228 0.0408087 5.25396e-11)
(0.604177 0.0723478 3.71697e-11)
(0.601657 0.0304229 6.11642e-13)
(0.595777 0.128153 1.20306e-07)
(0.596367 0.115337 2.04939e-10)
(0.593351 0.133363 5.34946e-07)
(0.589504 0.0515574 5.44701e-11)
(0.586064 0.128121 1.61156e-07)
(0.581771 0.0721179 3.04123e-11)
(0.579485 0.020867 -1.77647e-12)
(0.573584 0.0482084 2.10708e-12)
(0.570755 0.123791 3.23516e-11)
(1.14174 0.05488 -3.51041e-07)
(1.12565 0.0851566 -4.3891e-07)
(1.12073 0.024863 -1.46045e-13)
(1.1091 0.0758789 -6.09489e-08)
(1.10227 0.0634329 2.47536e-07)
(1.08884 0.0694012 2.33866e-07)
(1.08425 0.0744651 3.66135e-08)
(1.06721 0.0833096 -4.24873e-07)
(1.06559 0.0623489 3.31461e-07)
(1.06447 0.0482363 5.01694e-14)
(1.06201 0.0737274 2.32073e-07)
(1.05892 0.0455496 4.14149e-12)
(1.06464 0.0580152 -2.85009e-07)
(1.05381 0.0318382 1.16844e-11)
(1.05012 0.060338 1.21225e-07)
(1.04492 0.0474198 1.68201e-12)
(1.05157 0.0189258 -2.41401e-13)
(1.03962 0.0740691 6.17831e-08)
(1.00793 0.0882333 9.29547e-08)
(0.99378 0.0806356 -5.74958e-08)
(0.98071 0.0606947 -2.23681e-07)
(0.967755 0.0838737 -4.27622e-07)
(0.962961 0.0608607 1.77237e-07)
(0.935094 0.0955407 -1.50222e-07)
(0.952719 0.0633841 7.15514e-08)
(0.937922 0.0637396 3.38407e-07)
(0.936771 0.0388248 -3.18839e-12)
(0.922034 0.0679476 4.49831e-08)
(0.91029 0.0641903 -1.75353e-07)
(0.898684 0.0585752 5.56636e-07)
(0.8825 0.0575913 -4.09042e-11)
(0.859653 0.0764752 1.25731e-07)
(0.858097 0.0832271 3.67544e-07)
(0.843161 0.0923319 -2.22172e-07)
(0.829842 0.0776491 -2.05663e-07)
(0.827974 0.0527514 -3.43046e-11)
(0.821681 0.0445063 -9.72563e-11)
(2.31437 0.0373468 -1.45814e-13)
(2.32265 0.0342027 3.67341e-07)
(2.29577 0.0534616 2.4714e-07)
(2.26001 0.0449138 -1.3256e-07)
(2.23452 0.046135 -3.51047e-08)
(2.2093 0.0226863 -1.1454e-13)
(2.20098 0.0678887 -3.23535e-07)
(2.15776 0.0216553 -1.68065e-13)
(2.14223 0.066428 -4.01645e-07)
(2.14254 0.0592276 -1.56966e-07)
(2.1117 0.0382286 -3.77002e-13)
(2.11123 0.0637073 4.74736e-07)
(2.08184 0.0799724 7.47502e-08)
(2.09135 0.0640692 -5.09295e-08)
(2.08062 0.0435813 -1.26776e-07)
(2.06673 0.0473299 4.9534e-08)
(2.0587 0.02879 -3.92226e-13)
(2.01187 0.0710855 2.74935e-07)
(2.01758 0.050045 4.29708e-07)
(2.0113 0.0156824 2.63363e-13)
(1.97816 0.0802346 2.5718e-08)
(1.98778 0.0237003 -2.2981e-14)
(1.98233 0.0537128 -3.92014e-08)
(1.96587 0.0529243 -4.40048e-08)
(1.96582 0.0224645 -1.60847e-13)
(1.93676 0.0630954 -3.37821e-07)
(1.92948 0.0768925 -5.93521e-08)
(1.9247 0.06756 -4.04317e-09)
(1.92309 0.0226621 -2.71753e-14)
(1.8941 0.0479158 -3.77953e-07)
(1.89371 0.0174396 6.4509e-15)
(1.8908 0.0644928 1.44735e-07)
(1.89191 0.0447955 -3.39743e-07)
(1.87674 0.0788417 3.64256e-07)
(1.87163 0.0766182 -4.53542e-09)
(1.86757 0.0280136 -1.26276e-13)
(1.86308 0.0718103 1.60734e-07)
(1.85697 0.0802654 6.25345e-08)
(1.84508 0.0705781 1.74099e-07)
(1.84 0.0439071 -8.4458e-14)
(1.82502 0.0364683 4.40386e-07)
)


// ************************************************************************* //
