/*--------------------------------*- C++ -*----------------------------------*\
  =========                 |
  \\      /  F ield         | OpenFOAM: The Open Source CFD Toolbox
   \\    /   O peration     | Website:  https://openfoam.org
    \\  /    A nd           | Version:  7
     \\/     M anipulation  |
\*---------------------------------------------------------------------------*/
FoamFile
{
    version     2.0;
    format      ascii;
    class       labelField;
    location    "0.1075/lagrangian/reactingCloud1";
    object      origId;
}
// * * * * * * * * * * * * * * * * * * * * * * * * * * * * * * * * * * * * * //


316
(
13
18
10
47
49
43
19
56
50
55
52
60
62
64
68
59
53
66
72
67
57
70
74
71
69
73
75
58
54
80
76
82
79
83
51
81
77
84
91
85
88
89
86
65
97
94
96
87
93
78
90
98
102
104
105
101
100
211
213
242
246
249
250
251
252
253
254
255
256
257
258
259
260
261
262
263
264
265
266
267
268
269
270
271
272
273
274
275
276
277
278
279
280
281
282
283
284
285
286
287
288
289
290
291
292
293
294
295
296
297
298
299
300
301
302
303
304
305
306
307
308
309
310
311
312
313
314
315
48
180
187
175
194
193
198
197
200
199
203
202
205
204
206
209
207
208
210
212
201
190
214
216
183
218
215
217
219
221
220
222
224
179
226
225
223
228
227
229
231
233
232
234
230
235
236
237
238
239
241
243
244
240
245
247
248
144
139
140
148
141
147
146
150
138
152
151
135
154
142
155
159
161
157
160
109
153
166
158
156
165
149
163
167
63
172
169
171
177
178
173
124
170
184
162
176
168
186
185
188
164
181
174
191
182
192
195
196
189
110
99
116
108
112
113
111
107
114
119
115
120
117
122
118
121
123
95
92
106
125
103
127
61
126
128
133
129
131
134
136
132
130
9
137
143
145
1
0
2
4
7
12
3
17
8
5
20
11
6
15
22
23
26
27
16
31
28
33
29
30
35
24
25
32
39
38
42
37
40
21
36
44
34
14
41
45
46
)


// ************************************************************************* //
