/*--------------------------------*- C++ -*----------------------------------*\
  =========                 |
  \\      /  F ield         | OpenFOAM: The Open Source CFD Toolbox
   \\    /   O peration     | Website:  https://openfoam.org
    \\  /    A nd           | Version:  7
     \\/     M anipulation  |
\*---------------------------------------------------------------------------*/
FoamFile
{
    version     2.0;
    format      ascii;
    class       Cloud<passiveParticle>;
    location    "0.1075/lagrangian/reactingCloud1";
    object      positions;
}
// * * * * * * * * * * * * * * * * * * * * * * * * * * * * * * * * * * * * * //

316
(
(0.0228051 0.490184 0.026687 0.460324) 46110 91539 1
(0.436536 0.252406 0.0294273 0.281631) 46109 91538 2
(0.511486 0.244063 0.0809547 0.163497) 46100 91522 1
(0.178799 0.410315 0.118465 0.292421) 46105 91530 1
(0.0460348 0.497607 0.208769 0.247589) 46104 91615 1
(0.392012 0.320016 0.243209 0.0447631) 46150 91619 1
(0.0386282 0.482103 0.444263 0.0350053) 46285 91977 1
(0.652736 0.17312 0.0782461 0.0958981) 46236 91794 1
(0.72002 0.117804 0.135805 0.0263708) 46329 92065 2
(0.104397 0.46851 0.106505 0.320588) 46282 91971 1
(0.130111 0.159321 0.276009 0.43456) 46326 91972 2
(0.273016 0.291039 0.0730148 0.362931) 46324 91968 2
(0.0423464 0.478944 0.0580806 0.420629) 46323 91966 1
(0.665957 0.0323229 0.13702 0.1647) 46412 92143 2
(0.0344071 0.0977096 0.470338 0.397545) 46407 92221 2
(0.330072 0.228979 0.114433 0.326516) 46505 92329 2
(0.98721 0.00597365 0.00583934 0.000977483) 46459 92240 1
(0.372853 0.31392 0.279086 0.034142) 46457 92234 1
(0.0231855 0.488884 0.284334 0.203597) 46493 92306 1
(0.186724 0.354744 0.0722752 0.386256) 46546 92411 2
(0.539074 0.230642 0.0709118 0.159373) 46594 92508 1
(0.93963 0.0302046 0.0181507 0.0120145) 46545 92412 1
(0.588901 0.0285431 0.20073 0.181826) 46538 92483 2
(0.688791 0.132416 0.147789 0.0310042) 46590 92587 2
(0.468154 0.17041 0.103546 0.25789) 46636 92591 2
(0.375534 0.318797 0.103142 0.202527) 46634 92587 1
(0.167455 0.175067 0.252543 0.404934) 46677 92673 2
(0.332528 0.33635 0.262688 0.068434) 46681 92769 1
(0.791365 0.0249331 0.104472 0.0792307) 46680 92682 2
(0.857754 0.0726047 0.0638192 0.00582213) 46670 92747 1
(0.219622 0.0497904 0.38685 0.343738) 46677 92761 2
(0.315411 0.210817 0.131838 0.341934) 46763 92846 2
(0.264323 0.379364 0.175582 0.18073) 46766 92939 1
(0.231254 0.397509 0.195433 0.175804) 46809 93025 1
(0.100515 0.276146 0.173923 0.449415) 46857 93034 2
(0.0872977 0.047908 0.456347 0.408447) 46898 93118 2
(0.558693 0.220776 0.0964896 0.124042) 46901 93122 1
(0.00450977 0.523309 0.030059 0.442123) 46899 93205 1
(0.184431 0.408088 0.227943 0.179539) 46936 93194 1
(0.589106 0.20574 0.0338307 0.171324) 46987 93296 1
(0.186606 0.191933 0.215723 0.405738) 47031 93382 2
(0.257021 0.382136 0.16118 0.199664) 47030 93379 1
(0.68682 0.131423 0.0249524 0.156804) 47032 93384 2
(0.350528 0.331432 0.134388 0.183652) 47076 93471 1
(0.0831537 0.458522 0.395128 0.0631958) 47069 93460 1
(0.19413 0.410786 0.104453 0.290631) 47117 93553 1
(0.647895 0.188422 0.145154 0.0185286) 47116 93551 1
(0.110398 0.418948 0.0260515 0.444603) 47165 93650 2
(0.142253 0.364602 0.412334 0.0808107) 47208 93823 2
(0.00394079 0.515368 0.477864 0.0028274) 47298 93915 1
(0.853081 0.057688 0.0182614 0.0709692) 47341 94001 2
(0.621756 0.00561282 0.189285 0.183346) 47386 94094 2
(0.00243905 0.160922 0.338276 0.498363) 47428 94176 2
(0.208447 0.395945 0.204356 0.191252) 47427 94174 1
(0.136716 0.200052 0.419861 0.243371) 47426 94259 2
(0.418273 0.235654 0.0559739 0.290099) 47515 94350 2
(0.274935 0.311538 0.362067 0.0514605) 47518 94358 2
(0.675556 0.108605 0.162657 0.0531822) 3240 6296 2
(0.0310555 0.310516 0.492573 0.165855) 3300 6450 2
(0.199898 0.398606 0.28959 0.111906) 3442 6688 1
(0.284916 0.356902 0.0261009 0.332082) 3140 6099 1
(0.180437 0.400403 0.137801 0.281358) 3425 6693 1
(0.382876 0.0613401 0.310296 0.245487) 3401 6646 2
(0.214443 0.375264 0.394751 0.0155418) 3402 6612 2
(0.13153 0.432184 0.0336707 0.402615) 3390 6589 1
(0.0318392 0.439485 0.0288998 0.499776) 3385 6576 2
(0.692335 0.0368405 0.116807 0.154017) 3364 6536 2
(0.307548 0.223579 0.347261 0.121612) 3341 6493 2
(0.599477 0.0570303 0.138479 0.205014) 3333 6475 2
(0.592159 0.0649229 0.220151 0.122767) 3317 6483 2
(0.350918 0.137026 0.325175 0.18688) 3301 6415 2
(0.362271 0.313855 0.100188 0.223686) 3290 6391 1
(0.521192 0.235468 0.101621 0.14172) 3262 6375 1
(0.547565 0.22397 0.165543 0.0629221) 3246 6344 1
(0.0666895 0.368605 0.0857632 0.478942) 3244 6301 2
(0.411398 0.0222617 0.294391 0.27195) 3225 6267 2
(0.114644 0.44012 0.0306988 0.414537) 3214 6243 1
(0.634746 0.176918 0.00505515 0.183281) 3185 6187 2
(0.0638134 0.0279081 0.468965 0.439313) 3163 6182 2
(0.147835 0.425062 0.308473 0.11863) 3151 6121 1
(0.282872 0.356058 0.305939 0.0551314) 3129 6116 1
(0.0996676 0.441717 0.255843 0.202772) 3108 6075 1
(0.269073 0.0445505 0.365594 0.320782) 3108 6039 2
(0.2803 0.325865 0.0013987 0.392437) 3094 6009 2
(0.0431727 0.477673 0.18195 0.297204) 3064 5953 1
(0.115825 0.441694 0.269636 0.172845) 3043 5912 1
(0.323545 0.338397 0.140169 0.197888) 2820 96683 2
(0.147655 0.354687 0.0604018 0.437256) 3023 5870 2
(0.145559 0.221132 0.205684 0.427625) 3003 5832 2
(0.47189 0.251447 0.264455 0.0122084) 2981 5791 2
(0.109564 0.444626 0.00419161 0.441619) 2973 5776 1
(0.364163 0.317655 0.0769499 0.241232) 2955 5741 1
(0.267667 0.363525 0.284279 0.0845292) 2924 5716 1
(0.482532 0.252452 0.0263271 0.238688) 2901 5671 1
(0.153465 0.380597 0.0299844 0.435954) 2904 5638 2
(0.344519 0.128635 0.199066 0.32778) 2888 5608 2
(0.417976 0.29099 0.000954379 0.290079) 2871 5577 1
(0.681327 0.159337 0.111372 0.0479652) 2848 5532 1
(0.316678 0.341661 0.00450006 0.337161) 2825 5485 1
(0.106862 0.0105525 0.446975 0.43561) 2806 5486 2
(0.0488851 0.464123 0.411621 0.0753704) 2802 5439 1
(0.232252 0.374693 0.383874 0.00918105) 2797 5433 2
(0.0226638 0.488668 0.386712 0.101956) 2772 5382 1
(0.679304 0.160348 0.0429009 0.117447) 2761 5362 1
(0.0704088 0.464796 0.311943 0.152852) 2746 5331 1
(0.138717 0.429795 0.0135461 0.417942) 2752 5342 1
(0.0930546 0.197693 0.248719 0.460533) 2725 5289 2
(0.0306118 0.316266 0.484694 0.168428) 2703 5249 2
(0.53587 0.232065 0.0828818 0.149183) 2691 5226 1
(0.212524 0.181208 0.406681 0.199587) 2672 5225 2
(0.164687 0.417656 0.375985 0.0416713) 2641 5128 1
(0.442972 0.213466 0.0579324 0.28563) 2644 5131 2
(0.480149 0.259926 0.0351285 0.224797) 2622 5091 1
(0.402311 0.298845 0.13548 0.163365) 2607 5060 1
(0.276825 0.35921 0.292628 0.0713372) 2585 5055 1
(0.64772 0.113603 0.0562256 0.182451) 2590 5026 2
(0.104732 0.447634 0.420338 0.0272965) 2564 4976 1
(0.408015 0.295993 0.101604 0.194389) 2542 4933 1
(0.0296458 0.450649 0.503954 0.015751) 2527 4942 2
(0.214478 0.231709 0.392761 0.161052) 2530 4912 2
(0.388859 0.257699 0.0478716 0.30557) 2503 4857 2
(0.626562 0.0242943 0.187434 0.16171) 2482 4854 2
(0.28653 0.0499404 0.303673 0.359856) 2491 4833 2
(0.318606 0.144648 0.196048 0.340697) 2463 4779 2
(0.123038 0.438481 0.122554 0.315927) 2446 4748 1
(0.00604534 0.000144266 0.496977 0.496833) 2440 4736 2
(0.345934 0.222472 0.0966159 0.334979) 2425 4704 2
(0.882401 0.0606175 0.0566348 0.000347169) 2406 97392 2
(0.0529952 0.47319 0.448266 0.0255486) 3740 96637 2
(0.564306 0.21724 0.0235356 0.194918) 4061 7894 1
(0.637823 0.181183 0.0227324 0.158261) 3961 7700 1
(0.330822 0.277269 0.0581291 0.33378) 3962 7702 2
(0.0531261 0.471201 0.472128 0.00354548) 4022 7821 2
(0.774525 0.00546717 0.112889 0.107119) 3961 7738 2
(0.675766 0.0729154 0.089384 0.161934) 4111 7993 2
(0.177116 0.412225 0.0954337 0.315226) 4065 7905 1
(0.429112 0.285775 0.233367 0.0517456) 3942 7665 1
(0.859146 0.0687569 0.00915568 0.0629416) 3881 7582 1
(0.216352 0.390731 0.366676 0.0262418) 4008 7830 1
(0.797289 0.0581968 0.101215 0.0432989) 3984 7747 2
(0.587308 0.205704 0.0154019 0.191586) 4008 7791 1
(0.219014 0.381793 0.103393 0.2958) 3923 7664 1
(0.183796 0.408241 0.0586856 0.349277) 3903 7587 1
(0.248607 0.0506907 0.375575 0.325127) 3969 7718 2
(0.0984616 0.396044 0.449847 0.0556476) 3841 7468 2
(0.272357 0.315041 0.363109 0.049493) 3821 7429 2
(0.394409 0.140176 0.302463 0.162951) 3926 7634 2
(0.139832 0.174338 0.429678 0.256153) 3863 7511 2
(0.402452 0.27607 0.298542 0.022936) 3843 7472 2
(0.249368 0.375381 0.0495662 0.325685) 3721 7232 1
(0.396641 0.181978 0.307366 0.114014) 3823 7469 2
(0.0748537 0.462684 0.414994 0.0474678) 3871 7527 1
(0.266519 0.3587 0.323719 0.0510622) 3640 7074 1
(0.512823 0.243423 0.00330569 0.240448) 3850 7483 1
(0.0500135 0.47083 0.148207 0.33095) 3742 7272 1
(0.221514 0.308399 0.0679938 0.402093) 3847 7477 2
(0.25401 0.353128 0.0352475 0.357615) 3831 7485 1
(0.337921 0.331129 0.0416622 0.289287) 3814 7414 1
(0.15802 0.315874 0.433139 0.0929673) 3786 7397 2
(0.472401 0.203428 0.276514 0.0476568) 3791 7407 2
(0.347023 0.205146 0.114016 0.333815) 3745 7278 2
(0.225026 0.387011 0.0533888 0.334574) 3620 7037 1
(0.699867 0.146918 0.0776552 0.0755595) 3728 7284 1
(0.421658 0.289266 0.141154 0.147921) 3725 7242 1
(0.2718 0.357953 0.150734 0.219513) 3662 7155 1
(0.325292 0.33743 0.0189086 0.31837) 3709 7211 1
(0.499141 0.177115 0.250405 0.0733396) 3662 7119 2
(0.152969 0.423485 0.206786 0.216761) 3687 7168 1
(0.2215 0.369457 0.171531 0.237512) 3674 7179 1
(0.707173 0.00247026 0.146415 0.143942) 3676 7147 2
(0.138335 0.163022 0.430981 0.267662) 3643 7082 2
(0.494181 0.250653 0.0451337 0.210033) 3650 7093 1
(0.00133715 0.498497 0.094062 0.406104) 3601 7000 1
(0.358964 0.320246 0.210242 0.110549) 3629 7053 1
(0.384899 0.307029 0.250812 0.0572594) 3583 6963 1
(0.302335 0.340285 0.100953 0.256427) 3585 7005 1
(0.899032 0.00820864 0.0422827 0.0504765) 3542 6883 2
(0.437202 0.275281 0.21897 0.0685472) 3542 6882 1
(0.696537 0.0418146 0.151855 0.109794) 3546 6893 2
(0.0536313 0.152245 0.320427 0.473696) 3526 6852 2
(0.157697 0.34586 0.422461 0.0739831) 3518 6839 2
(0.492645 0.211768 0.25426 0.0413263) 3501 6805 2
(0.398736 0.131254 0.30532 0.16469) 3485 6810 2
(0.443219 0.262664 0.28308 0.0110375) 3471 6744 1
(0.0972885 0.449181 0.0203938 0.433137) 3456 6718 1
(0.0368488 0.432126 0.0491653 0.48186) 5149 10031 2
(0.355917 0.146965 0.174666 0.322453) 5024 9781 2
(0.197049 0.401814 0.0303837 0.370753) 4964 9661 1
(0.574457 0.212716 0.0880655 0.124761) 5049 9831 1
(0.387241 0.302435 0.136215 0.174109) 4963 9658 1
(0.171437 0.413667 0.362525 0.05237) 5007 9747 1
(0.31192 0.341891 0.070998 0.275191) 4985 9702 1
(0.759739 0.0361205 0.0839876 0.120153) 5009 9751 2
(0.651088 0.171039 0.103869 0.0740037) 4883 9498 1
(0.151629 0.295278 0.129065 0.424029) 4991 9715 2
(0.423336 0.250963 0.0255086 0.300192) 4968 9668 2
(0.420871 0.277801 0.0135558 0.287772) 4742 9223 2
(0.175183 0.207386 0.196382 0.42105) 4887 9506 2
(0.0562526 0.137155 0.476249 0.330344) 4743 9263 2
(0.494735 0.25369 0.0878437 0.163731) 4744 9229 1
(0.0160668 0.0290602 0.461585 0.493288) 4788 9312 2
(0.632128 0.18419 0.0385983 0.145083) 4771 9280 1
(0.690214 0.0172629 0.15551 0.137014) 4725 9228 2
(0.437818 0.269578 0.276323 0.016282) 4748 9234 1
(0.000982962 0.000563739 0.499199 0.499255) 4441 8636 2
(0.0822938 0.447146 0.047522 0.423038) 4622 9027 1
(0.268403 0.351744 0.239306 0.140548) 4695 9170 1
(0.615307 0.192996 0.0797265 0.111971) 4623 8993 1
(0.0451888 0.471096 0.214706 0.26901) 4623 8990 1
(0.620434 0.187233 0.131147 0.0611858) 4628 9039 1
(0.46167 0.136047 0.275638 0.126645) 4567 8920 2
(0.558044 0.222071 0.0281331 0.191752) 4605 8958 1
(0.0752942 0.205966 0.461211 0.257529) 4587 8923 2
(0.512364 0.143394 0.0997153 0.244527) 4320 96608 1
(0.390953 0.300221 0.0860553 0.222771) 4530 8809 1
(0.94424 0.00101525 0.0278747 0.0268699) 4485 8724 2
(0.401024 0.0427156 0.300912 0.255348) 4424 8641 2
(0.0284493 0.030155 0.455767 0.485629) 4408 8572 2
(0.30335 0.247276 0.0915381 0.357836) 4366 8489 2
(0.245537 0.377565 0.0718348 0.305063) 4323 8406 1
(0.37502 0.194637 0.116942 0.313401) 4220 96613 1
(0.329483 0.335952 0.153377 0.181188) 4302 8365 1
(0.446773 0.277015 0.0864386 0.189773) 4332 8424 1
(0.438598 0.0506709 0.228617 0.282115) 4281 8323 2
(0.347684 0.32632 0.0357894 0.290206) 4283 8328 1
(0.564643 0.214597 0.0040351 0.216724) 4261 8285 2
(0.394911 0.303786 0.270438 0.030865) 4314 8389 1
(0.427445 0.286787 0.173488 0.11228) 4289 8342 1
(0.54357 0.0084357 0.228177 0.219817) 4295 8354 2
(0.527765 0.161006 0.0757652 0.235463) 4242 8248 2
(0.0132742 0.494984 0.366053 0.125689) 4244 8252 1
(0.355142 0.183123 0.327751 0.133985) 4221 8245 2
(0.133187 0.255415 0.432298 0.1791) 4232 8231 2
(0.226798 0.267091 0.11158 0.39453) 4202 8169 2
(0.561725 0.1041 0.115469 0.218706) 4190 8147 2
(0.223556 0.373454 0.0886069 0.314383) 4197 8160 1
(0.834436 0.0828021 0.074889 0.00787283) 4153 8077 1
(0.827777 0.0862795 0.0196253 0.066318) 4123 8018 1
(0.537878 0.231656 0.20205 0.0284166) 47602 94524 1
(0.203473 0.398696 0.237561 0.16027) 47650 94622 1
(0.22665 0.257567 0.154795 0.360988) 47685 94689 2
(0.0287998 0.502151 0.382141 0.0869085) 47737 94793 1
(0.890743 0.0170955 0.0539499 0.0382117) 47735 94877 2
(0.738913 0.133561 0.0636689 0.0638572) 47780 94967 1
(0.00323015 0.507549 0.212578 0.276642) 47825 94969 1
(0.616703 0.110542 0.191276 0.0814789) 47870 95062 2
(0.861527 0.0689282 0.0131871 0.0563582) 47867 95054 1
(0.699301 0.154539 0.0912278 0.054932) 47865 95137 1
(0.263892 0.367879 0.00949457 0.358734) 47869 95058 1
(0.06013 0.0914945 0.378529 0.469846) 47909 95138 2
(0.375736 0.312566 0.135865 0.175833) 47866 95054 1
(0.170458 0.415144 0.0628608 0.351537) 47906 95134 1
(0.238026 0.383635 0.330985 0.0473533) 47911 95229 1
(0.619432 0.0275459 0.162764 0.190258) 47953 95226 2
(0.486915 0.247086 0.229063 0.0369363) 47904 95215 2
(0.390229 0.305999 0.276963 0.0268084) 47957 95321 1
(0.557282 0.221307 0.210168 0.0112427) 48091 95504 1
(0.136997 0.442849 0.305803 0.11435) 48178 95675 1
(0.614212 0.0564571 0.136699 0.192632) 48219 95758 2
(0.0328887 0.484044 0.182106 0.300961) 48266 95854 1
(0.36016 0.330163 0.177426 0.132251) 48307 95933 1
(0.380777 0.308495 0.00765537 0.303073) 48445 96209 2
(0.523828 0.00176088 0.238148 0.236263) 48351 96024 2
(0.24992 0.061844 0.372084 0.316152) 48395 96197 2
(0.00352386 0.511226 0.149319 0.335931) 48436 96191 1
(0.650637 0.181711 0.0287907 0.138861) 48484 96387 1
(0.104061 0.446633 0.420991 0.0283153) 5408 96385 1
(0.235929 0.373576 0.3829 0.00759495) 5388 10511 2
(0.00548699 0.385311 0.497562 0.111641) 5348 10431 2
(0.295756 0.0904998 0.352375 0.261369) 5285 10305 2
(0.0456856 0.380753 0.0840006 0.489561) 5284 10300 2
(0.342175 0.239239 0.334657 0.0839289) 5222 10216 2
(0.464688 0.261152 0.0786617 0.195498) 5185 10142 1
(0.607385 0.145429 0.196322 0.0508641) 5189 10113 2
(0.159962 0.366695 0.0535401 0.419803) 5171 10075 2
(0.639782 0.0406152 0.143043 0.17656) 45398 90115 2
(0.177249 0.42136 0.100325 0.301065) 45398 90115 1
(0.323623 0.00450655 0.338131 0.333739) 45400 90207 2
(0.300832 0.109913 0.340808 0.248446) 45443 90293 2
(0.136483 0.432684 0.0811602 0.349673) 45487 90296 1
(0.630993 0.200006 0.107965 0.0610361) 45528 90375 1
(0.435088 0.283216 0.0588112 0.222885) 45534 90390 1
(0.314991 0.36043 0.199713 0.124865) 45572 90551 1
(0.623571 0.0291002 0.16108 0.186249) 45622 90563 2
(0.542352 0.0312906 0.228607 0.19775) 45621 90564 2
(0.107837 0.189918 0.445611 0.256634) 45662 90646 2
(0.517221 0.24632 0.084937 0.151522) 45666 90651 1
(0.340999 0.29233 0.0498841 0.316787) 45712 90743 2
(0.253595 0.391518 0.0666886 0.288198) 45666 90739 1
(0.417909 0.075198 0.221928 0.284964) 45707 90733 2
(0.48066 0.259876 0.113212 0.146252) 45708 90736 1
(0.201638 0.345731 0.365135 0.0874959) 45705 90817 2
(0.812279 0.0946028 0.0175791 0.075539) 45799 90917 1
(0.439006 0.1292 0.159976 0.271817) 45796 90911 2
(0.446909 0.20126 0.0757642 0.276067) 45791 90902 2
(0.570108 0.215302 0.0152535 0.199337) 45844 91010 1
(0.391716 0.0521427 0.257813 0.298328) 45836 90991 2
(0.354758 0.199424 0.123674 0.322144) 45841 91002 2
(0.152346 0.425056 0.406365 0.016233) 45841 91089 1
(0.148538 0.375201 0.383899 0.0923606) 45836 91079 2
(0.184393 0.43179 0.0132652 0.370551) 45886 91179 1
(0.314843 0.350473 0.162861 0.171823) 45932 91183 1
(0.131975 0.255935 0.17858 0.433511) 45931 91182 2
(0.756287 0.0198621 0.104209 0.119642) 45924 91167 2
(0.769229 0.123796 0.0955683 0.0114069) 45972 91263 1
(0.734475 0.0310497 0.132689 0.101786) 45967 91256 2
(0.609045 0.195699 0.195226 3.00837e-05) 45974 91270 2
(0.131663 0.395197 0.0402686 0.432872) 45972 91264 2
(0.0124085 0.326483 0.479665 0.181443) 45976 91359 2
(0.353393 0.332223 0.184483 0.129901) 46020 91359 1
(0.644314 0.114872 0.074307 0.166507) 46013 91345 2
(0.581505 0.19195 0.209022 0.0175222) 46019 91360 2
(0.214408 0.39309 0.201068 0.191434) 46020 91362 1
(0.258399 0.30184 0.0840007 0.355761) 46063 91445 2
(0.0120279 0.308286 0.493335 0.18635) 46059 91440 2
(0.131791 0.433582 0.360996 0.073631) 46058 91438 1
)


// ************************************************************************* //
