/*--------------------------------*- C++ -*----------------------------------*\
  =========                 |
  \\      /  F ield         | OpenFOAM: The Open Source CFD Toolbox
   \\    /   O peration     | Website:  https://openfoam.org
    \\  /    A nd           | Version:  7
     \\/     M anipulation  |
\*---------------------------------------------------------------------------*/
FoamFile
{
    version     2.0;
    format      ascii;
    class       scalarField;
    location    "0.1075/lagrangian/reactingCloud1";
    object      tTurb;
}
// * * * * * * * * * * * * * * * * * * * * * * * * * * * * * * * * * * * * * //


316
(
0.00132985
0.00129205
0.00259823
0.00050235
0.006301
0.00256105
5.87838e-05
0.00207854
0.00042555
0.0022115
0.00234505
0.006037
0.005989
0.005941
0.005845
0.000299554
0.00291204
4.635e-05
0.005749
0.00181477
0.00040455
0.005797
0.005701
0.000653
0.001951
0.000605
0.005677
0.00107205
0.00187984
0.005557
0.000533
0.005509
0.000469
0.005485
0.00170122
0.00163209
0.0018825
0.0015545
0.005293
0.00151751
0.00109955
0.000229
0.0014915
0.0014803
0.005173
0.005221
0.005197
0.0016395
0.001367
0.00140872
0.000879621
0.00126524
0.00109668
0.001053
0.00071555
0.00119305
0.00134106
0.0001487
0.000263847
0.00115655
0.00050755
0.001573
0.000132282
0.001525
0.001501
0.001477
0.001453
1.23415e-05
0.001405
0.001381
0.001357
0.001333
0.001309
0.001285
0.001261
0.001237
0.001213
0.001189
0.001165
0.001141
0.001117
0.001093
0.001069
0.001045
0.001021
0.000997
0.00037835
0.000949
0.000925
0.000901
0.000877
0.000853
0.000829
0.000805
0.000781
0.000757
0.000733
0.000709
0.000685
0.000661
0.000637
0.000613
0.000589
0.000588625
0.000565
0.000541
0.000517
0.000493
0.000469
0.000445
0.000421
0.000397
0.000373
0.000349
0.000325
0.000301
0.000277
0.000253
0.000229
0.000205
0.000181
0.000157
0.000133
0.000109
8.5e-05
6.1e-05
3.7e-05
1.3e-05
6.12879e-05
0.00176053
0.00053405
0.0015792
0.000751195
0.00144304
0.002749
0.002773
0.000203
0.00129678
0.002629
0.002653
0.00260462
0.002605
0.002581
0.002509
0.00113664
0.00111117
0.002485
0.002437
0.00207655
0.00119735
0.002389
0.002341
0.0006412
0.002293
0.000944145
0.002317
0.002269
0.002221
0.002245
0.002197
0.002149
0.00087855
0.002101
0.002125
0.0010567
0.002053
7.72e-05
0.002029
0.001981
0.001957
0.00198062
0.001933
0.000571271
0.001909
0.001885
0.001861
0.000414
0.0003975
0.001765
0.001717
0.001693
2.22e-05
0.001669
0.001621
0.001597
0.004045
0.000394614
0.0005965
0.003949
0.000652821
2.85e-05
0.0001155
0.003901
0.0021892
0.003853
0.003877
0.0010527
0.003805
0.00191725
0.003781
0.003685
0.003637
0.003733
0.003661
0.00077005
0.00165219
0.003517
0.003709
0.000417
0.003541
0.00334505
0.003589
0.003493
0.000602
0.003373
0.003445
0.003397
0.003253
0.003229
0.003349
0.000443
0.0020063
0.003085
0.0004142
0.003277
0.000261502
0.003037
0.003061
0.002989
0.0008455
0.003157
0.0013252
0.002917
0.000659551
0.002893
0.002821
0.002797
0.002965
0.00059555
0.000957
0.004717
0.00102505
0.00075735
0.0008855
0.00095305
0.0009165
0.000852157
0.004645
0.000862694
0.004621
0.000745
0.004573
0.000401783
0.004597
0.004549
0.0008215
0.00102205
0.0007315
0.00023555
0.0006595
0.00018755
0.00012455
0.000523
0.000482
0.004309
0.000490109
0.000407212
1.955e-05
0.004237
0.00059623
0.00111927
0.0003677
0.000319794
0.004069
0.004021
0.007453
0.00163035
0.00092335
0.00153435
0.00080335
0.007189
0.00122572
0.007069
0.0010557
0.0035982
0.006997
0.0005067
0.00146155
0.00322405
0.00044335
0.00041935
0.006853
0.001709
0.00391205
0.006733
0.00042905
0.006685
0.001669
0.00249155
0.006637
0.00320278
0.00112255
0.002757
0.006541
0.001445
0.006469
0.00280012
1.135e-05
0.0009755
0.000423518
0.006421
0.000466093
0.0003232
0.00254571
0.006397
0.00210755
)


// ************************************************************************* //
