/*--------------------------------*- C++ -*----------------------------------*\
  =========                 |
  \\      /  F ield         | OpenFOAM: The Open Source CFD Toolbox
   \\    /   O peration     | Website:  https://openfoam.org
    \\  /    A nd           | Version:  7
     \\/     M anipulation  |
\*---------------------------------------------------------------------------*/
FoamFile
{
    version     2.0;
    format      ascii;
    class       vectorField;
    location    "0.1075/lagrangian/reactingCloud1";
    object      U;
}
// * * * * * * * * * * * * * * * * * * * * * * * * * * * * * * * * * * * * * //


316
(
(384.118 3.70612 -19.4567)
(409.881 -2.16975 9.30155)
(436.726 -25.6038 4.80271)
(436.953 -4.50847 9.28685)
(440.566 -0.0514254 -3.81822e-05)
(438.323 -4.76869 -7.81875)
(422.959 -0.0535319 1.38024)
(458.734 -7.38376 12.219)
(412.222 4.21547 11.2241)
(440.054 -2.55027 0.282337)
(436.48 -6.91442 -2.061)
(440.309 -0.0512216 -4.05093e-06)
(440.454 -0.0370963 -4.47572e-07)
(440.036 -0.0522042 -3.10401e-06)
(440.468 -0.0156024 -3.64471e-07)
(415.48 4.85776 13.152)
(433.073 -5.25207 10.5396)
(437.441 -13.6193 2.5462)
(440.366 -0.00248577 -2.20002e-06)
(439.194 -1.31387 0.785538)
(409.333 -2.21726 -2.35697)
(439.495 -0.0307148 -2.28425e-06)
(440.254 -0.00411603 -3.80603e-07)
(431.966 3.08341 -3.97037)
(433.252 1.74089 -10.9053)
(442.656 3.02602 3.1457)
(439.152 0.0230702 -2.35879e-05)
(423.013 -1.57164 7.62445)
(436.795 -5.75824 5.09031)
(439.994 0.00867672 -4.82691e-07)
(438.166 -3.02803 -2.18052)
(439.588 0.0757657 -4.89618e-05)
(423.765 -0.102815 5.99478)
(439.015 0.165525 -1.54423e-05)
(433.049 -2.91967 0.7602)
(435.418 -3.06198 1.34012)
(428.653 0.150966 -0.000244672)
(444.497 -1.14113 -2.75854)
(439.233 0.142135 -4.45633e-05)
(437.217 -1.42746 -1.81995)
(425.589 3.87059 -15.3534)
(433.402 -2.08748 -0.676352)
(432.813 1.7411 9.09133)
(438.762 -3.62861 -0.414073)
(438.671 0.308593 -2.41721e-05)
(438.183 0.551637 -1.04805e-05)
(438.312 0.514068 -6.60929e-06)
(431.032 -0.823819 7.26983)
(433.58 1.11882 -0.00568724)
(418.482 -3.28936 2.82765)
(433.437 -3.45585 -5.98078)
(426.051 8.6394 5.10342)
(435.793 2.11701 -5.87189)
(446.074 -3.65716 1.17819)
(442.011 -2.13129 -1.00795)
(419.092 -7.46664 -10.8792)
(426.276 5.22233 -5.41345)
(137.401 29.6774 -0.952563)
(96.8077 11.5655 -3.40923)
(104.742 17.9142 -0.462969)
(88.2731 15.8273 -0.563334)
(120.677 18.7368 -0.00155423)
(110.276 34.1548 1.4549)
(116.215 25.2463 0.00351711)
(132.275 10.1291 0.000964476)
(127.864 19.8774 -0.00308227)
(127.535 22.7358 0.000195672)
(124.297 28.0388 -2.69162)
(138.232 6.85156 -7.90244e-05)
(139.608 2.4375 1.75542e-05)
(130.322 31.2349 0.000355016)
(141.007 11.3181 -0.000287462)
(137.55 27.9538 -0.00213778)
(143.481 18.0285 -0.000441649)
(144.997 21.8592 -0.00462445)
(146.911 18.8312 -5.0715e-05)
(147.252 5.81868 -2.04643e-05)
(150.976 18.8611 -0.000877468)
(152.824 21.7337 -0.000150376)
(151.367 8.56491 -0.000861025)
(153.373 10.5304 -0.000120857)
(155.322 11.238 -0.000612306)
(155.904 9.96502 -0.000193974)
(154.384 4.18336 -0.000118929)
(161.953 13.6351 -0.00286839)
(164.524 14.4463 -0.00204158)
(93.7686 3.52194 7.66386)
(166.733 12.3964 -0.000237859)
(167.994 11.6441 -0.00274777)
(169.545 13.0098 -0.00362808)
(159.488 3.18512 -0.000925335)
(159.646 2.04471 -0.00031717)
(167.185 6.78726 -0.000107862)
(169.411 6.17283 0.0013832)
(166.961 5.15667 0.000339325)
(164.334 3.97781 -0.000514928)
(162.9 2.72767 -0.000659739)
(164.484 3.19098 -0.000153031)
(166.463 3.23776 -2.72494e-05)
(165.546 2.79886 1.02236e-05)
(167.509 1.62646 0.00206572)
(163.14 0.520381 -0.000152624)
(164.195 1.61198 -0.000571241)
(167.118 0.818271 -0.000258076)
(165.958 1.82798 -0.000682741)
(164.462 1.36008 5.04404e-06)
(165.995 1.42676 0.000408299)
(166.376 0.985816 -0.000495677)
(164.862 1.08369 -0.000140271)
(164.82 0.925178 5.92071e-05)
(166.148 0.1656 -2.42807e-05)
(166.007 0.668819 0.000395855)
(166.101 0.258886 -0.000134084)
(165.633 0.806163 -9.64013e-05)
(165.809 0.563143 9.30085e-05)
(165.379 0.725286 5.09067e-05)
(165.822 0.33957 -0.00014757)
(165.77 0.021379 -8.53073e-06)
(165.596 0.606822 0.000388474)
(165.476 0.606204 -5.03571e-05)
(165.704 0.14903 -2.17688e-05)
(165.68 0.0569512 2.54378e-05)
(165.517 0.542175 1.66192e-05)
(165.645 0.128079 -5.94001e-06)
(165.598 0.490382 -1.9286e-05)
(165.243 -0.135249 -2.92591e-07)
(165.6 0.38014 0.000244307)
(165.593 0.455682 -5.56163e-05)
(33.5265 -6.35044 9.32989)
(91.782 -14.2214 -0.630257)
(87.0366 -20.0311 -2.07898)
(96.556 -21.3491 -7.17284)
(105.627 -19.0487 -7.3637)
(94.409 -13.1257 -0.033186)
(125.725 -10.2123 0.00037336)
(115.771 -14.5896 0.00237799)
(88.2741 -6.39862 -9.67388)
(87.0939 -9.87979 0.732007)
(116.489 -10.6453 -6.02418e-06)
(108.869 -12.2631 0.000400793)
(116.166 -10.0784 -2.09464e-06)
(102.622 -11.2486 -0.000332525)
(100.34 -10.6187 0.000440012)
(116.471 -7.47858 0.000274126)
(88.8579 -8.77594 -0.221392)
(86.0024 -7.5679 0.734283)
(110.366 -8.3586 0.000959443)
(101.193 -7.89527 0.00140743)
(100.799 -17.6088 18.4077)
(74.5922 -5.91856 -1.80361)
(98.6969 -6.78301 0.000383728)
(116.566 -3.65591 0.000252025)
(40.1116 5.13172 -3.016)
(113.867 -3.36254 2.80347e-06)
(79.4662 -4.79129 2.41276)
(109.277 -4.50133 0.000402238)
(115.502 -2.6455 0.000124637)
(118.421 -1.28177 0.000172943)
(106.666 -2.89072 0.000796736)
(115.547 -1.28039 7.46329e-05)
(104.071 -0.258955 0.000495025)
(62.9113 4.03111 2.33746)
(110.8 0.826984 7.85646e-05)
(104.634 0.421617 0.00154754)
(91.9161 -2.84597 2.58296)
(113.716 1.75222 0.00225286)
(91.1925 3.90079 -5.76159)
(110.354 2.7448 0.00195151)
(120.086 1.70056 -1.93866e-05)
(121.911 1.12651 2.47088e-06)
(99.2052 6.20133 0.00219088)
(116.138 4.25208 -1.50906e-05)
(86.3128 5.21778 7.78069)
(114.696 5.32738 0.00170106)
(97.1372 10.717 0.00406242)
(107.029 9.44597 4.51224e-05)
(91.8667 7.4013 -1.59785)
(92.4268 14.4592 1.81729)
(113.697 11.5067 0.000387412)
(113.961 13.5848 0.00164173)
(128.399 0.937653 0.000166096)
(93.7653 20.2825 -10.8955)
(115.424 15.632 -0.000493105)
(127.274 8.4502 -0.0005072)
(131.044 2.82842 0.000464143)
(349.192 -6.86563 -0.00312239)
(322.926 -21.8207 5.614)
(310.606 -31.2338 -11.0158)
(326.965 -12.3765 -0.00130795)
(312.271 -29.4938 0.684638)
(315.825 -23.5518 3.15589)
(316.038 -10.758 -6.28023)
(314.621 -15.9365 -0.000517237)
(277.004 -51.298 10.9089)
(306.108 -14.3075 -0.00357277)
(302.214 -21.5119 0.000730143)
(210.862 -56.3512 -0.740758)
(273.732 -30.47 0.00103462)
(215.597 -53.4751 2.74308)
(223.768 -44.2484 0.00144182)
(236.751 -30.3815 0.000160365)
(235.087 -23.3208 5.26529e-05)
(218.594 -42.071 4.20449e-05)
(225.21 -31.9004 0.00111456)
(108.435 -35.0424 -13.0574)
(184.886 -47.945 -1.655)
(215.131 -12.3855 2.18695e-05)
(186.339 -44.0091 0.00151397)
(185.57 -50.922 -0.177052)
(195.122 -30.4592 0.000114601)
(170.416 -45.9188 20.6752)
(185.707 -37.5527 0.00196515)
(183.554 -30.3479 0.00167362)
(76.9627 -19.4239 -2.03406)
(174.152 -22.9012 2.52934e-05)
(161.156 -33.1677 -1.71145e-06)
(150.881 -31.7722 2.6486e-05)
(151.283 -24.2552 0.000217201)
(143.823 -25.5729 4.08985e-05)
(131.967 -30.3959 0.000810882)
(57.4396 -11.2328 -2.98849)
(125.277 -31.1248 0.460357)
(147.368 -14.352 0.000455442)
(118.556 -32.2173 0.265067)
(127.005 -28.4057 0.000423901)
(111.129 -25.6727 -0.0468558)
(146.193 -10.3522 0.00104436)
(140.073 -17.6107 0.000732722)
(144.288 -7.34413 1.58876e-05)
(114.419 -39.3025 2.40615)
(124.954 -25.1111 0.00408274)
(108.862 -22.5005 10.699)
(136.544 -10.8865 0.0010963)
(118.206 -21.7835 3.22316)
(130.382 -13.7844 0.000617888)
(135.162 -3.99659 -3.49521e-05)
(130.828 -8.46448 3.65166e-05)
(113.593 -19.053 0.000634773)
(434.656 -4.48651 -7.02082)
(403.881 9.06558 -8.77818)
(432.372 0.750569 -2.93794e-06)
(420.412 5.05199 -1.21898)
(424.705 2.16827 4.95072)
(430.513 4.98777 4.67732)
(425.015 3.50071 0.732269)
(403.385 3.3655 -8.49746)
(419.71 -4.92752 6.62922)
(426.778 1.2849 9.64039e-07)
(429.294 6.69567 4.64145)
(426.132 1.17059 8.12581e-05)
(443.765 -8.13467 -5.70018)
(425.578 0.778706 0.000234915)
(422.42 1.07805 2.42449)
(424.27 1.09068 3.16954e-05)
(425.321 0.451677 -4.79703e-06)
(417.81 0.890236 1.23566)
(389.575 9.07884 1.8591)
(398.245 -5.378 -1.14992)
(404.941 3.70242 -4.47362)
(396.342 -5.84645 -8.55243)
(412.609 3.09147 3.54473)
(332.434 -5.90257 -3.00444)
(397.008 -4.82862 1.43102)
(395.509 -3.47915 6.76814)
(401.614 -0.614908 -6.47857e-05)
(396.461 -1.97665 0.899668)
(390.635 -3.80934 -3.50705)
(385.306 -7.48982 11.1327)
(383.142 -2.60618 -0.000823716)
(370.655 -6.88795 2.51462)
(370.189 -6.62145 2.7611)
(321.329 -4.77685 -4.44347)
(358.964 -0.986265 -4.11327)
(356.696 -4.84388 -0.000700177)
(352.19 -4.21596 -0.00196022)
(441.932 -0.0116998 -2.95776e-06)
(451.22 -9.3073 7.34682)
(443.972 7.41772 4.9428)
(440.843 -4.84853 -2.6512)
(440.339 -2.4449 -0.702094)
(442.114 0.00933287 -2.30266e-06)
(436.202 -5.55951 -6.47071)
(442.027 0.0097376 -3.3441e-06)
(435.497 -7.26193 -8.0329)
(437.798 -5.87104 -3.13932)
(441.617 -0.00240747 -7.51254e-06)
(448.026 -12.2566 9.49472)
(411.677 0.926133 1.495)
(442.679 -3.8567 -1.01859)
(440.811 -4.62128 -2.53553)
(439.887 0.90044 0.99068)
(441.73 0.0106876 -7.83048e-06)
(435.088 8.04502 5.4987)
(451.444 -10.9085 8.59417)
(441.746 0.00433082 5.24802e-06)
(413.045 -0.0298028 0.514359)
(441.622 0.000941207 -4.62966e-07)
(439.23 -2.76098 -0.784028)
(439.176 -3.08444 -0.880095)
(441.573 -0.00263535 -3.21183e-06)
(438.696 -6.06418 -6.75643)
(430.229 -4.62077 -1.18704)
(434.449 0.0384012 -0.0808633)
(441.456 -0.00797488 -5.51221e-07)
(439.664 -4.95098 -7.55906)
(441.409 -0.00648409 1.17253e-07)
(427.8 -5.06351 2.89469)
(439.919 -4.4436 -6.79485)
(416.247 -0.904366 2.91876)
(423.3 -0.0648873 -0.0907088)
(441.235 -0.0166215 -2.54048e-06)
(420.957 -5.74469 3.21469)
(420.069 -2.58907 1.25069)
(437.313 1.42788 3.48198)
(440.787 -0.0440111 -1.68469e-06)
(451.964 -11.1798 8.80772)
)


// ************************************************************************* //
