/*--------------------------------*- C++ -*----------------------------------*\
  =========                 |
  \\      /  F ield         | OpenFOAM: The Open Source CFD Toolbox
   \\    /   O peration     | Website:  https://openfoam.org
    \\  /    A nd           | Version:  7
     \\/     M anipulation  |
\*---------------------------------------------------------------------------*/
FoamFile
{
    version     2.0;
    format      ascii;
    class       vectorField;
    location    "0.1075/lagrangian/reactingCloud1";
    object      UTurb;
}
// * * * * * * * * * * * * * * * * * * * * * * * * * * * * * * * * * * * * * //


316
(
(-15.0071 4.27572 -19.4567)
(-3.64758 -1.67699 9.30156)
(-4.36522 -25.5872 4.80271)
(-3.27304 -4.43582 9.28685)
(0 0 0)
(-0.0935298 -4.5976 -7.81855)
(2.12911 0.388145 1.38026)
(18.4444 -7.3217 12.219)
(-2.38059 4.70249 11.2242)
(1.36304 -2.399 0.282559)
(-2.79631 -6.7943 -2.06099)
(0 0 0)
(0 0 0)
(0 0 0)
(0 0 0)
(-1.09758 5.28569 13.1522)
(-3.71456 -5.03419 10.5396)
(-2.31429 -13.5654 2.54623)
(0 0 0)
(0.651528 -1.21814 0.78571)
(1.59938 -1.79328 -2.35694)
(0 0 0)
(0 0 0)
(-6.71859 3.13006 -3.97031)
(1.88436 1.95024 -10.9051)
(3.80782 3.04636 3.14575)
(0 0 0)
(-2.98994 -1.37463 7.62451)
(4.50384 -5.60346 5.09032)
(0 0 0)
(-0.88989 -3.07713 -2.18052)
(0 0 0)
(-14.8234 -0.225278 5.99484)
(0 0 0)
(3.18096 -2.97955 0.760403)
(-2.44715 -3.30654 1.34015)
(7.10133e-05 -9.5017e-05 -0.000168678)
(7.57899 -1.43845 -2.75831)
(0 0 0)
(0.605211 -1.85938 -1.81981)
(-11.8421 3.37396 -15.3532)
(-4.66395 -2.54411 -0.676318)
(-2.23836 1.2313 9.09145)
(3.90055 -4.21178 -0.413963)
(0 0 0)
(0 0 0)
(0 0 0)
(-0.522988 -1.66383 7.27032)
(0.0789776 0.0864615 -0.00543826)
(2.91297 -4.38979 2.82843)
(4.42289 -4.84727 -5.98071)
(11.6293 7.18315 5.10342)
(1.66057 0.582072 -5.87171)
(11.1019 -5.13801 1.17837)
(6.92956 -3.58058 -1.00791)
(-14.9003 -9.12267 -10.879)
(14.7884 3.32793 -5.41307)
(6.5462 -0.616759 -0.952348)
(1.53713 -13.9831 -3.46785)
(0.947468 -6.29605 -0.468116)
(1.00845 1.30243 -0.56743)
(0 0 0)
(2.28007 6.3567 1.45442)
(0 0 0)
(0 0 0)
(0 0 0)
(0 0 0)
(1.72405 -2.59198 -2.69292)
(0 0 0)
(0 0 0)
(0 0 0)
(0 0 0)
(0 0 0)
(0 0 0)
(0 0 0)
(0 0 0)
(0 0 0)
(0 0 0)
(0 0 0)
(0 0 0)
(0 0 0)
(0 0 0)
(0 0 0)
(0 0 0)
(0 0 0)
(0 0 0)
(-3.37527 3.15144 7.66402)
(0 0 0)
(0 0 0)
(0 0 0)
(0 0 0)
(0 0 0)
(0 0 0)
(0 0 0)
(0 0 0)
(0 0 0)
(0 0 0)
(0 0 0)
(0 0 0)
(0 0 0)
(0 0 0)
(0 0 0)
(0 0 0)
(0 0 0)
(0 0 0)
(0 0 0)
(0 0 0)
(0 0 0)
(0 0 0)
(0 0 0)
(0 0 0)
(0 0 0)
(0 0 0)
(0 0 0)
(0 0 0)
(0 0 0)
(0 0 0)
(0 0 0)
(0 0 0)
(0 0 0)
(0 0 0)
(0 0 0)
(0 0 0)
(0 0 0)
(0 0 0)
(0 0 0)
(0 0 0)
(0 0 0)
(14.0809 -5.58956 9.32831)
(-3.16396 1.51249 -0.629809)
(-2.82092 -6.85408 -2.07913)
(-1.39834 -8.4874 -7.17458)
(-0.0881289 -4.33211 -7.36707)
(0.379896 0.406708 -0.0331296)
(0 0 0)
(0 0 0)
(-12.6486 5.64213 -9.67434)
(-0.158866 1.00278 0.732597)
(0 0 0)
(0 0 0)
(0 0 0)
(0 0 0)
(0 0 0)
(0 0 0)
(0.170686 -0.17248 -0.224718)
(-0.522348 0.183352 0.731373)
(0 0 0)
(0 0 0)
(0.712396 -10.2847 18.4055)
(7.13748 -4.04695 -1.8042)
(0 0 0)
(0 0 0)
(-0.615211 1.76295 -3.0255)
(0 0 0)
(-5.99993 -2.99958 2.41199)
(0 0 0)
(0 0 0)
(0 0 0)
(0 0 0)
(0 0 0)
(0 0 0)
(2.1412 -1.5352 2.3329)
(0 0 0)
(0 0 0)
(4.59558 -6.12227 2.58148)
(0 0 0)
(-0.0546288 -0.423959 -5.76403)
(0 0 0)
(0 0 0)
(0 0 0)
(0 0 0)
(0 0 0)
(0.734557 -3.22264 7.77419)
(0 0 0)
(0 0 0)
(0 0 0)
(-2.16396 -7.71007 -1.59796)
(-1.72721 -0.822839 1.81523)
(0 0 0)
(0 0 0)
(0 0 0)
(1.88339 1.94923 -10.8995)
(0 0 0)
(0 0 0)
(0 0 0)
(0 0 0)
(-3.90186 -2.64529 5.61694)
(-4.62157 -4.96225 -11.015)
(0 0 0)
(0.31682 -0.234482 0.68635)
(-3.20704 -4.45109 3.16342)
(1.21834 14.0655 -6.28002)
(0 0 0)
(-3.84448 -5.21027 10.9083)
(0 0 0)
(0 0 0)
(-5.1422 -2.80499 -0.745669)
(0 0 0)
(-8.83919 -4.61338 2.74291)
(0 0 0)
(0 0 0)
(0 0 0)
(0 0 0)
(0 0 0)
(-24.0898 1.69592 -13.0578)
(1.12323 -1.2594 -1.65526)
(0 0 0)
(0 0 0)
(3.38273 -7.04362 -0.176118)
(0 0 0)
(-10.6336 -14.9328 20.6761)
(0 0 0)
(0 0 0)
(1.5199 0.679595 -2.03478)
(0 0 0)
(0 0 0)
(0 0 0)
(0 0 0)
(0 0 0)
(0 0 0)
(1.83667 2.68774 -2.98969)
(0.952496 -0.886577 0.458594)
(0 0 0)
(1.28398 -2.25986 0.266171)
(0 0 0)
(0.567084 3.3232 -0.0495224)
(0 0 0)
(0 0 0)
(0 0 0)
(-2.18523 -12.8089 2.40424)
(0 0 0)
(-0.893211 4.30148 10.7032)
(0 0 0)
(4.6407 1.61481 3.22432)
(0 0 0)
(0 0 0)
(0 0 0)
(0 0 0)
(1.54379 -6.09835 -7.02073)
(-6.5862 6.84447 -8.77806)
(0 0 0)
(-4.76919 2.85971 -1.21871)
(-5.05564 0.270218 4.95071)
(2.9955 2.96368 4.67732)
(0.614271 1.38185 0.732374)
(-8.18482 1.20759 -8.49752)
(-6.58902 -6.60429 6.62919)
(0 0 0)
(6.25283 4.75092 4.64143)
(0 0 0)
(17.3234 -9.68041 -5.70031)
(0 0 0)
(-2.07833 -0.387449 2.42448)
(0 0 0)
(0 0 0)
(-2.28194 -0.771948 1.23566)
(2.06607 7.89223 1.85908)
(-7.44655 -6.13345 -1.14993)
(-7.57053 3.52696 -4.47376)
(1.3458 -5.80707 -8.5533)
(4.29067 3.43265 3.54464)
(-1.22607 -4.2396 -3.00427)
(-8.57769 -4.14899 1.43101)
(-5.97397 -2.24537 6.76818)
(0 0 0)
(0.00583541 0.067049 0.89992)
(-2.37961 -1.57486 -3.50711)
(-3.92387 -5.31786 11.1335)
(0 0 0)
(-1.09152 -0.925891 2.51497)
(5.74615 0.066645 2.76224)
(-5.6664 2.61861 -4.4426)
(1.53251 7.5494 -4.11393)
(0 0 0)
(0 0 0)
(0 0 0)
(9.17348 -9.30069 7.34683)
(4.08743 7.52751 4.9428)
(-0.531752 -4.822 -2.65118)
(-0.917008 -2.41276 -0.702081)
(0 0 0)
(4.78525 -5.2444 -6.4707)
(0 0 0)
(1.76635 -6.97752 -8.03288)
(-0.629658 -5.70983 -3.13931)
(0 0 0)
(11.8555 -12.0199 9.49479)
(-1.77112 1.38645 1.49513)
(7.00133 -3.61766 -1.01835)
(-0.508554 -4.61164 -2.53552)
(-1.17356 0.918677 0.990688)
(0 0 0)
(4.54713 8.37412 5.49871)
(10.731 -10.8798 8.59422)
(0 0 0)
(-1.82621 0.427216 0.514368)
(0 0 0)
(-1.02404 -2.69437 -0.784027)
(-1.1495 -3.02447 -0.880081)
(0 0 0)
(1.4856 -5.86847 -6.75608)
(8.16043 -4.21659 -1.18694)
(-0.244356 0.302334 -0.0808331)
(0 0 0)
(-1.07444 -4.88437 -7.55905)
(0 0 0)
(-9.32834 -4.86868 2.89469)
(-0.965819 -4.39057 -6.79485)
(-2.5022 -0.466468 2.91894)
(-0.273868 0.338849 -0.0905959)
(0 0 0)
(-10.3596 -5.40689 3.21469)
(3.31596 -2.12929 1.25069)
(5.01186 1.74396 3.4822)
(0 0 0)
(10.9976 -11.1501 8.80772)
)


// ************************************************************************* //
