/*--------------------------------*- C++ -*----------------------------------*\
  =========                 |
  \\      /  F ield         | OpenFOAM: The Open Source CFD Toolbox
   \\    /   O peration     | Website:  https://openfoam.org
    \\  /    A nd           | Version:  7
     \\/     M anipulation  |
\*---------------------------------------------------------------------------*/
FoamFile
{
    version     2.0;
    format      ascii;
    class       volScalarField;
    location    "0.15";
    object      alphat;
}
// * * * * * * * * * * * * * * * * * * * * * * * * * * * * * * * * * * * * * //

dimensions      [1 -1 -1 0 0 0 0];

internalField   nonuniform List<scalar> 
48560
(
0.00510927
0.00505717
0.00500387
0.00495156
0.00490084
0.00485219
0.0048061
0.00476294
0.00472309
0.00468688
0.00465461
0.00462653
0.00460291
0.00458398
0.00456999
0.00456114
0.00455767
0.0045598
0.00456778
0.00458183
0.00460224
0.00462926
0.00466323
0.00470446
0.00475336
0.0048103
0.00487568
0.00494959
0.00505945
0.00518412
0.00532261
0.0054735
0.0056341
0.00580091
0.00596923
0.00614106
0.00631561
0.0064972
0.00668958
0.00690629
0.00715031
0.00742019
0.00771495
0.00801512
0.00828186
0.00837754
0.00797303
0.00694013
0.00546864
0.0039159
0.00126476
0.000499801
0.000550337
0.000574578
0.000615284
0.00063596
0.000681499
0.000708556
0.000775468
0.000834869
0.000960503
0.00103639
0.00108339
0.000986557
0.00108372
0.000849224
0.000856304
0.000890368
0.000947918
0.00101945
0.00110953
0.00120322
0.00130715
0.0014007
0.00148573
0.00153804
0.00154223
0.00146079
0.00128431
0.0010751
0.000947191
0.000984851
0.00104474
0.00104342
0.00101931
0.000973671
0.000931094
0.000894684
0.000871943
0.00085705
0.000854227
0.000853002
0.00085229
0.000848705
0.000843065
0.000831382
0.000813979
0.000787492
0.000751127
0.000702828
0.00484579
0.00483083
0.00481642
0.00480359
0.00479286
0.00478466
0.00477939
0.00477738
0.00477897
0.0047844
0.00479397
0.00480789
0.0048264
0.0048497
0.00487801
0.00491155
0.00495052
0.0049951
0.00504544
0.00510158
0.00516369
0.00523182
0.00530609
0.0053865
0.00547304
0.00556555
0.00566378
0.00576671
0.00591601
0.00607261
0.00623807
0.00641059
0.00659283
0.00678575
0.00699797
0.00723597
0.00750593
0.00781046
0.00815226
0.00852667
0.00893067
0.00933437
0.00965618
0.00973672
0.00945495
0.00871777
0.00757375
0.00623726
0.00511139
0.00460688
0.00507324
0.00904724
0.00945953
0.00991217
0.0103091
0.0106101
0.0102354
0.0104
0.0097141
0.00989575
0.0089748
0.00868236
0.00777492
0.00820603
0.00716809
0.00711936
0.00693645
0.00696784
0.00676142
0.00672299
0.00669259
0.00676878
0.00685387
0.00699395
0.00712503
0.00718038
0.00700449
0.00648411
0.00673287
0.00642507
0.00704641
0.00995712
0.0090456
0.00847815
0.00819158
0.00817033
0.00856037
0.00958176
0.0107124
0.012142
0.0136121
0.0151027
0.0167037
0.0185533
0.0205782
0.0229583
0.0258311
0.0300275
0.0369559
0.0528135
0.00520547
0.00522038
0.00523789
0.00525811
0.00528142
0.00530812
0.00533847
0.00537263
0.00541074
0.00545287
0.00549912
0.00554948
0.00560409
0.00566297
0.0057262
0.00579373
0.00586557
0.00594158
0.00602166
0.00610629
0.00619528
0.00628891
0.00638724
0.00649059
0.00659912
0.00671326
0.00683345
0.00695954
0.00715449
0.00737068
0.00760858
0.00787335
0.00816559
0.00848987
0.00884798
0.0092412
0.00966996
0.0101215
0.0105698
0.0109344
0.011154
0.0110998
0.0107368
0.0100236
0.00903411
0.00787461
0.00689134
0.00625207
0.00621189
0.0069354
0.00896757
0.0142039
0.0146892
0.0152066
0.0148706
0.0159231
0.0148242
0.0161095
0.0141407
0.0149852
0.0131526
0.0126932
0.0114297
0.0115837
0.0104462
0.0107149
0.0108316
0.01142
0.0112229
0.0118133
0.0117094
0.0116265
0.0116034
0.0116001
0.0116406
0.0116794
0.0117036
0.0115212
0.0113873
0.0102251
0.0145452
0.0230199
0.0211959
0.0201489
0.0198091
0.0165165
0.0190669
0.0195391
0.0258854
0.0318222
0.0386258
0.0429633
0.0475671
0.0529653
0.0592814
0.0672684
0.0697767
0.0636186
0.0592188
0.0580421
0.00629849
0.00632817
0.00636162
0.00639971
0.00644168
0.00648877
0.00654021
0.00659685
0.00665784
0.00672387
0.00679448
0.00687038
0.00695132
0.00703795
0.00713019
0.00722868
0.00733356
0.00744557
0.00756519
0.00769275
0.00782865
0.00797342
0.00812729
0.00829092
0.00846496
0.00865027
0.00884742
0.00905741
0.00937528
0.00972053
0.0100925
0.0104919
0.0109127
0.0113467
0.0117699
0.0121501
0.0124373
0.0125722
0.0125142
0.0122129
0.0116743
0.0108998
0.0100027
0.00909905
0.00828863
0.00771654
0.00754565
0.00789056
0.00883864
0.0105875
0.0138508
0.018151
0.0194492
0.02066
0.0196315
0.021033
0.0191191
0.0200131
0.0179698
0.0183775
0.0164768
0.0156706
0.0145915
0.0145782
0.0144101
0.0144291
0.0154211
0.0164502
0.0168048
0.0170125
0.0173072
0.0176551
0.0180519
0.0184746
0.0185945
0.0167342
0.0139863
0.0134946
0.0149953
0.0173609
0.0297882
0.0434107
0.0412315
0.0402565
0.032496
0.0300829
0.0328656
0.0306775
0.0331759
0.0336818
0.0377838
0.0409483
0.0464347
0.0509811
0.0565191
0.06103
0.0641496
0.0647123
0.064172
0.0638482
0.00814566
0.00818873
0.00823991
0.0082996
0.00836707
0.00844356
0.00852835
0.00862245
0.00872508
0.00883711
0.00895801
0.00908866
0.00922868
0.0093789
0.00953904
0.00970979
0.00989086
0.0100828
0.0102853
0.0104986
0.0107225
0.010957
0.0112027
0.0114597
0.0117274
0.0120047
0.0122892
0.0125788
0.0129564
0.0133244
0.0136488
0.0139169
0.0140881
0.0141473
0.0140704
0.0138423
0.0134495
0.0128964
0.0121948
0.0114625
0.0107005
0.00999359
0.00939343
0.00898896
0.0088694
0.00913338
0.00984324
0.0110331
0.0128052
0.0145261
0.018554
0.0205016
0.0221459
0.0229201
0.0228976
0.0237653
0.0227114
0.0232875
0.0218372
0.0220476
0.0205883
0.0197335
0.0188535
0.0189803
0.0198201
0.0194332
0.0216723
0.0224365
0.0245048
0.0253029
0.0265941
0.0270815
0.0270482
0.0258978
0.0234247
0.020202
0.0174895
0.0170814
0.0170713
0.0221088
0.0336045
0.0407552
0.0428445
0.0286379
0.0266607
0.0273296
0.0286562
0.0288286
0.0324391
0.034197
0.0393582
0.0430435
0.0495119
0.0550694
0.0622129
0.0667027
0.0685923
0.0697146
0.0709071
0.0717007
0.0113629
0.0114117
0.0114787
0.0115605
0.0116582
0.0117704
0.0118978
0.0120395
0.0121957
0.0123653
0.0125484
0.0127445
0.0129534
0.0131746
0.0134075
0.013651
0.0139033
0.0141616
0.0144217
0.0146803
0.0149318
0.0151708
0.0153893
0.0155809
0.0157387
0.0158595
0.0159404
0.015995
0.0159351
0.0158171
0.0155727
0.0152477
0.0148003
0.01427
0.0136795
0.0130635
0.0124302
0.0118161
0.0112476
0.0107658
0.0104016
0.0102153
0.0102582
0.0105946
0.0112724
0.0123165
0.0137277
0.0155526
0.0156258
0.017317
0.0204853
0.0222781
0.0242925
0.0255332
0.0261313
0.0263965
0.0263608
0.0262242
0.0256099
0.0252508
0.0244495
0.0236182
0.0234068
0.0240628
0.0258449
0.0253861
0.028487
0.0290088
0.0322176
0.0324187
0.0346491
0.0336116
0.033311
0.0301687
0.0266211
0.0224318
0.0201855
0.0202034
0.0210771
0.0262431
0.0335043
0.0377304
0.0377154
0.0299632
0.0307795
0.0303184
0.0316323
0.0321299
0.0350261
0.0371429
0.0416607
0.0451477
0.0508311
0.0561781
0.0631548
0.0693886
0.0730201
0.0753357
0.0770305
0.078099
0.0164156
0.0164096
0.016437
0.0164842
0.0165592
0.0166511
0.0167641
0.0168878
0.0170232
0.0171611
0.0173014
0.017436
0.0175632
0.0176758
0.017771
0.0178431
0.0178904
0.017909
0.0178932
0.0178415
0.0177507
0.0176203
0.017449
0.0172384
0.0169893
0.0167053
0.0163896
0.0160603
0.0155678
0.015089
0.0145629
0.0140625
0.0135457
0.0130757
0.0126253
0.0122446
0.0119259
0.0117173
0.0116261
0.0117013
0.0119653
0.0124657
0.013223
0.014258
0.0155671
0.0171391
0.0189971
0.0189289
0.0184362
0.020395
0.0224517
0.0239228
0.026008
0.0273753
0.0279913
0.0282541
0.0283619
0.0282467
0.0278261
0.0275132
0.0271079
0.0268351
0.0272491
0.0286766
0.0308334
0.0307702
0.0338547
0.0345521
0.0376534
0.0380386
0.0401288
0.0387582
0.0379089
0.0338293
0.0297642
0.0255254
0.0236305
0.0231696
0.0244189
0.0290098
0.0327358
0.035072
0.0335572
0.0306311
0.0321503
0.032216
0.0338245
0.034921
0.037883
0.0404927
0.0450396
0.0495478
0.0560857
0.0627204
0.0693351
0.0747064
0.0781277
0.0809555
0.082815
0.0840065
0.021964
0.0217617
0.021576
0.0213992
0.021238
0.0210782
0.0209239
0.0207619
0.020595
0.0204124
0.020217
0.0200009
0.0197675
0.019511
0.0192347
0.0189351
0.018616
0.0182782
0.0179326
0.0175746
0.017212
0.0168432
0.0164744
0.0161058
0.0157426
0.015386
0.0150402
0.0147151
0.0143517
0.0140547
0.0137738
0.01356
0.0133905
0.0133061
0.0132945
0.0133933
0.0136026
0.0139568
0.0144655
0.0151577
0.0160372
0.0171156
0.0183827
0.0198315
0.0214505
0.0232686
0.0230959
0.0210807
0.0211812
0.0227994
0.0239298
0.0251864
0.0274887
0.0289665
0.0294504
0.0297573
0.0298467
0.0296923
0.0293346
0.0289294
0.0288514
0.0290079
0.030117
0.0321259
0.0345878
0.0352147
0.0379907
0.0388991
0.0417746
0.042655
0.0442913
0.0429771
0.0411162
0.0364428
0.0318881
0.0280285
0.0265496
0.0262177
0.0276737
0.0309502
0.0329552
0.0352373
0.0340835
0.0336401
0.0347206
0.0353356
0.0366744
0.0382456
0.0409585
0.0440935
0.0486074
0.0537844
0.0603501
0.0674873
0.0747171
0.0803067
0.0839377
0.0869141
0.0889196
0.0902093
0.0235071
0.0230859
0.0226567
0.0222416
0.0218326
0.0214332
0.0210391
0.020651
0.0202679
0.0198898
0.0195177
0.019151
0.018792
0.0184399
0.0180976
0.0177644
0.0174437
0.0171349
0.0168414
0.0165641
0.0163073
0.0160725
0.0158653
0.0156881
0.0155474
0.0154476
0.015397
0.0154064
0.01543
0.0155361
0.0156961
0.0159355
0.0162425
0.0166364
0.0171201
0.0177171
0.0184203
0.0192518
0.0202008
0.0212818
0.022474
0.0237844
0.0251923
0.0267162
0.0283685
0.0279271
0.0248552
0.0235558
0.0236534
0.0247991
0.0251941
0.0263194
0.0286482
0.0300432
0.0303633
0.0306609
0.0306033
0.0304848
0.0300302
0.0296609
0.0297553
0.0303055
0.0318338
0.0342304
0.0369784
0.0383385
0.0405618
0.0416108
0.0442235
0.0453912
0.0465791
0.0454417
0.0429669
0.0384839
0.0341573
0.0309378
0.0294894
0.0291053
0.0303195
0.0321993
0.0332387
0.0353656
0.0350003
0.0358099
0.0368511
0.0378794
0.0392818
0.0413297
0.0442419
0.0479709
0.0528796
0.0587242
0.0658691
0.073256
0.0804821
0.0860835
0.0900453
0.0930327
0.0952297
0.0965954
0.021452
0.0211006
0.020743
0.0204087
0.0200812
0.0197723
0.019472
0.019189
0.0189181
0.0186662
0.0184312
0.0182174
0.0180238
0.0178535
0.0177072
0.0175877
0.0174978
0.0174406
0.0174211
0.0174439
0.0175161
0.0176441
0.0178377
0.0181058
0.0184613
0.0189171
0.0194912
0.0202011
0.0206407
0.0211488
0.0216998
0.022311
0.022956
0.0236504
0.0244033
0.025235
0.0261225
0.027086
0.0281034
0.0291926
0.0303324
0.0315431
0.032816
0.0341879
0.0328495
0.0292715
0.0269304
0.025748
0.0257141
0.0263737
0.0262423
0.0272319
0.0294308
0.0306959
0.0308614
0.0311
0.0308867
0.030761
0.0301767
0.0298165
0.0300084
0.0308068
0.0325647
0.0351694
0.0381927
0.0401382
0.0418665
0.0430254
0.0454251
0.0467999
0.0478785
0.047012
0.0444236
0.0403479
0.0364408
0.0337636
0.0323302
0.0318352
0.032382
0.0332618
0.0339652
0.0363993
0.0367992
0.0382461
0.0393426
0.0405856
0.0421546
0.0445095
0.047793
0.0519338
0.0574647
0.0638428
0.0717083
0.0793205
0.0868532
0.0921456
0.0963929
0.0992326
0.101679
0.103093
0.0199061
0.0197746
0.0196418
0.0195322
0.019428
0.0193447
0.0192706
0.0192196
0.0191849
0.0191791
0.0191991
0.0192552
0.0193447
0.0194753
0.0196469
0.0198675
0.0201396
0.0204723
0.0208713
0.0213468
0.0219074
0.0225649
0.0233306
0.0242178
0.0252399
0.0264111
0.0277468
0.0292534
0.0298525
0.030473
0.0311003
0.0317455
0.0323833
0.0330242
0.0336948
0.0344072
0.0351415
0.0359108
0.0367015
0.0375285
0.0383867
0.0392989
0.0402715
0.0368718
0.0337246
0.0307522
0.0287741
0.0275182
0.0273412
0.027557
0.0270996
0.0279316
0.029871
0.0309596
0.0309557
0.0310872
0.0307423
0.0305779
0.0298745
0.0295262
0.0297543
0.030675
0.0324701
0.0351415
0.0383348
0.0406882
0.0421467
0.0434529
0.0456327
0.0472762
0.0485011
0.0481281
0.0459329
0.042569
0.0392031
0.036789
0.0350441
0.0341724
0.0340055
0.0341647
0.0347618
0.0374438
0.0385248
0.0404533
0.0418033
0.0432605
0.0451162
0.0478117
0.0516316
0.0562422
0.0625863
0.0694451
0.0781145
0.0856682
0.0935206
0.0984467
0.102958
0.105599
0.108287
0.109741
0.0206821
0.0207837
0.0208932
0.0210268
0.0211693
0.0213364
0.0215179
0.0217299
0.0219667
0.0222444
0.0225609
0.0229313
0.0233535
0.0238375
0.0243814
0.0249954
0.0256809
0.0264481
0.0272999
0.0282467
0.0292924
0.0304447
0.0317097
0.0330911
0.0345907
0.0362056
0.0379303
0.0397438
0.0401634
0.0405701
0.0409651
0.041358
0.0417335
0.0420944
0.0424739
0.0428744
0.0432823
0.0437032
0.0441345
0.0434443
0.0424468
0.0409375
0.0392476
0.0368872
0.0345209
0.0319665
0.0301128
0.0288854
0.0284809
0.0283572
0.0276903
0.0284319
0.0299882
0.0308784
0.0306951
0.0307023
0.0302658
0.0300459
0.0292645
0.0289226
0.0291613
0.0301035
0.0318175
0.0344298
0.0376755
0.0403242
0.0418815
0.0433566
0.0453704
0.0474439
0.0490416
0.0494326
0.0479229
0.0453252
0.0423468
0.0398969
0.0376295
0.0362324
0.0353721
0.0350716
0.0357028
0.0386886
0.0403551
0.0427348
0.0444145
0.0460869
0.0482456
0.0513434
0.0557585
0.0609447
0.0681471
0.0755107
0.0849218
0.0923906
0.100388
0.104977
0.109644
0.112161
0.115006
0.116514
0.0238707
0.0242045
0.0245579
0.024938
0.0253318
0.0257526
0.0261914
0.0266629
0.0271627
0.0277071
0.0282955
0.028944
0.029654
0.0304354
0.0312821
0.0321993
0.0331812
0.0342316
0.0353449
0.0365229
0.0377606
0.0390578
0.0404007
0.0417802
0.0431769
0.0445718
0.0459411
0.0472655
0.0473751
0.0471203
0.0461394
0.0443634
0.0434713
0.0423911
0.0416348
0.0408689
0.0402267
0.0394732
0.0388742
0.0382192
0.0377263
0.0371139
0.0365227
0.0355475
0.0342079
0.0325807
0.0311467
0.0298527
0.0292323
0.0288343
0.0280499
0.0288186
0.0298655
0.0305097
0.0301182
0.029992
0.0295004
0.0292278
0.0284112
0.0280813
0.0283277
0.0292363
0.0307969
0.0332498
0.0364357
0.0393585
0.0413176
0.0429586
0.0448724
0.0475115
0.0496517
0.0511117
0.0505472
0.048764
0.0459091
0.0430277
0.0401104
0.0380843
0.0365702
0.0359376
0.0365945
0.0398317
0.0420611
0.0449361
0.0470837
0.04905
0.0515428
0.0551647
0.0602397
0.0661648
0.0742287
0.0821437
0.092093
0.0995062
0.107436
0.111729
0.116376
0.118838
0.121751
0.123327
0.0286388
0.0291857
0.0297617
0.030364
0.0309795
0.0316173
0.0322668
0.032937
0.0336211
0.0343301
0.0350624
0.0358312
0.0366377
0.0374935
0.0383895
0.0393202
0.0402692
0.0412273
0.042178
0.04311
0.0440051
0.044845
0.0456047
0.0462631
0.0467939
0.0471762
0.0460289
0.0441989
0.0438345
0.0411313
0.0406493
0.0390275
0.0384364
0.0373575
0.0367178
0.036027
0.0354517
0.0349221
0.0343449
0.03385
0.0333556
0.0329372
0.0325797
0.032301
0.0321198
0.0318036
0.0311647
0.0303052
0.0297244
0.0291325
0.0283756
0.0290919
0.029554
0.0298655
0.0292437
0.0289932
0.0284858
0.0282008
0.0274177
0.0271256
0.0273765
0.0282176
0.0295755
0.0317916
0.0348198
0.0379725
0.0405091
0.0423687
0.0442641
0.0475951
0.050461
0.0532978
0.0538774
0.0528067
0.0496824
0.0460171
0.0423967
0.0396902
0.0376653
0.0367379
0.0374123
0.0408375
0.0435782
0.0470392
0.0498156
0.0521624
0.0550353
0.0593108
0.0651266
0.0719508
0.080875
0.0894146
0.0996942
0.10702
0.114662
0.11866
0.123099
0.125537
0.128436
0.13008
0.0335046
0.0341765
0.0348774
0.0355976
0.0363235
0.0370594
0.0377918
0.0385221
0.0392376
0.0399393
0.0406183
0.0412789
0.0419187
0.042546
0.0431613
0.0437577
0.0443118
0.0448033
0.0452065
0.0455007
0.0450472
0.0440936
0.0432652
0.0423665
0.0413854
0.0402405
0.0392722
0.0381793
0.0380418
0.0358499
0.0357998
0.0343861
0.0341877
0.0332977
0.0329696
0.0325023
0.0320646
0.031789
0.0313297
0.0309553
0.0305531
0.0302425
0.0299465
0.0297871
0.0297256
0.0297542
0.029858
0.0300498
0.0298857
0.0296169
0.0288642
0.0294108
0.0292744
0.029091
0.0281345
0.0277139
0.0271986
0.0269284
0.026207
0.0259616
0.0262378
0.027031
0.0282019
0.0301751
0.0329853
0.0362542
0.0392772
0.0414877
0.0436903
0.0475832
0.0514779
0.0558736
0.0578394
0.0572715
0.0534511
0.0487835
0.0443779
0.0410319
0.0386338
0.0374332
0.0380819
0.041595
0.0448199
0.0490014
0.0524955
0.0554799
0.0588741
0.0638802
0.0705873
0.0784318
0.0882375
0.0973452
0.107738
0.114878
0.122067
0.125722
0.129756
0.132136
0.134947
0.13665
0.0368334
0.037472
0.0381266
0.0387871
0.0394399
0.0400874
0.0407153
0.0413209
0.0418877
0.0424088
0.0428675
0.0432565
0.0435644
0.043791
0.0439357
0.0440067
0.0433583
0.041938
0.0402471
0.0386198
0.0371347
0.0359123
0.0349332
0.034163
0.0334893
0.0328325
0.0323322
0.031929
0.0320035
0.0304077
0.030762
0.0295341
0.0297403
0.0290716
0.0290795
0.0288137
0.0285778
0.0284503
0.0281821
0.0280745
0.0279671
0.0279733
0.0279872
0.028046
0.0280963
0.0282094
0.0285103
0.0289483
0.0294189
0.0298423
0.0294221
0.0296609
0.0288493
0.0279764
0.0266584
0.0260973
0.0256343
0.0254787
0.0249536
0.024824
0.0251387
0.0258788
0.0268375
0.0285201
0.0309699
0.0341471
0.0373834
0.040209
0.0432875
0.0472599
0.0526659
0.0585399
0.0621422
0.0617385
0.056843
0.0511783
0.0461126
0.0422642
0.0395553
0.0381215
0.0386768
0.0422119
0.0459639
0.0509236
0.0552494
0.0593509
0.0634875
0.0692269
0.0770668
0.0859668
0.0966826
0.106076
0.116201
0.122868
0.129453
0.132755
0.136226
0.138425
0.141068
0.142811
0.0375254
0.0379736
0.0384174
0.038852
0.0392654
0.0396606
0.0400273
0.0403618
0.0406481
0.0408801
0.0410403
0.0411155
0.0410865
0.0409414
0.0406697
0.0377846
0.0359839
0.0349053
0.033576
0.0318945
0.0301805
0.0286607
0.0274096
0.0264906
0.0258638
0.0254597
0.0253121
0.0254184
0.0258359
0.0252149
0.0261037
0.0250465
0.025618
0.025076
0.0253648
0.0251341
0.0251508
0.024971
0.0249364
0.0249705
0.0250599
0.025204
0.0255016
0.0258342
0.0263295
0.0267935
0.0273324
0.0278347
0.0285962
0.0294836
0.0300607
0.0302252
0.0291261
0.0273336
0.0252418
0.0242285
0.023721
0.0236664
0.0233441
0.0232916
0.0236551
0.0244142
0.0252224
0.0267289
0.0288036
0.0318314
0.035096
0.0385715
0.0426295
0.0465953
0.0536476
0.0608991
0.066151
0.0655956
0.0596073
0.0530391
0.0475032
0.0433687
0.0404265
0.0388132
0.0392061
0.0427108
0.0470497
0.05287
0.0584559
0.0643204
0.0695717
0.0762616
0.0855937
0.0955311
0.106999
0.116039
0.125096
0.130594
0.136281
0.139395
0.142345
0.144187
0.14644
0.148167
0.0353966
0.035575
0.0357315
0.0358686
0.0359773
0.0360618
0.0361168
0.0361386
0.0361153
0.0360446
0.035917
0.0357226
0.0354452
0.0350699
0.0345791
0.0339614
0.0324293
0.0296364
0.028022
0.0264752
0.0245924
0.0226424
0.0210186
0.0197765
0.0190163
0.018652
0.018586
0.0174827
0.0179493
0.0184117
0.0188574
0.0193697
0.0199294
0.0205993
0.0212884
0.0217862
0.0221385
0.0220589
0.0223013
0.02238
0.0226125
0.0227462
0.0231024
0.0234068
0.0239803
0.0246223
0.0254927
0.0263768
0.0273997
0.0286018
0.0296227
0.030138
0.0282851
0.0255432
0.0230032
0.0217294
0.021263
0.0214849
0.0216965
0.0219912
0.0223907
0.0233202
0.0238753
0.0252171
0.0266641
0.0293116
0.0323952
0.0361459
0.0406817
0.046136
0.053562
0.0627022
0.0689702
0.0679797
0.0611848
0.0542124
0.0485456
0.044384
0.041364
0.0396376
0.0398142
0.0431759
0.0478998
0.0546338
0.0619219
0.0701908
0.0774875
0.0860822
0.0973697
0.108541
0.119937
0.127575
0.134373
0.13811
0.142391
0.145523
0.148248
0.149648
0.150973
0.152392
0.0310507
0.0309791
0.0308786
0.0307575
0.0306104
0.0304403
0.0302423
0.0300157
0.0297551
0.0294617
0.0291298
0.0287578
0.0283371
0.0278601
0.0273126
0.0266807
0.025947
0.025102
0.0241461
0.0218624
0.0199677
0.0179863
0.0160833
0.0145494
0.0134766
0.0128491
0.0126078
0.011317
0.0117066
0.0120792
0.012433
0.0128592
0.0133125
0.0138741
0.0144509
0.0150948
0.0157716
0.0165096
0.0172939
0.0181524
0.0190878
0.0201282
0.0206324
0.0209351
0.0214847
0.0221556
0.0231713
0.0243614
0.0259002
0.0277396
0.0296817
0.0324031
0.0320682
0.0279273
0.0229434
0.0201019
0.0189294
0.0189784
0.0192447
0.0200103
0.0202415
0.0214602
0.0217338
0.0231823
0.0241979
0.0268611
0.0298307
0.0335962
0.0378692
0.0452922
0.0528457
0.0637081
0.0705867
0.0688225
0.0616019
0.0545901
0.0490234
0.0449187
0.0419392
0.0400669
0.0397874
0.0423755
0.0475244
0.0549686
0.0639348
0.0748163
0.0856428
0.0966625
0.109304
0.12161
0.129054
0.133022
0.137075
0.141118
0.145053
0.148741
0.15202
0.153948
0.154688
0.155553
0.0254655
0.0252308
0.0249695
0.0246922
0.0243966
0.0240831
0.0237491
0.0233949
0.0230188
0.0226219
0.0222021
0.0217596
0.0212914
0.0207957
0.0202666
0.0196975
0.0190763
0.0183896
0.0176216
0.0167625
0.0158198
0.0148043
0.0134781
0.0111372
0.0094311
0.00846298
0.00825998
0.00730564
0.00752598
0.00774854
0.00795012
0.00822016
0.00850516
0.00888138
0.00927037
0.00972505
0.0102082
0.010753
0.0113338
0.0119859
0.0127046
0.0135245
0.0144464
0.0155012
0.0166935
0.0180407
0.0195313
0.0209272
0.0225588
0.0244735
0.0262334
0.027769
0.028783
0.0254619
0.0197714
0.0176465
0.0171576
0.0173053
0.017763
0.0192288
0.0192851
0.0207562
0.0209029
0.0223475
0.0228709
0.0249311
0.026826
0.0301927
0.0341522
0.0405085
0.0501122
0.0582593
0.064608
0.0631943
0.0580018
0.0523311
0.0478858
0.0444578
0.0417643
0.0398838
0.0393499
0.0417036
0.0464093
0.0532178
0.0627349
0.0741058
0.0874873
0.095292
0.0989342
0.102936
0.107319
0.112105
0.117307
0.122913
0.128865
0.135074
0.141341
0.147345
0.152581
0.156372
0.0196239
0.0193295
0.0190158
0.0186919
0.0183584
0.0180138
0.0176581
0.0172907
0.0169114
0.0165203
0.016117
0.0157014
0.0152731
0.0148322
0.0143778
0.0139094
0.0134244
0.0129189
0.0123844
0.011808
0.0111733
0.0104685
0.00969951
0.0088736
0.00735118
0.0058779
0.00546183
0.00512521
0.00517007
0.00523524
0.00529692
0.00541053
0.00553593
0.00572231
0.00591699
0.00616119
0.0064238
0.00673459
0.00706788
0.00745617
0.00788904
0.0083935
0.0089847
0.00968219
0.0104958
0.0114406
0.0125161
0.0137154
0.0150062
0.016342
0.0176414
0.0188365
0.0194469
0.0198792
0.0203854
0.0211831
0.0188643
0.0172731
0.017091
0.0190852
0.0185985
0.0204972
0.0204268
0.0212728
0.0217455
0.0227808
0.0257277
0.0297908
0.0348478
0.0402151
0.0534663
0.0568019
0.0565167
0.0564344
0.0552671
0.0490669
0.0445173
0.0414807
0.0392293
0.0376136
0.0363602
0.036419
0.0390693
0.0450336
0.0544757
0.0605341
0.0627888
0.0656886
0.0687373
0.0722293
0.0762276
0.0808177
0.0860639
0.0921108
0.0990871
0.107189
0.116556
0.127251
0.138942
0.150368
0.0143735
0.0141078
0.0138311
0.0135487
0.0132638
0.0129731
0.0126786
0.0123784
0.0120738
0.0117635
0.0114485
0.011128
0.0108025
0.0104717
0.0101361
0.00979552
0.00945017
0.00909959
0.00874222
0.00837562
0.00799089
0.00757456
0.00711173
0.00660375
0.00605127
0.00493535
0.00384233
0.00403837
0.00405198
0.00402219
0.00399662
0.00400931
0.00403105
0.00408807
0.00415058
0.0042415
0.0043407
0.00446696
0.00460177
0.00476534
0.00494927
0.00516991
0.00543376
0.00576079
0.00615682
0.0066361
0.00720077
0.00785601
0.0085848
0.00936567
0.0101538
0.010913
0.0112649
0.0114578
0.0115949
0.0118087
0.00946818
0.00959904
0.0147
0.0206127
0.022567
0.0255828
0.0264286
0.0280419
0.0290672
0.029095
0.0308664
0.0292779
0.0287867
0.0289259
0.0316519
0.0334642
0.0330735
0.0328267
0.0326491
0.0324683
0.0322727
0.0320551
0.0315151
0.0301561
0.0290851
0.0296072
0.0308563
0.0313192
0.0317293
0.0322983
0.0333938
0.0350793
0.0368733
0.03899
0.0414666
0.044394
0.0478316
0.051997
0.0571062
0.063607
0.0721155
0.0837674
0.100424
0.125293
0.0103884
0.0102089
0.0100246
0.00983691
0.00965023
0.00946022
0.00927014
0.00907684
0.00888262
0.00868525
0.00848618
0.00828386
0.00807888
0.00787013
0.0076577
0.00744129
0.00722144
0.00699906
0.00677511
0.00655003
0.00632301
0.00609104
0.00583863
0.0055362
0.00515625
0.00451181
0.00270563
0.00298444
0.00347686
0.00345331
0.00339583
0.00338086
0.00335781
0.00336386
0.00336454
0.00338395
0.00340093
0.00342993
0.00345563
0.00349179
0.00353193
0.00358755
0.0036587
0.00375318
0.0038745
0.00403179
0.00422854
0.00446612
0.0047414
0.00504134
0.0053468
0.00563549
0.00576285
0.00579735
0.00576179
0.00573179
0.00578229
0.00628957
0.0086114
0.010947
0.011477
0.0119757
0.0127212
0.013532
0.0141801
0.015059
0.0157902
0.016334
0.0168691
0.0167817
0.0153313
0.0156792
0.0154197
0.0147451
0.0143862
0.0140749
0.0137924
0.0135798
0.01327
0.0130256
0.0127614
0.0127777
0.0129699
0.0130033
0.0128
0.0126727
0.0129072
0.0133885
0.0138619
0.0144561
0.0151923
0.0160889
0.0171315
0.0184126
0.0199876
0.0220596
0.0249074
0.0292281
0.0366542
0.0539217
0.00750322
0.00740211
0.00729571
0.00718506
0.00707321
0.00695675
0.00683848
0.00671518
0.00658933
0.00645795
0.00632316
0.00618219
0.00603661
0.00588394
0.00572534
0.00555889
0.00538514
0.00520177
0.00500837
0.00480313
0.00458753
0.00436146
0.00412222
0.00385865
0.00354927
0.00318453
0.00275575
0.00063884
0.000618571
0.000613303
0.000606673
0.000607348
0.00060942
0.000614653
0.000620248
0.000626333
0.000632396
0.000637481
0.000641069
0.000642438
0.00064244
0.000641137
0.000639413
0.00063809
0.000638131
0.000640096
0.000644167
0.000651006
0.00066048
0.000672937
0.000687137
0.000699373
0.000704794
0.000705104
0.000701666
0.000695764
0.000683668
0.00064954
0.000672559
0.000733413
0.000780282
0.000824323
0.000858452
0.000891224
0.000918737
0.000946407
0.000971181
0.00100787
0.00104762
0.00109388
0.00114319
0.00118107
0.0012133
0.00123602
0.00124348
0.00124204
0.00123294
0.00121667
0.00119516
0.00117002
0.00114483
0.00113423
0.001123
0.00110728
0.0010873
0.00106338
0.0010385
0.00101774
0.000999778
0.00098418
0.00096996
0.000956384
0.000941697
0.000924997
0.000904901
0.000880373
0.000850294
0.000813763
0.00076987
0.000717687
0.000376869
0.0196668
0.0223962
0.0224854
0.0224883
0.0224879
0.0224874
0.0224868
0.0224862
0.0224857
0.0224854
0.0224853
0.0224856
0.0224861
0.0224867
0.0224872
0.0224877
0.022488
0.0224884
0.0224886
0.000403016
0.0176242
0.0222159
0.0224616
0.022472
0.0224721
0.0224717
0.0224711
0.0224706
0.0224701
0.02247
0.0224703
0.0224713
0.0224729
0.0224744
0.0224759
0.0224772
0.0224781
0.0224789
0.0224795
0.000427813
0.0161198
0.0219891
0.0224322
0.0224558
0.0224566
0.0224563
0.0224559
0.0224555
0.0224552
0.0224553
0.022456
0.0224578
0.0224603
0.0224629
0.0224653
0.0224674
0.022469
0.0224703
0.0224711
0.000451207
0.0149563
0.0217302
0.0223967
0.0224394
0.0224417
0.0224415
0.0224412
0.0224409
0.0224407
0.022441
0.0224422
0.0224447
0.0224482
0.0224518
0.0224551
0.0224579
0.0224602
0.022462
0.0224632
0.000473204
0.0140184
0.0214488
0.0223546
0.0224226
0.0224269
0.022427
0.0224267
0.0224266
0.0224265
0.022427
0.0224287
0.022432
0.0224364
0.0224411
0.0224454
0.022449
0.0224519
0.0224541
0.0224556
0.000493879
0.0132073
0.021148
0.0223056
0.0224051
0.0224121
0.0224126
0.0224125
0.0224125
0.0224126
0.0224134
0.0224156
0.0224196
0.0224251
0.0224308
0.022436
0.0224404
0.0224439
0.0224466
0.0224484
0.000513239
0.0124531
0.0208272
0.0222496
0.0223865
0.0223974
0.0223983
0.0223985
0.0223987
0.022399
0.0224
0.0224028
0.0224076
0.022414
0.0224208
0.022427
0.0224322
0.0224364
0.0224395
0.0224416
0.000531389
0.0117425
0.0204879
0.0221862
0.0223669
0.0223827
0.0223842
0.0223846
0.022385
0.0223856
0.022387
0.0223902
0.0223959
0.0224034
0.0224112
0.0224183
0.0224243
0.0224292
0.0224329
0.0224352
0.000548349
0.0110854
0.0201344
0.0221157
0.0223461
0.022368
0.0223703
0.022371
0.0223716
0.0223725
0.0223743
0.022378
0.0223846
0.0223931
0.022402
0.02241
0.0224169
0.0224224
0.0224266
0.0224292
0.000564237
0.0104897
0.0197712
0.0220382
0.022324
0.0223532
0.0223565
0.0223576
0.0223585
0.0223597
0.0223618
0.0223662
0.0223737
0.0223832
0.0223931
0.0224022
0.0224099
0.0224161
0.0224207
0.0224236
0.000579056
0.00995634
0.0194033
0.0219538
0.0223006
0.0223385
0.022343
0.0223445
0.0223457
0.0223472
0.0223498
0.0223548
0.0223631
0.0223737
0.0223847
0.0223948
0.0224033
0.0224102
0.0224153
0.0224184
0.000592918
0.0094818
0.0190352
0.0218632
0.0222758
0.0223237
0.0223297
0.0223316
0.0223332
0.0223351
0.0223382
0.0223439
0.022353
0.0223646
0.0223767
0.0223878
0.0223972
0.0224047
0.0224103
0.0224138
0.00060581
0.00906094
0.0186707
0.0217668
0.0222496
0.022309
0.0223167
0.0223191
0.0223211
0.0223235
0.022327
0.0223334
0.0223434
0.022356
0.0223692
0.0223813
0.0223916
0.0223998
0.0224059
0.0224096
0.000617837
0.00868766
0.0183128
0.0216653
0.022222
0.0222942
0.022304
0.022307
0.0223094
0.0223122
0.0223163
0.0223234
0.0223343
0.0223481
0.0223623
0.0223754
0.0223865
0.0223954
0.0224021
0.0224061
0.00062896
0.00835539
0.017964
0.0215594
0.0221931
0.0222796
0.0222917
0.0222953
0.0222982
0.0223015
0.0223062
0.022314
0.0223258
0.0223407
0.022356
0.0223701
0.0223821
0.0223917
0.0223989
0.0224032
0.000639213
0.00805458
0.0176262
0.02145
0.0221631
0.0222652
0.0222799
0.0222841
0.0222876
0.0222914
0.0222967
0.0223052
0.022318
0.022334
0.0223504
0.0223656
0.0223785
0.0223888
0.0223965
0.022401
0.000648543
0.00778227
0.0173007
0.021338
0.0221321
0.022251
0.0222687
0.0222736
0.0222777
0.0222821
0.022288
0.0222973
0.0223111
0.0223281
0.0223457
0.0223619
0.0223757
0.0223867
0.0223949
0.0223997
0.000656995
0.00753561
0.016989
0.0212244
0.0221004
0.0222374
0.0222582
0.0222639
0.0222687
0.0222737
0.0222803
0.0222903
0.0223051
0.0223232
0.022342
0.0223592
0.0223739
0.0223855
0.0223943
0.0223994
0.00066444
0.00731241
0.0166921
0.0211103
0.0220683
0.0222245
0.0222486
0.0222553
0.0222607
0.0222664
0.0222736
0.0222845
0.0223002
0.0223195
0.0223394
0.0223577
0.0223732
0.0223856
0.0223949
0.0224003
0.000671113
0.00711073
0.0164114
0.020997
0.0220363
0.0222124
0.02224
0.0222479
0.022254
0.0222604
0.0222683
0.0222799
0.0222967
0.0223171
0.0223381
0.0223575
0.0223739
0.022387
0.0223969
0.0224025
0.000676541
0.00692913
0.0161482
0.020886
0.0220048
0.0222016
0.0222329
0.0222421
0.0222489
0.0222559
0.0222645
0.022277
0.0222947
0.0223162
0.0223384
0.0223588
0.0223762
0.02239
0.0224004
0.0224063
0.000681121
0.00676655
0.015904
0.020779
0.0219745
0.0221925
0.0222276
0.0222383
0.0222457
0.0222533
0.0222626
0.0222758
0.0222946
0.0223172
0.0223405
0.022362
0.0223803
0.0223948
0.0224057
0.022412
0.000684655
0.0066221
0.0156802
0.0206781
0.0219459
0.0221855
0.0222248
0.022237
0.022245
0.0222531
0.0222629
0.022277
0.0222967
0.0223204
0.0223448
0.0223674
0.0223865
0.0224017
0.0224132
0.0224198
0.000686664
0.00648861
0.015471
0.0205834
0.0219194
0.0221815
0.0222252
0.0222388
0.0222472
0.0222557
0.022266
0.0222807
0.0223013
0.022326
0.0223516
0.0223752
0.0223952
0.0224111
0.022423
0.02243
0.000689618
0.00634954
0.0152565
0.0204903
0.0218947
0.0221812
0.0222298
0.0222445
0.0222529
0.0222617
0.0222723
0.0222875
0.0223088
0.0223346
0.0223612
0.0223858
0.0224067
0.0224232
0.0224357
0.022443
0.000696008
0.00620446
0.0150323
0.0201346
0.0218728
0.0221862