/*--------------------------------*- C++ -*----------------------------------*\
  =========                 |
  \\      /  F ield         | OpenFOAM: The Open Source CFD Toolbox
   \\    /   O peration     | Website:  https://openfoam.org
    \\  /    A nd           | Version:  7
     \\/     M anipulation  |
\*---------------------------------------------------------------------------*/
FoamFile
{
    version     2.0;
    format      ascii;
    class       volScalarField;
    location    "0.15";
    object      p;
}
// * * * * * * * * * * * * * * * * * * * * * * * * * * * * * * * * * * * * * //

dimensions      [1 -1 -2 0 0 0 0];

internalField   nonuniform List<scalar> 
48560
(
25764.3
25775.9
25784.8
25791.6
25796.8
25800.6
25803.5
25805.7
25807.3
25808.6
25809.6
25810.5
25811.2
25811.9
25812.6
25813.3
25814.2
25815.2
25816.4
25817.9
25819.6
25821.7
25824.3
25827.5
25831.3
25835.9
25841.1
25846.4
25854.3
25864.6
25877.2
25892.4
25910.1
25930.7
25955.3
25985.3
26021.2
26064.9
26116.4
26173.8
26238.7
26313.6
26396.2
26481.5
26579.1
26685.1
26813.2
26955.1
27061.3
27224.3
28083
32823.7
35724.9
38068.6
40291.4
42113.1
43912.4
45503.5
47053
48409.4
49614.3
50611.6
51050.2
51152.2
51271.8
51075.8
50941.6
50839.3
50678.6
50529.2
50340.7
50107.8
49796
49384.1
48813.7
48024.3
46893.7
45108.8
41888.9
37748.1
36622.4
37702.9
37702.9
37386
36736
36103.2
35863.4
35876.8
36106.4
36667.9
37400.3
38167.1
38907.5
39602.6
40226.1
40771
41225.8
41586.9
41838.3
41934.6
25803.6
25815.4
25824.2
25830.4
25834.7
25837.6
25839.5
25840.6
25841.2
25841.5
25841.7
25841.7
25841.8
25841.8
25841.8
25841.9
25842.1
25842.5
25843
25843.9
25845
25846.4
25848.3
25850.6
25853.5
25857.1
25861.1
25865.2
25871.3
25879.6
25890.4
25904.1
25920.9
25941.2
25964.8
25992.8
26027.5
26068.6
26114.4
26165.7
26226.8
26301.2
26383.1
26487.5
26612.1
26698.8
26734.4
26765.1
26881.8
27415.5
29242.4
32841.2
35375.8
37786.3
39874.9
41783
43544.3
45186.2
46729.5
48121.6
49346.1
50351.8
50840.4
51059.2
51141.9
50957.6
50876.1
50771.1
50609.1
50448.5
50231.4
49964.8
49604.5
49126.2
48464.1
47545.9
46183.9
44010.9
41067.6
38912.2
38347.2
38053.5
37762.5
37317.4
36932.7
36808.5
36809.9
36898.6
37175.1
37604.8
38127.8
38737.5
39360
39965.2
40514.7
40995.1
41381.2
41664.6
41838.3
41896.2
25845.7
25858.3
25867.3
25873.3
25877.1
25879.2
25880.3
25880.7
25880.7
25880.6
25880.1
25879.3
25878.2
25876.8
25875.3
25873.8
25872.4
25871.3
25870.6
25870.2
25870.1
25870.2
25870.6
25871.5
25873
25875.2
25878.2
25881.6
25887.4
25894.9
25904.8
25917.7
25933
25949.7
25967.9
25991.8
26024.2
26065
26108.9
26162
26233.1
26314.8
26389.9
26461.7
26533.6
26601.5
26682.4
26831.7
27203.7
28130.3
30069.1
32960.1
35403.6
37713.5
39760.1
41638.8
43395.1
45018.3
46562.1
47949.3
49173.7
50132.1
50632.1
50856.3
50884.4
50783.4
50740.9
50617.4
50475.8
50310
50098.2
49826.8
49458.2
48963.2
48277.6
47308
45851.1
43615.7
40872.7
39112.1
38604.3
38212.9
37794
37335.1
37004.7
36937
36949
37060.5
37343
37768.1
38299.3
38875.2
39465.9
40034.3
40563.8
41031.9
41412.8
41684.1
41839.9
41889.4
25894.8
25908.6
25917.8
25923.1
25925.8
25926.8
25926.9
25926.8
25926.1
25924.6
25922.4
25919.6
25916.3
25912.7
25909.1
25905.9
25903.2
25901.2
25899.7
25898.9
25898.5
25898.4
25898.5
25898.8
25899.5
25900.6
25901.8
25903.1
25905.2
25908.2
25913.8
25923.6
25937.4
25952.7
25970.9
25996.9
26033.9
26082.9
26131.7
26176.7
26219.6
26266.9
26322.3
26377.8
26432.4
26502.2
26631
26867.7
27415.2
28555.5
30501.3
33045.3
35299.9
37535.5
39494.6
41389.3
43110.9
44762.5
46290.1
47697.6
48909.4
49857.4
50377.5
50603.6
50616.5
50572.9
50540.6
50414
50288.7
50102.9
49878.1
49572.5
49170.7
48624
47871.2
46797.1
45218.1
43067.9
40916.3
39588.2
38930.9
38407
37960.9
37634.5
37505.9
37494.2
37524.1
37652.3
37909.7
38275.9
38735.7
39248.7
39779.2
40293.6
40764.2
41168.9
41489.5
41714.4
41845.4
41888
25943.5
25958.7
25968.3
25973.8
25976.3
25977.2
25977.3
25977
25976.1
25974.5
25972
25968.8
25965
25960.8
25956.2
25951.3
25946.4
25941.4
25936.6
25932.2
25928.2
25924.8
25922.1
25920
25918.4
25917.4
25916.9
25916.7
25917.3
25919.9
25926.6
25939
25957.8
25980.4
26003.7
26027.9
26052.1
26077.1
26107.7
26142.4
26182.9
26223.4
26264.9
26311.8
26375
26479
26658.4
27018.4
27721.2
28956.6
30808.6
33106.8
35259.1
37386
39316.3
41171.5
42884.5
44523.7
46049.5
47449.7
48645.4
49562.5
50087.3
50314.6
50341
50331.2
50301.5
50199.2
50085.8
49903.5
49681.2
49366.7
48952.9
48378.5
47584.5
46444.3
44823.2
42802
40994.1
39881.1
39160
38559.9
38122.8
37854.5
37782.3
37781.4
37824.3
37961.6
38216.2
38570.9
39001.4
39471
39957.4
40431.8
40872.8
41249.7
41539.7
41734.6
41847.6
41885
25994.4
26013
26025.1
26032.1
26035.6
26037
26037.2
26036.9
26035.7
26033.4
26029.8
26024.8
26018.6
26011.2
26002.9
25993.9
25984.4
25974.9
25966
25958.3
25952.5
25948.7
25947
25946.6
25947.2
25949.5
25953.2
25956.1
25959.2
25963.6
25968.1
25973.9
25980.8
25991.3
26006.4
26024.9
26044.7
26064.8
26087.2
26114.7
26143.6
26175.5
26214.5
26269.3
26354.1
26488.5
26735.5
27193
27992.9
29255.1
31003.1
33126.1
35187.2
37213.5
39098
40923.8
42618.1
44254.6
45770.4
47168.7
48346
49247.8
49774.8
50015.6
50064.8
50064.5
50036.7
49955.8
49843.4
49662
49431
49100.2
48662.4
48048.8
47201.2
46003.2
44410.1
42629.4
41128.8
40109.8
39353.5
38755.6
38375.2
38195.5
38159.8
38161.9
38212.2
38348.6
38583.5
38906
39297.5
39727.6
40173.3
40603.1
40994.7
41326
41579.3
41748.9
41848
41881.5
26052.3
26074.4
26088.6
26096.2
26099.4
26100.2
26100
26098.8
26096.1
26091.8
26086.1
26079.4
26072.1
26064.5
26057.3
26050.4
26043.9
26037.3
26030.6
26024.1
26017.7
26011.7
26005.8
26000.3
25995.2
25990.9
25988.2
25987.6
25987.7
25989.1
25991.5
25996.1
26001.9
26009.4
26018.1
26028.5
26040.4
26054.7
26071.2
26090.9
26114.9
26147.3
26192.9
26259.7
26363.2
26542.1
26854.9
27387.5
28238.7
29485.9
31132
33126.8
35100.5
37042.5
38886.3
40674.3
42355.5
43978.2
45488.1
46873
48033.2
48917.3
49449.9
49709.6
49785.6
49790.2
49770.7
49708.6
49601.4
49428.1
49194.1
48856.4
48400.9
47759.4
46875.2
45655.7
44128.6
42547.7
41246.8
40283.7
39525.6
38958.2
38627.1
38495.2
38472.8
38478.2
38533.3
38665.9
38886.8
39185.5
39545.3
39940.6
40346.8
40739.6
41095
41389.9
41612.1
41760.2
41848
41878.2
26113.3
26142.6
26163.9
26177.8
26186.3
26190.7
26192.5
26192.9
26192.7
26191.6
26189.2
26185
26179
26170.8
26160.7
26149
26136.4
26123.8
26111.5
26099.5
26088
26077
26066.6
26057
26048.3
26040.5
26034.4
26030.3
26027.1
26025.7
26025
26025.1
26025.5
26026.9
26029.5
26034
26040.6
26050.6
26063.7
26081.4
26105.6
26140.4
26191.7
26273.6
26407.8
26631.5
26998.3
27579.8
28449.8
29659.3
31212.4
33107.6
34993.4
36857
38658.2
40409.9
42075.7
43684.8
45186.2
46557.6
47702.1
48575.6
49117
49398.6
49497.5
49509
49496.6
49446.6
49344.1
49176.4
48937.4
48590.8
48115
47445.9
46534.4
45326.5
43908.9
42518.7
41354.5
40435.1
39706.1
39189.5
38908.9
38808.2
38791.4
38798.6
38852.8
38977.8
39181.3
39455.2
39783.1
40142.9
40511.6
40865
41182
41443.6
41639.1
41769.5
41847.7
41875.1
26206.2
26248.3
26280.8
26304.3
26320.3
26330.2
26335.6
26338
26338.7
26338.8
26338
26335.8
26331.8
26325.5
26316.9
26305.6
26291.9
26275.9
26257.9
26238.3
26217.7
26196.4
26174.9
26153.8
26133.4
26114.3
26097.4
26084.2
26072
26062.4
26055.3
26051.1
26048.7
26047.8
26047.7
26048.4
26050.7
26056.1
26066
26082.5
26108.7
26149.8
26214.9
26318.8
26484.7
26747.5
27154.4
27763.8
28630
29791.8
31260.3
33067.1
34869
36662.1
38418.6
40135.1
41783.8
43377.6
44868.8
46224.1
47355
48222
48777.1
49083.6
49206.3
49227.4
49221.4
49181.3
49086.1
48925
48684.2
48332.3
47841.2
47154.8
46235
45065.4
43761
42515.9
41452.3
40579.4
39893.8
39425
39179.9
39095.1
39081.5
39090.1
39142.3
39259.6
39447
39698.2
39997.4
40324.9
40658.4
40976.4
41258.5
41489.8
41662
41777.1
41847.1
41872.1
26328.7
26390.6
26441.8
26482
26511.4
26531.6
26544.2
26550.9
26553.7
26554.3
26554.1
26552.5
26548.3
26541
26529.9
26514.7
26495.4
26472.2
26445.4
26415.5
26383.1
26348.9
26313.8
26278.4
26243.5
26209.9
26178.9
26153.7
26129.6
26109.1
26093.4
26082.4
26075.3
26071.3
26069.7
26069.5
26070.4
26074.1
26083.3
26100.9
26131.8
26182.6
26263.8
26390.6
26585.6
26880.4
27315.4
27936.2
28785.4
29895.8
31285.8
33007.3
34727
36453.4
38163.4
39845.8
41475.4
43053.4
44532.6
45871.8
46991.1
47856
48428.1
48761.6
48910.1
48943.8
48942.4
48910.4
48823.2
48668
48426.7
48070
47566.9
46871.4
45961.1
44851.7
43662.7
42534.4
41550.6
40729.4
40092.8
39667.8
39448.9
39373
39360.4
39368.7
39416.9
39524.6
39695.3
39923.9
40194.9
40491
40790.8
41075.1
41325.5
41529.9
41681.6
41783.6
41846.4
41869.3
26466.2
26552.7
26627.9
26689.9
26738.2
26773.6
26797.3
26811.5
26818.5
26821
26821.2
26820.3
26816.7
26808.9
26795.8
26776.6
26751.2
26719.5
26682.1
26639.5
26592.7
26542.5
26490.1
26436.6
26383.3
26331
26282.1
26241.1
26201.9
26168.2
26141.7
26122.3
26109
26100.8
26097
26096
26096.5
26100.2
26110.5
26131.7
26169.8
26232.5
26331
26480.5
26702.1
27022.8
27476
28097.3
28922.4
29980.6
31296.5
32932.4
34570.3
36230.9
37892.4
39540.8
41149.6
42711.3
44176.9
45500
46609.6
47475.9
48068.1
48431.5
48609.5
48660
48661.6
48637.3
48559.4
48410.9
48171.8
47813.5
47305.2
46612.1
45727.3
44687.7
43603.1
42571.5
41656.8
40889
40298.9
39907.8
39705.6
39633.7
39621.1
39628.5
39672.1
39769.7
39924
40130.8
40375.1
40641.5
40909.8
41162.9
41384.4
41564.9
41698.8
41789.3
41845.7
41866.7
26604.2
26717.4
26820.4
26909.5
26982.7
27039.5
27080.4
27107.3
27122.7
27129.7
27131.7
27131.7
27129.6
27123.2
27110.2
27089.1
27059.2
27020.2
26971.9
26915.1
26851.9
26783.6
26710.9
26635.5
26559.2
26483.5
26411.4
26349.8
26290.5
26239.3
26198.3
26167.6
26146.1
26132.7
26126
26123.9
26124.2
26128.3
26140.6
26166.7
26213.6
26290.1
26407.5
26580.1
26826.3
27168.3
27633.1
28249.2
29046.4
30053.2
31298.6
32846.2
34400.5
35993.8
37604.1
39217.4
40803.8
42349
43799.7
45107.5
46209.2
47079.4
47693.7
48090
48301.6
48373
48379.7
48362.5
48294.4
48153.6
47919.3
47562.9
47056.4
46376.7
45530.5
44565.9
43575.9
42626.2
41775.6
41060.2
40511.2
40145.9
39953.1
39881.4
39867.3
39873.1
39911
39997.8
40135.6
40321
40539.7
40777.8
41016.5
41240.9
41436.6
41595.8
41714
41794.4
41845.1
41864.4
26726
26863.9
26994.8
27113.6
27216.8
27302.4
27369.3
27417.8
27449.7
27468
27476.2
27478.4
27478.2
27474.8
27464.8
27445.2
27414.2
27370.6
27313.7
27244.4
27165.2
27077.1
26980.9
26879.2
26774.6
26670
26569.2
26482.1
26398.7
26326.4
26268
26223.4
26191.6
26170.7
26159.6
26155.8
26155.7
26159.6
26173.3
26203.8
26259.5
26349.8
26485.7
26680
26949.1
27311.2
27785.3
28393.9
29162.9
30119.6
31296.7
32752.8
34220.3
35742.6
37297.8
38873.9
40436.3
41964.5
43400.2
44693.5
45788.5
46664.2
47301.8
47733.7
47984.2
48082.4
48097.7
48087.3
48029.8
47898.8
47672.6
47323.1
46826.7
46170.8
45372.5
44482.3
43573.9
42698.1
41908.6
41242.2
40727.7
40379.7
40190.1
40115.2
40098.2
40101.9
40133.6
40209.2
40330.7
40495.2
40689.5
40900.9
41112.3
41310.5
41482.9
41623.2
41727.6
41799
41844.7
41862.4
26829
26986.6
27141.7
27288.8
27423.7
27543.1
27643.9
27724.3
27783.9
27823.8
27846.9
27857.3
27859.9
27859.3
27853.7
27838.9
27811.4
27768.7
27709.4
27633
27539.8
27430.9
27308.7
27176.7
27039
26900.1
26766.1
26649.9
26535.2
26433.3
26349
26283.2
26235.5
26203.9
26187
26180.7
26180.3
26183.7
26198.2
26232.4
26296.1
26400.3
26556.6
26776.8
27070.9
27450
27930
28533
29276.6
30185.5
31293.9
32655.8
34032.5
35477.4
36972.1
38506.9
40043.7
41554.7
42975.3
44255.3
45345.4
46227.4
46888.9
47358
47653.1
47786.7
47816.7
47812.7
47766.6
47648.1
47434
47097.2
46618.9
45995.6
45250.6
44432.2
43595.2
42787.7
42056.3
41434.3
40947.7
40610.3
40418.3
40336.4
40314.5
40315.9
40341
40404.9
40510.3
40654.5
40825.7
41012.1
41198.3
41372.6
41524.2
41647.7
41739.8
41803.3
41844.5
41860.6
26914.5
27085.9
27259.1
27429
27592
27744.5
27882.4
28001.9
28100
28175
28227
28258.3
28273
28276.9
28276.5
28269.7
28251
28215.8
28160.1
28081.6
27978.9
27852.8
27705.6
27541.6
27366.2
27186.1
27009.3
26852.2
26697.3
26560.1
26446.3
26356.9
26291.6
26246.8
26221
26210.4
26209
26211.7
26225.9
26261.4
26329.2
26441.2
26609.5
26846.2
27162.4
27567.7
28069
28670.2
29390.9
30256
31294.4
32560.4
33842.4
35202
36628.5
38115.9
39624.5
41118.7
42526.2
43794.7
44880.7
45768.4
46452.3
46958.6
47303.1
47483.1
47538.8
47539.8
47506.4
47404.2
47206.5
46888.9
46436.4
45852.4
45162.9
44412.1
43640.4
42895.4
42217.7
41635.4
41171
40838.3
40639.6
40546.2
40516.5
40515.5
40533.6
40585.6
40675.2
40799.8
40949.1
41112.2
41275.3
41428.1
41561.2
41669.7
41751
41807.5
41844.4
41859.2
26988.1
27167.8
27352.3
27537.5
27720.7
27899
28068.9
28226.2
28366.4
28485.6
28580.4
28649.3
28693
28715.3
28722.4
28722.4
28715.7
28694.4
28651.9
28582.5
28482.2
28348.8
28183.1
27988.7
27772.3
27543
27312.4
27102.1
26894.7
26711.8
26560.7
26441.7
26355.2
26294.3
26257.3
26238.5
26234.2
26237.1
26251.1
26287.9
26359.1
26477.5
26655.6
26905.1
27236.3
27657.5
28174.6
28790.1
29505.6
30331.6
31302.8
32471.3
33652.6
34916
36263.1
37694.2
39170.5
40647.9
42042.6
43301.2
44386.5
45281.4
45987.9
46531.6
46929.3
47166.4
47262
47272.7
47252.4
47170.1
46993.6
46701.6
46281.4
45741.5
45107.4
44416.6
43706.8
43020.5
42391.9
41844.8
41397.9
41065.5
40855.1
40746.2
40705.2
40700.1
40711.4
40751.7
40825.8
40931.7
41060.6
41202.3
41344.5
41477.9
41594.3
41689.5
41761.3
41811.4
41844.7
41858.1
27054.1
27238.5
27429.3
27623
27817.8
28012.5
28205.8
28393.4
28569.9
28732.5
28876.4
28996.7
29089.5
29153
29188.8
29202.5
29203.9
29199
29177.5
29129.3
29045.5
28919
28746.1
28527.2
28268.7
27982
27683.9
27404.5
27129.8
26888.9
26691.3
26534.4
26420.8
26340.6
26292.2
26266
26256.4
26259.3
26274.5
26309.6
26381.5
26503.6
26689
26949.4
27294.7
27731.1
28262
28887.1
29605.2
30415.4
31325.2
32397.6
33477
34635.4
35889.4
37250.5
38687.4
40149.5
41539.1
42791.7
43876.7
44775.7
45499.9
46075.8
46525
46827.4
46980.8
47015.6
47008.7
46948.8
46798.8
46538.5
46155.7
45662.3
45082.3
44446.2
43793.1
43160.5
42576.4
42060.8
41628.3
41293.1
41066.6
40938.3
40882.2
40869.6
40874.5
40903.5
40962.6
41050.9
41160.6
41282.8
41406.2
41522.3
41624
41707.4
41770.7
41815.3
41845.1
41857.3
27115.6
27302.6
27496.8
27695
27895.7
28099.3
28306.5
28512.4
28712.2
28905.4
29089.1
29258.1
29406.6
29528.5
29618.8
29675.8
29702.4
29708.1
29706.2
29687
29635.3
29536.9
29379
29153.7
28860.6
28510.9
28128.5
27758.9
27398.8
27083.9
26831.3
26629.3
26485.3
26383
26322
26289.7
26278.4
26279.1
26290.8
26324.1
26395.3
26518.8
26708.8
26977
27333.7
27784.2
28330
28967.4
29689.6
30487.3
31357
32341
33310.2
34346
35486.4
36759.5
38146.2
39590.9
40974.1
42221.8
43314.5
44223.8
44970.8
45582.8
46086
46460.8
46691.1
46775.9
46779.2
46743.3
46626.2
46402.1
46061.1
45615.1
45084.8
44501.4
43900.7
43316.9
42772.9
42285.1
41864.5
41524
41277.6
41125.2
41048.8
41024
41023.3
41041.6
41086.1
41157.7
41250.1
41354.6
41461.1
41561.9
41650.5
41723.5
41779.2
41818.9
41845.8
41856.9
27173
27361.9
27558.8
27760
27964.6
28173
28384.9
28597.9
28809.3
29018.7
29225.2
29426.6
29619
29797.2
29954.1
30082.1
30174
30226.9
30245.8
30246.4
30233.4
30181.1
30064.2
29858.5
29547.3
29133.3
28647.9
28165
27703.8
27294.3
26979.3
26724.7
26546.6
26419.2
26343.2
26302.7
26289.6
26289.2
26297.4
26328.9
26399.1
26522.7
26714.9
26988.1
27353.7
27816.4
28376.8
29029.3
29762.5
30558.9
31401
32314
33193.8
34114
35123.8
36278.6
37589.4
39014.8
40416.6
41670.3
42768.7
43683.7
44439.9
45072.1
45612.2
46051.8
46372.6
46540.9
46572.8
46560.7
46479.2
46295.9
45999.2
45599.4
45114
44577.3
44022.3
43481
42972.1
42509.1
42099.6
41754.3
41488.8
41308.4
41207.1
41165.8
41157.7
41166.6
41198.1
41254.4
41331
41419.6
41511.3
41598.5
41675.5
41738.9
41787.6
41822.6
41846.6
41856.7
27226.7
27417.6
27616.8
27820.9
28028.9
28240.4
28454.6
28670.4
28887.1
29104.4
29321.9
29538.9
29754.1
29965.3
30168.7
30357.9
30523.9
30655.1
30741.6
30780.9
30786.4
30778.1
30722.3
30577.1
30298.3
29852
29251.6
28609.9
28036.1
27507.9
27120.8
26812.2
26600.5
26448.9
26359.5
26311.3
26294.6
26292.9
26299.1
26328.1
26396.2
26518.6
26711.8
26988.2
27358.1
27828.5
28399.5
29064.6
29809.4
30609.7
31435.3
32284.2
33053.8
33828.3
34685.7
35700.3
36914.7
38306.9
39714.1
40974.4
42098
43033.2
43814.7
44490
45083.6
45605.7
46031.2
46310.1
46407.4
46411.3
46366.5
46228.3
45974.5
45616.4
45175.4
44683.2
44172
43669
43191
42750.4
42352.2
42004
41708.8
41493.1
41359.2
41296
41277.2
41278.8
41299.6
41343.1
41405.7
41480.5
41559.3
41634.7
41701.3
41755.8
41797.5
41827.4
41848.4
41857.5
27275.9
27468.8
27670.4
27877
28087.6
28301.5
28517.9
28736
28955.4
29175.7
29396.6
29617.9
29839.1
30059.8
30279.4
30496.5
30708.3
30909.2
31089.1
31232.6
31322.4
31353.1
31352.8
31303.5
31115
30684.2
29932.9
29047.4
28356.1
27717
27261.2
26905.9
26660.6
26485.5
26382.4
26325
26303.4
26299.2
26303.5
26329.8
26394.4
26513.3
26703.8
26980
27351.6
27825.5
28403.2
29078.4
29835.7
30648.8
31480.6
32324.3
33068.3
33761
34478
35319.5
36363.6
37654.5
39120.5
40431.1
41550.4
42500.7
43286.9
43964.2
44567
45119.1
45617.9
46031.6
46246.3
46293.7
46281.6
46186.3
45970.5
45650.9
45244.8
44790.2
44311.1
43838.5
43386.7
42964.6
42574
42217.6
41918.5
41673.8
41502.4
41411.3
41380.2
41377.3
41389.1
41421.5
41472.8
41536.7
41605.4
41671.4
41729.4
41776.2
41811.1
41835.8
41853.3
41860.9
27320.4
27515.5
27719.3
27927.9
28140.5
28356.2
28574.5
28794.7
29016.6
29239.7
29463.9
29688.8
29914.5
30141
30368.8
30597.9
30828.5
31059.2
31287.9
31507
31698.9
31831.9
31881.9
31881.8
31803
31493.3
30721.3
29484.4
28690.3
27926.9
27378.2
26980
26698.3
26510
26391.8
26326.9
26299.3
26292.7
26293.8
26312.2
26368.1
26477.8
26662
26935.9
27307.3
27784.2
28368.2
29052.2
29820.4
30645
31482.7
32300.1
32972.3
33529.9
33990.4
34510.9
35344.4
36623.2
38133.4
39484.7
40630.7
41646.5
42467.3
43195.7
43867
44516.8
45171.5
45767.7
46148.2
46286
46294.9
46236.3
46069.9
45785.9
45418.2
44991.5
44539.6
44087.6
43650
43239.4
42863.6
42525.7
42193.9
41889.3
41650.8
41512.9
41461.8
41454.3
41460.2
41484.7
41527.9
41584
41646.1
41706.3
41759.2
41800.9
41830.9
41851
41864.8
41870.6
27358.9
27556.1
27761.9
27971.9
28186.2
28403.6
28624.1
28846.9
29071.8
29298.3
29526.3
29755.3
29985.1
30214.9
30443.4
30669.7
30893.6
31116.4
31340
31566.7
31797.1
32026.4
32235.3
32375.6
32405.4
32343.8
31717.3
29782.5
28867.2
28067
27445.5
27040.1
26729.5
26537.3
26408.1
26345.7
26318.6
26314.9
26316.2
26333.1
26382.4
26490.5
26679.2
26948.4
27312.3
27786.9
28370.7
29056.8
29827.6
30656.3
31501.6
32350.1
33063.2
33620.3
34062.4
34536.6
35243.3
36284.6
37600.4
39095.8
40319.8
41318
42136.4
42857.4
43499.7
44118.5
44741.6
45379.2
45967.4
46243.5
46277.6
46242.6
46083.4
45822.3
45468
45059.5
44625.2
44195.2
43785.7
43397.8
43030.3
42665.3
42338.7
42044.6
41786.4
41608.5
41527.6
41511.6
41512.8
41530.5
41567.5
41618.5
41676.5
41734
41785.3
41826.3
41855.5
41873.2
41884.6
41889.1
27390.9
27590.9
27799.1
28011.1
28227.3
28446.1
28668.1
28891.5
29117.4
29344.3
29573.5
29803.4
30034
30263.1
30490.5
30716.9
30945.4
31176.6
31411.7
31652.4
31904.3
32174.5
32449.5
32677.7
32761.6
32743.3
32318.2
30134.9
29089.1
28229.5
27543.5
27108.1
26772.3
26562.1
26418
26343.5
26308.9
26302.4
26303.3
26318.1
26362.8
26454.2
26611.7
26862.6
27221.6
27686.4
28262.3
28942.9
29710.1
30537.9
31379
32228.8
32976.5
33593.2
33967.6
34051.9
34042.2
34062.8
35555.8
37715.7
39125.4
40213.1
41078.6
41857.4
42554.4
43243.3
44051.7
44958.7
45959.4
46437.1
46521.7
46508.4
46377.9
46103
45749.2
45361
44938.3
44522.4
44123.3
43730.7
43377.8
43046.5
42717.1
42389.5
42037.2
41729.2
41571.7
41529.3
41527.7
41549.8
41589.3
41636.7
41689.8
41744.8
41795
41838.1
41871.7
41895.3
41908.2
41911.4
42056.9
42058.2
42057
42057.6
42057.5
42057.6
42057.7
42057.8
42057.9
42058
42058.1
42058.2
42058.3
42058.3
42058.4
42058.4
42058.4
42058.5
42058.5
42058.4
42055.9
42057.8
42056.6
42057.3
42057.2
42057.4
42057.6
42057.8
42058
42058.2
42058.4
42058.5
42058.6
42058.7
42058.8
42058.9
42059
42059
42059
42059
42055.6
42056.8
42055.8
42056.5
42056.5
42056.9
42057.3
42057.7
42058.2
42058.6
42058.9
42059.2
42059.5
42059.7
42059.9
42060.1
42060.2
42060.3
42060.3
42060.3
42055.3
42055.9
42054.9
42055.7
42055.9
42056.4
42057
42057.7
42058.4
42058.9
42059.4
42059.9
42060.3
42060.6
42060.9
42061.2
42061.4
42061.6
42061.7
42061.7
42054.5
42054.7
42053.9
42054.7
42055.1
42055.8
42056.7
42057.6
42058.6
42059.4
42060.1
42060.7
42061.3
42061.8
42062.3
42062.7
42063
42063.2
42063.4
42063.5
42053.1
42053.2
42052.4
42053.4
42054
42055.1
42056.3
42057.6
42058.8
42059.9
42060.9
42061.8
42062.7
42063.4
42064
42064.6
42065
42065.4
42065.6
42065.8
42051.1
42051.2
42050.6
42051.7
42052.7
42054.2
42055.8
42057.5
42059.1
42060.6
42061.9
42063.2
42064.3
42065.3
42066.2
42066.9
42067.5
42068
42068.3
42068.6
42048.4
42048.6
42048.4
42049.7
42051.2
42053.2
42055.2
42057.5
42059.5
42061.4
42063.2
42064.8
42066.3
42067.6
42068.8
42069.8
42070.5
42071.2
42071.5
42071.8
42045
42045.6
42045.7
42047.4
42049.4
42051.9
42054.6
42057.4
42060
42062.4
42064.6
42066.7
42068.6
42070.3
42071.8
42073
42074
42074.8
42075.3
42075.6
42041
42041.9
42042.5
42044.7
42047.3
42050.5
42053.9
42057.4
42060.6
42063.5
42066.3
42068.9
42071.3
42073.4
42075.2
42076.7
42078
42078.9
42079.5
42079.9
42036.4
42037.7
42038.7
42041.6
42045
42049
42053.2
42057.4
42061.2
42064.9
42068.3
42071.4
42074.3
42076.8
42079.1
42080.9
42082.4
42083.5
42084.2
42084.7
42031
42032.8
42034.5
42038.1
42042.4
42047.3
42052.4
42057.5
42062.1
42066.4
42070.5
42074.3
42077.7
42080.7
42083.4
42085.6
42087.4
42088.7
42089.5
42090
42025
42027.2
42029.6
42034.2
42039.5
42045.5
42051.7
42057.7
42063.1
42068.2
42073.1
42077.5
42081.5
42085.1
42088.2
42090.8
42092.9
42094.4
42095.3
42095.9
42018
42020.8
42024.1
42029.9
42036.3
42043.6
42051
42057.9
42064.3
42070.3
42076
42081.2
42085.8
42090
42093.6
42096.6
42098.9
42100.7
42101.8
42102.4
42010.1
42013.6
42017.9
42025
42032.9
42041.6
42050.3
42058.3
42065.7
42072.8
42079.3
42085.3
42090.7
42095.4
42099.5
42102.9
42105.6
42107.6
42108.9
42109.6
42001
42005.4
42010.9
42019.8
42029.2
42039.6
42049.8
42059
42067.5
42075.6
42083.1
42090
42096.1
42101.5
42106.1
42110
42113.1
42115.3
42116.7
42117.5
41990.2
41996.1
42003
42014
42025.3
42037.6
42049.4
42059.9
42069.7
42079
42087.5
42095.3
42102.2
42108.3
42113.5
42117.9
42121.3
42123.8
42125.3
42126.2
41976.9
41985.4
41994.2
42007.7
42021.3
42035.8
42049.2
42061.1
42072.4
42082.9
42092.6
42101.3
42109.1
42115.9
42121.8
42126.6
42130.4
42133.1
42134.8
42135.8
41961.2
41973.3
41984.1
42001.1
42017
42034
42049.3
42062.8
42075.6
42087.6
42098.4
42108.2
42116.9
42124.5
42130.9
42136.3
42140.4
42143.5
42145.3
42146.3
41942.6
41959.5
41972.7
41994
42012.7
42032.6
42049.6
42065.1
42079.6
42093
42105.2
42116.1
42125.7
42134.1
42141.2
42147
42151.6
42154.9
42156.9
42158
41919.7
41943.9
41959.7
41986.8
42008.5
42031.6
42050.5
42068.1
42084.5
42099.5
42113
42125.1
42135.7
42144.9
42152.7
42159
42164
42167.6
42169.8
42170.9
41890
41926.5
41945.1
41979.6
42004.4
42031.1
42052
42072
42090.4
42107.1
42122.1
42135.4
42147
42157
42165.5
42172.4
42177.8
42181.6
42183.9
42185.2
41849.4
41907.3
41928.5
41972.9
42000.7
42031.2
42054.4
42077.2
42097.7
42116.1
42132.6
42147.2
42159.8
42170.7
42179.8
42187.2
42193
42197.1
42199.6
42200.9
41794.7
41887.4
41910
41967.2
41997.5
42031.9
42058.1
42083.8
42106.5
42126.8
42144.8
42160.6
42174.3
42186
42195.8
42203.7
42209.8
42214.3
42216.8
42218.2
41727.3
41868.8
41890.1
41963.1
41995
42034
42063.4
42092.2
42117.1
42139.3
42158.9
42175.9
42190.6
42203.1
42213.5
42221.9
42228.4
42233.1
42235.7
42237.1
41667.2
41852.8
41871.1
41960.7
41993.7
42037.9
42070.6
42102.6
42129.8
42154
42175
42193.3
42209
42222.2
42233.2
42242.1
42248.8
42253.7
42256.3
42257.9
41629
41839.2
41856.2
41959.9
41993.7
42044.3
42080.2
42115.5
42144.8
42170.9
42193.4
42212.8
42229.4
42243.3
42254.9
42264.1
42271.1
42276.2
42278.8
42280.5
41608.8
41829.5
41847.9
41960.1
41995.6
42053.6
42092.6
42131.1
42162.5
42190.4
42214.2
42234.6
42252
42266.6
42278.6
42288.1
42295.4
42300.6
42303.3
42305
41600.8
41825
41845.1
41962.4
42001.1
42066.2
42108.5
42149.9
42183.1
42212.6
42237.5
42258.9
42277
42292
42304.4
42314.2
42321.7
42327
42329.7
42331.3
41599.8
41824.6
41845.4
41969.1
42011.8
42083
42127.9
42172.1
42207
42237.9
42263.7
42285.8
42304.4
42319.8
42332.5
42342.5
42350
42355.4
42358.1
42359.7
41602.4
41827.5
41851
41982.8
42029.1
42104.7
42151.5
42198.1
42234.3
42266.3
42292.9
42315.5
42334.4
42350.1
42362.8
42372.9
42380.5
42385.8
42388.5
42390
41618.4
41840.8
41867.5
42005.6
42053.8
42132.2
42179.9
42228.2
42265.2
42298.1
42325.1
42348
42367
42382.7
42395.5
42405.5
42413
42418.2
42420.9
42422.4
41656.6
41870.7
41898.7
42038.8
42086.9
42166.3
42213.6
42262.9
42300
42333.2
42360.3
42383.2
42402.2
42417.8
42430.4
42440.3
42447.6
42452.7
42455.2
42456.6
41718.1
41919.2
41945.8
42082.5
42128.9
42207.2
42253.2
42302.4
42338.9
42371.9
42398.6
42421.3
42439.9
42455.2
42467.5
42477.1
42484.2
42489.1
42491.4
42492.8
41798
41983.8
42007.5
42136.6
42179.9
42255.2
42298.8
42346.8
42382
42414.2
42440
42462
42480.1
42494.9
42506.7
42515.9
42522.7
42527.3
42529.4
42530.6
41891.5
42061
42081.1
42200.1
42239.2
42309.8
42350.2
42396.1
42429.3
42460
42484.5
42505.5
42522.6
42536.7
42547.9
42556.6
42562.9
42567.2
42569
42570.1
41994.7
42147.3
42164
42271.5
42306.1
42370.5
42407.3
42450
42480.6
42509.2
42532
42551.5
42567.5
42580.5
42590.9
42598.9
42604.7
42608.5
42610.1
42610.9
42104.5
42240.4
42254
42349.4
42379.2
42436.5
42469.2
42507.9
42535.4
42561.5
42582.2
42600
42614.4
42626.2
42635.6
42642.7
42647.9
42651.3
42652.4
42653.1
42219.2
42338.5
42349.2
42432.5
42457.5
42507
42535.4
42569.5
42593.5
42616.6
42634.8
42650.5
42663.2
42673.6
42681.7
42688
42692.4
42695.2
42695.9
42696.4
42337.7
42440.5
42448.5
42519.3
42539.7
42581.2
42605.1
42634
42654.3
42673.9
42689.4
42702.8
42713.5
42722.3
42729.1
42734.3
42737.9
42740
42740.4
42740.6
42459.6
42545.5
42550.6
42609.2
42624.9
42658.2
42677.4
42700.9
42717.2
42733.2
42745.7
42756.5
42765.1
42772.1
42777.5
42781.5
42784.2
42785.7
42785.5
42785.5
42584.2
42653.1
42655.1
42701.4
42712.1
42737.4
42751.8
42769.6
42781.8
42793.9
42803.2
42811.3
42817.7
42822.7
42826.6
42829.3
42831
42831.8
42831.1
42830.9
42711.1
42762.5
42761
42795.5
42800.7
42818
42827.5
42839.5
42847.5
42855.5
42861.5
42866.8
42870.8
42873.8
42876
42877.4
42878.1
42878.2
42877
42876.5
42839.7
42873.3
42867.7
42890.9
42890.1
42899.6
42904
42910.1
42913.8
42917.6
42920.3
42922.6
42924.1
42925.1
42925.6
42925.6
42925.2
42924.5
42922.8
42922.2
42969.6
42985.1
42974.9
42987.2
42979.6
42981.8
42980.6
42980.9
42980.2
42979.9
42979.1
42978.3
42977.3
42976.2
42975
42973.6
42972.1
42970.6
42968.4
42967.5
43099.9
43097.7
43082.3
43083.6
43068.7
43064.4
43056.5
43051.8
43046.1
43041.8
43037.4
43033.6
43030.1
43026.8
43023.8
43021
43018.3
43016.1
43013.4
43012.3
43230.7
43210.8
43189.3
43179.9
43157.1
43146.9
43131.7
43121.9
43111.2
43102.9
43094.9
43088.1
43082
43076.6
43071.8
43067.6
43063.8
43060.8
43057.7
43056.5
43362.9
43322.2
43295.1
43275.5
43244.6
43227.8
43205.9
43190.8
43175.2
43162.9
43151.4
43141.6
43132.9
43125.4
43118.8
43113.2
43108.4
43104.6
43101
43099.6
43495.1
43432.9
43400.6
43368.4
43331
43306.7
43278.6
43258.1
43237.9
43221.5
43206.5
43193.8
43182.6
43172.9
43164.6
43157.7
43151.8
43147.3
43143.2
43141.7
43628.4
43542.1
43504.6
43458.7
43415.4
43383.3
43349.4
43323.6
43298.8
43278.5
43260.1
43244.5
43230.8
43219.1
43209.1
43200.8
43193.9
43188.7
43184.1
43182.5
43760.3
43649.8
43606.5
43546.3
43497.6
43457.3
43418.1
43387
43357.8
43333.6
43311.9
43293.5
43277.4
43263.7
43252
43242.4
43234.4
43228.5
43223.6
43221.9
43890
43753.7
43705.6
43630.8
43576.9
43528.5
43484.2
43448
43414.6
43386.8
43361.9
43340.7
43322.2
43306.6
43293.3
43282.4
43273.4
43266.9
43261.5
43259.7
44011.6
43853.9
43800.6
43711.9
43653.2
43596.7
43547.9
43506.6
43469.2
43437.8
43409.8
43385.9
43365.2
43347.7
43332.8
43320.6
43310.7
43303.5
43297.8
43295.8
44106.2
43947.2
43888.2
43788.5
43725.4
43661.6
43608.5
43562.5
43521.4
43486.5
43455.6
43429.2
43406.4
43386.9
43370.6
43357.2
43346.3
43338.4
43332.3
43330.3
44176.2
44029.3
43965.5
43859.5
43792.7
43722.6
43665.9
43615.4
43571
43532.9
43499.3
43470.5
43445.5
43424.4
43406.5
43391.9
43380.2
43371.7
43365.1
43363
44229.9
44098.5
44031.9
43923.7
43854.1
43779.1
43719.4
43665
43617.7
43576.7
43540.6
43509.5
43482.6
43459.8
43440.6
43424.9
43412.3
43403.1
43396.2
43394
44272.2
44155.8
44088
43980.6
43909.2
43830.8
43768.8
43711.2
43661.4
43617.7
43579.4
43546.3
43517.7
43493.3
43472.8
43456
43442.5
43432.7
43425.5
43423.1
44305.7
44202.5
44134.8
44029.9
43957.6
43877.3
43813.6
43753.4
43701.7
43655.8
43615.5
43580.7
43550.4
43524.7
43502.9
43485.1
43470.9
43460.5
43452.8
43450.3
44332.4
44240.4
44173.4
44072
43999.5
43918.5
43853.8
43791.7
43738.4
43690.7
43648.9
43612.4
43580.8
43553.8
43531
43512.2
43497.2
43486.3
43478.3
43475.6
44352.2
44270.4
44204.4
44107.1
44035
43954.2
43889.1
43825.8
43771.5
43722.4
43679.3
43641.5
43608.7
43580.6
43556.8
43537.2
43521.5
43510.1
43501.8
43498.9
44368.1
44293.8
44229.1
44135.9
44064.6
43984.7
43919.6
43855.8
43800.9
43750.7
43706.7
43667.9
43634.1
43605
43580.3
43559.9
43543.6
43531.8
43523.3
43520.2
44380.3
44311.7
44248.1
44158.7
44088.9
44010.2
43945.5
43881.7
43826.5
43775.6
43731
43691.5
43656.9
43626.9
43601.4
43580.5
43563.7
43551.5
43542.8
43539.5
44389.2
44324.8
44262.2
44176.4
44107.9
44030.9
43967.1
43903.5
43848.4
43797.3
43752.3
43712.2
43676.9
43646.2
43620.2
43598.8
43581.6
43569.1
43560.2
43556.8
44395.1
44333.8
44271.7
44189.7
44122.1
44047.3
43984.4
43921.5
43866.7
43815.6
43770.5
43730
43694.2
43663.1
43636.6
43614.8
43597.3
43584.5
43575.5
43572
44398.5
44338.9
44277.5
44198.5
44132.2
44059.4
43997.7
43935.8
43881.5
43830.7
43785.7
43744.9
43708.8
43677.4
43650.7
43628.6
43610.8
43597.8
43588.8
43585.1
44399.5
44340.6
44280.1
44203.5
44138.6
44067.8
44007.3
43946.5
43893
43842.6
43797.7
43756.8
43720.7
43689.2
43662.3
43640
43622.2
43609
43600
43596.1
44398.9
44340.4
44280.4
44205.4
44141.8
44072.9
44013.5
43953.9
43901.2
43851.5
43806.9
43766.1
43730.1
43698.5
43671.6
43649.2
43631.3
43618
43609
43605.1
44394.1
44336.5
44278.7
44205.2
44142.6
44075
44016.9
43958.5
43906.6
43857.4