/*--------------------------------*- C++ -*----------------------------------*\
  =========                 |
  \\      /  F ield         | OpenFOAM: The Open Source CFD Toolbox
   \\    /   O peration     | Website:  https://openfoam.org
    \\  /    A nd           | Version:  7
     \\/     M anipulation  |
\*---------------------------------------------------------------------------*/
FoamFile
{
    version     2.0;
    format      ascii;
    class       volScalarField;
    location    "0.15";
    object      rho;
}
// * * * * * * * * * * * * * * * * * * * * * * * * * * * * * * * * * * * * * //

dimensions      [1 -3 0 0 0 0 0];

internalField   nonuniform List<scalar> 
48560
(
0.395752
0.395851
0.39592
0.395963
0.395986
0.395993
0.395988
0.395974
0.395952
0.395923
0.395889
0.39585
0.395807
0.395759
0.395709
0.395653
0.395594
0.39553
0.395461
0.395386
0.395305
0.395218
0.395122
0.395018
0.394906
0.394784
0.394647
0.394462
0.394192
0.393896
0.393559
0.393163
0.392688
0.392075
0.391243
0.390297
0.389192
0.388014
0.386807
0.385793
0.38465
0.383375
0.381866
0.379867
0.377303
0.374
0.370662
0.369443
0.371645
0.377131
0.393965
0.456576
0.478818
0.50448
0.525054
0.544196
0.559967
0.576123
0.589021
0.602434
0.611733
0.621262
0.623463
0.624892
0.624689
0.622235
0.620683
0.619321
0.617187
0.615379
0.613316
0.610977
0.608007
0.604281
0.599225
0.592349
0.582753
0.567764
0.539768
0.501114
0.501341
0.512873
0.50814
0.506708
0.499976
0.496598
0.494404
0.496175
0.498694
0.505878
0.514549
0.523122
0.53122
0.538778
0.545492
0.551376
0.556285
0.560239
0.563024
0.564143
0.395704
0.395803
0.39586
0.39589
0.395892
0.395876
0.395842
0.395797
0.39574
0.395675
0.395602
0.395523
0.395436
0.395341
0.395236
0.395121
0.394995
0.394858
0.394709
0.394549
0.394375
0.394187
0.393983
0.393761
0.393517
0.393248
0.392944
0.392542
0.391881
0.391118
0.390261
0.389277
0.388204
0.387029
0.385868
0.384637
0.383412
0.382051
0.380616
0.378943
0.377028
0.374945
0.372651
0.370584
0.37004
0.372279
0.375483
0.379602
0.382734
0.391631
0.413433
0.458049
0.478983
0.506135
0.524844
0.545496
0.560703
0.577695
0.590565
0.604394
0.614126
0.623412
0.626019
0.628241
0.628054
0.625263
0.625262
0.62431
0.622797
0.621658
0.619785
0.617892
0.614942
0.611378
0.605987
0.598768
0.587535
0.569655
0.544782
0.526711
0.523832
0.520817
0.51775
0.514187
0.510576
0.510224
0.510311
0.511971
0.514683
0.519681
0.524892
0.531622
0.537882
0.544414
0.549894
0.554994
0.558782
0.561754
0.563568
0.564166
0.395053
0.395149
0.395179
0.395184
0.395141
0.395085
0.394996
0.3949
0.394783
0.39466
0.394516
0.394358
0.394177
0.39398
0.393757
0.393513
0.39324
0.392937
0.392591
0.392227
0.391825
0.391395
0.390925
0.390423
0.389881
0.389306
0.388692
0.387972
0.386954
0.385991
0.384895
0.383812
0.382584
0.381305
0.379861
0.378282
0.376642
0.374868
0.373111
0.371297
0.370059
0.369861
0.371381
0.374112
0.378173
0.381158
0.38441
0.387186
0.392462
0.403489
0.426077
0.458978
0.482014
0.507833
0.526542
0.546613
0.56226
0.57877
0.592198
0.60573
0.616043
0.624706
0.627984
0.630094
0.629995
0.628037
0.629028
0.62767
0.627019
0.6257
0.624341
0.622245
0.619436
0.615446
0.609799
0.601644
0.589222
0.570008
0.546081
0.531061
0.527344
0.524077
0.519412
0.515322
0.511868
0.511862
0.511947
0.513723
0.516586
0.521469
0.526879
0.533149
0.539124
0.545187
0.550533
0.555491
0.559303
0.562118
0.563706
0.564182
0.393154
0.393234
0.393191
0.393133
0.392984
0.392834
0.392618
0.392409
0.392141
0.391867
0.391537
0.391194
0.390802
0.390398
0.389955
0.389503
0.389025
0.388545
0.388056
0.38755
0.387025
0.386482
0.385905
0.385302
0.384665
0.384001
0.383297
0.382527
0.381383
0.380169
0.378835
0.377454
0.37597
0.374507
0.372948
0.371486
0.370324
0.369668
0.370322
0.371268
0.373598
0.375967
0.378814
0.381513
0.383852
0.385463
0.387535
0.39068
0.3971
0.410344
0.432581
0.460843
0.483084
0.507354
0.526044
0.545842
0.561844
0.578386
0.592262
0.605877
0.616638
0.625231
0.629186
0.631231
0.631189
0.630009
0.631095
0.629378
0.629217
0.627295
0.626017
0.623166
0.620119
0.61523
0.608995
0.599606
0.586205
0.567545
0.548931
0.537345
0.531684
0.527091
0.522566
0.520001
0.518795
0.519138
0.519467
0.521177
0.523756
0.527766
0.532345
0.537769
0.543055
0.548406
0.553046
0.557172
0.560256
0.562494
0.563797
0.564188
0.389453
0.389464
0.389363
0.389223
0.389004
0.38877
0.388483
0.388192
0.387852
0.3875
0.3871
0.386686
0.386226
0.385752
0.385236
0.384703
0.384131
0.383538
0.382904
0.382244
0.381541
0.380802
0.38004
0.379263
0.378467
0.377656
0.376824
0.375997
0.374759
0.373562
0.372382
0.371405
0.370663
0.370526
0.370768
0.371566
0.372878
0.37456
0.376138
0.3783
0.380338
0.382199
0.383776
0.385041
0.386178
0.387595
0.389867
0.394079
0.402223
0.416388
0.437313
0.462658
0.484428
0.507162
0.526121
0.545229
0.561625
0.577874
0.592133
0.605605
0.616537
0.624882
0.629196
0.631204
0.631328
0.630764
0.631536
0.630087
0.629971
0.628001
0.626729
0.623669
0.620522
0.615262
0.608689
0.598572
0.58471
0.566802
0.551134
0.541199
0.534873
0.529328
0.525095
0.522858
0.522224
0.5225
0.52297
0.524587
0.527152
0.530917
0.535232
0.540101
0.54496
0.549826
0.554206
0.558011
0.560799
0.562705
0.563817
0.564156
0.385136
0.3851
0.384975
0.384763
0.384491
0.384165
0.383801
0.383406
0.382972
0.382504
0.381989
0.381442
0.380849
0.380228
0.379566
0.378882
0.378164
0.377429
0.376671
0.375917
0.375168
0.374457
0.373782
0.373159
0.372612
0.3722
0.371981
0.37229
0.372044
0.372485
0.372834
0.373706
0.374553
0.375564
0.376724
0.378094
0.379466
0.38078
0.38199
0.383181
0.384107
0.384935
0.385639
0.386442
0.387534
0.389168
0.392101
0.397396
0.406609
0.420932
0.44053
0.463835
0.484981
0.506463
0.525241
0.543954
0.560397
0.57661
0.590963
0.604456
0.615367
0.623675
0.628185
0.630326
0.630658
0.630384
0.630809
0.629736
0.629368
0.627479
0.625962
0.622782
0.619327
0.613725
0.60663
0.595982
0.582324
0.566491
0.553454
0.544178
0.537502
0.531953
0.528451
0.526857
0.526603
0.526733
0.527295
0.528785
0.531169
0.534509
0.53845
0.542843
0.5473
0.551636
0.555491
0.558774
0.561199
0.562838
0.563812
0.564115
0.380826
0.380673
0.380513
0.380183
0.379855
0.379426
0.379013
0.378532
0.378045
0.377504
0.376955
0.376378
0.375812
0.375256
0.374746
0.374304
0.37397
0.373761
0.373606
0.373588
0.373663
0.373885
0.37421
0.374673
0.375227
0.375869
0.376528
0.377422
0.377663
0.378753
0.379186
0.380285
0.380786
0.38178
0.382331
0.383197
0.383665
0.384349
0.384724
0.385271
0.385596
0.386133
0.386702
0.387573
0.388814
0.390962
0.394603
0.400754
0.410456
0.424518
0.442854
0.464693
0.485103
0.505615
0.524151
0.542433
0.558899
0.574974
0.589403
0.602787
0.613635
0.621841
0.626525
0.628857
0.629461
0.629342
0.62963
0.628885
0.628383
0.626696
0.625022
0.621887
0.61818
0.612395
0.604873
0.594011
0.58076
0.56663
0.555226
0.546369
0.539617
0.534312
0.531297
0.53006
0.529935
0.530023
0.53065
0.532038
0.534302
0.537354
0.540986
0.544987
0.54905
0.552989
0.556495
0.559394
0.56152
0.562942
0.563805
0.564079
0.378
0.377902
0.377859
0.377641
0.377497
0.377251
0.3771
0.376912
0.376838
0.376764
0.376795
0.376845
0.376992
0.377167
0.377424
0.377699
0.378015
0.37833
0.378755
0.379188
0.379696
0.380205
0.380751
0.381282
0.381815
0.382317
0.382803
0.383457
0.383288
0.384044
0.384071
0.384634
0.384655
0.385094
0.385139
0.385487
0.385558
0.385867
0.386007
0.386338
0.386619
0.387132
0.387735
0.388789
0.390358
0.393021
0.397241
0.403915
0.413736
0.427308
0.444503
0.465212
0.484793
0.504448
0.522661
0.540566
0.556988
0.57295
0.587394
0.600678
0.611451
0.619611
0.624463
0.627016
0.627857
0.627865
0.628098
0.627558
0.626984
0.625428
0.623605
0.620444
0.616455
0.610449
0.602587
0.591832
0.579453
0.567004
0.556684
0.548215
0.541689
0.536868
0.534319
0.533377
0.533275
0.533369
0.533968
0.535257
0.537335
0.54011
0.543412
0.547034
0.550715
0.554238
0.557354
0.559912
0.561782
0.563027
0.563795
0.564045
0.378849
0.379296
0.379712
0.380045
0.380381
0.380668
0.380993
0.381301
0.381672
0.382044
0.382479
0.382898
0.383353
0.383773
0.384203
0.384583
0.384955
0.385274
0.385581
0.385826
0.386055
0.386222
0.386372
0.386467
0.386548
0.386585
0.386624
0.386739
0.386329
0.386578
0.386441
0.386594
0.386512
0.386662
0.386617
0.386762
0.386751
0.386937
0.38703
0.387337
0.38763
0.388217
0.388969
0.390268
0.392177
0.395271
0.399899
0.406835
0.416542
0.429517
0.44569
0.465402
0.484167
0.503072
0.52091
0.538467
0.554807
0.570643
0.585073
0.598231
0.60894
0.617084
0.622136
0.62494
0.626028
0.626157
0.626387
0.625994
0.625421
0.623971
0.622069
0.618891
0.614702
0.608551
0.600534
0.590093
0.578617
0.567432
0.55793
0.549897
0.543729
0.539356
0.537119
0.536334
0.536241
0.536354
0.536911
0.538121
0.540019
0.542565
0.545565
0.548858
0.552176
0.55534
0.558104
0.560358
0.562001
0.563097
0.563783
0.564012
0.383253
0.384265
0.385071
0.38587
0.386497
0.387103
0.38759
0.388064
0.388468
0.388873
0.389247
0.389607
0.389921
0.390186
0.390394
0.390534
0.390614
0.390621
0.390573
0.390458
0.390302
0.390094
0.389865
0.389603
0.389341
0.389067
0.388824
0.388659
0.388213
0.388196
0.387961
0.387973
0.387842
0.387912
0.387856
0.387962
0.387946
0.388094
0.388185
0.388487
0.388837
0.389509
0.390438
0.391966
0.394192
0.397604
0.402499
0.409509
0.418966
0.431308
0.446556
0.465303
0.483257
0.50146
0.518895
0.536123
0.552353
0.568066
0.582456
0.595489
0.606151
0.614315
0.619586
0.622663
0.62401
0.624276
0.624512
0.624223
0.623682
0.622307
0.620353
0.617137
0.612786
0.606544
0.598551
0.58863
0.57812
0.567953
0.559124
0.551583
0.545837
0.541884
0.539878
0.539182
0.539083
0.539196
0.539694
0.540808
0.542522
0.544839
0.547544
0.550519
0.553491
0.556313
0.558757
0.560745
0.562189
0.563156
0.563771
0.563982
0.38841
0.389707
0.390691
0.391697
0.392402
0.393094
0.393539
0.393976
0.394238
0.394518
0.394692
0.3949
0.395012
0.395108
0.395098
0.395043
0.394884
0.39467
0.394371
0.394023
0.393615
0.393175
0.392704
0.392224
0.391745
0.391281
0.390856
0.390541
0.390008
0.389798
0.389481
0.38937
0.3892
0.389192
0.389133
0.389196
0.389194
0.389305
0.389421
0.389725
0.390159
0.390927
0.392049
0.393793
0.396296
0.39994
0.405002
0.41196
0.421104
0.432808
0.4472
0.464979
0.482122
0.499636
0.516643
0.533548
0.549648
0.565235
0.579566
0.59248
0.60311
0.611327
0.616841
0.620217
0.621859
0.62229
0.622531
0.622328
0.621847
0.620542
0.618574
0.61534
0.610901
0.604663
0.596848
0.587529
0.577905
0.568587
0.560357
0.553315
0.547972
0.544341
0.542482
0.541826
0.541718
0.541821
0.542264
0.543274
0.544816
0.546912
0.549344
0.552017
0.554669
0.557175
0.559331
0.561081
0.562352
0.563208
0.56376
0.563954
0.392219
0.393678
0.394841
0.396004
0.396842
0.39763
0.398123
0.39857
0.398792
0.399008
0.399087
0.39921
0.399243
0.399282
0.399199
0.399079
0.398833
0.398531
0.398109
0.39763
0.397059
0.396442
0.395781
0.395098
0.394408
0.39373
0.393096
0.392596
0.391878
0.391453
0.391005
0.390744
0.390506
0.390412
0.390338
0.390361
0.390367
0.390456
0.390603
0.390937
0.391475
0.392368
0.393692
0.39565
0.398397
0.402225
0.407384
0.414229
0.423029
0.434112
0.447699
0.464483
0.480793
0.497603
0.514152
0.530729
0.546681
0.562144
0.576405
0.589209
0.599823
0.608116
0.61389
0.617593
0.619569
0.620199
0.620471
0.620339
0.619932
0.618695
0.616744
0.613514
0.609056
0.602917
0.595412
0.586748
0.577943
0.569347
0.561683
0.555126
0.550145
0.546757
0.54498
0.544325
0.5442
0.544282
0.544664
0.54556
0.546934
0.548809
0.550982
0.553367
0.555722
0.557938
0.559837
0.561376
0.562496
0.563255
0.563751
0.563929
0.394676
0.396296
0.397701
0.399087
0.400191
0.401203
0.401922
0.402529
0.402888
0.403173
0.403296
0.403415
0.403466
0.403532
0.403498
0.403402
0.403159
0.40282
0.402318
0.40171
0.40098
0.400196
0.399306
0.398384
0.397418
0.396465
0.395548
0.394806
0.39384
0.393188
0.392565
0.392149
0.391815
0.391627
0.391517
0.391504
0.391515
0.391584
0.391751
0.392115
0.392746
0.393762
0.39527
0.397425
0.400399
0.404405
0.409638
0.416354
0.424809
0.435298
0.448113
0.46387
0.479307
0.495374
0.511422
0.527652
0.543441
0.558785
0.572973
0.585679
0.596289
0.604672
0.610717
0.614774
0.617135
0.618017
0.618353
0.618285
0.617965
0.616809
0.614914
0.61173
0.607333
0.601387
0.594283
0.586275
0.578176
0.570242
0.563122
0.557015
0.552337
0.549112
0.54736
0.546673
0.546519
0.546575
0.546893
0.54767
0.54888
0.550541
0.55247
0.554582
0.556663
0.558615
0.560284
0.561636
0.562624
0.563297
0.563743
0.563907
0.396467
0.398254
0.399911
0.401562
0.403001
0.404339
0.405416
0.406335
0.406986
0.407482
0.407771
0.407973
0.40807
0.40817
0.408189
0.408132
0.407926
0.407578
0.407049
0.406365
0.405518
0.404521
0.40338
0.402149
0.400851
0.399547
0.398291
0.397257
0.395956
0.39499
0.394103
0.393449
0.392964
0.392644
0.392496
0.392439
0.392459
0.392506
0.39269
0.393077
0.393798
0.394951
0.396682
0.399101
0.402327
0.406478
0.411739
0.418355
0.426501
0.436428
0.448473
0.46318
0.477694
0.492953
0.508437
0.524286
0.539894
0.555122
0.569239
0.581863
0.592485
0.600971
0.607293
0.611723
0.614526
0.615737
0.616192
0.616184
0.615964
0.614912
0.613114
0.610025
0.605769
0.600096
0.593452
0.586079
0.578601
0.571285
0.564682
0.558982
0.554549
0.551421
0.549642
0.548889
0.548687
0.548715
0.548963
0.549618
0.550667
0.552119
0.553817
0.555676
0.557505
0.559216
0.560682
0.561867
0.562738
0.563335
0.563736
0.563887
0.397946
0.399868
0.40173
0.403618
0.405367
0.40705
0.408527
0.409845
0.4109
0.411746
0.412327
0.412723
0.412934
0.413064
0.413143
0.413173
0.413069
0.412806
0.412326
0.411621
0.410665
0.409476
0.408068
0.406493
0.404797
0.403054
0.401339
0.399863
0.398162
0.396817
0.395646
0.394724
0.394084
0.393593
0.393374
0.393261
0.39328
0.393306
0.393486
0.393876
0.394638
0.395866
0.397724
0.400323
0.4038
0.408242
0.413728
0.420284
0.428144
0.437562
0.448822
0.462473
0.476012
0.490382
0.505214
0.520622
0.536026
0.551155
0.565226
0.577788
0.588429
0.597009
0.603594
0.608398
0.611694
0.613341
0.614017
0.614046
0.613949
0.613033
0.611381
0.608448
0.604408
0.599073
0.592917
0.586147
0.579238
0.572486
0.56636
0.561022
0.556783
0.5537
0.551852
0.550987
0.55071
0.55071
0.550884
0.551415
0.552303
0.553556
0.555035
0.556656
0.558257
0.559751
0.561034
0.562073
0.562841
0.563371
0.563732
0.56387
0.399249
0.401262
0.40326
0.405315
0.407294
0.409257
0.411086
0.412807
0.414312
0.415613
0.416635
0.417404
0.417901
0.418198
0.418339
0.418432
0.41844
0.418302
0.417935
0.417297
0.416334
0.41504
0.413413
0.411496
0.409351
0.40707
0.404766
0.4027
0.400506
0.398665
0.397136
0.395876
0.395057
0.394365
0.394035
0.393847
0.39384
0.393889
0.39406
0.394478
0.395272
0.396582
0.398544
0.401289
0.404929
0.409552
0.415217
0.421941
0.429727
0.438689
0.4492
0.461784
0.474281
0.48764
0.501694
0.51657
0.531731
0.546766
0.560797
0.573319
0.584019
0.592714
0.599571
0.604758
0.608594
0.610782
0.611817
0.611915
0.61195
0.61121
0.609749
0.60704
0.603281
0.598335
0.592668
0.586429
0.580072
0.573846
0.568157
0.563138
0.559053
0.55597
0.554007
0.552993
0.552607
0.552563
0.552662
0.553071
0.553801
0.554862
0.556135
0.557539
0.558928
0.560226
0.561345
0.562255
0.562933
0.563404
0.563729
0.563856
0.400408
0.402469
0.404545
0.406694
0.40881
0.410953
0.413044
0.415092
0.41699
0.41875
0.420285
0.421576
0.422559
0.423246
0.423638
0.423817
0.423873
0.423877
0.423688
0.423232
0.422401
0.421143
0.419405
0.417204
0.414589
0.411678
0.40863
0.405789
0.403019
0.400523
0.398575
0.396852
0.395801
0.394909
0.394476
0.39422
0.394156
0.394235
0.394425
0.394836
0.395645
0.397005
0.399059
0.401937
0.405741
0.410542
0.416364
0.423203
0.431027
0.439825
0.44965
0.461204
0.472655
0.484921
0.498046
0.512244
0.527088
0.542063
0.556153
0.56868
0.579432
0.588204
0.595277
0.600789
0.605153
0.607965
0.609541
0.609832
0.610001
0.609474
0.608251
0.605835
0.602409
0.597886
0.592701
0.586946
0.581092
0.575344
0.570053
0.56532
0.561364
0.558253
0.556133
0.554937
0.554405
0.554287
0.554313
0.5546
0.555174
0.556051
0.557129
0.558328
0.559525
0.560646
0.561618
0.562414
0.563013
0.563434
0.563728
0.563844
0.401409
0.403485
0.405599
0.407785
0.40996
0.412191
0.414432
0.416673
0.418818
0.420891
0.42284
0.424628
0.426175
0.427435
0.428346
0.428911
0.429168
0.429225
0.429214
0.429024
0.428482
0.427466
0.425835
0.423522
0.420503
0.41689
0.412898
0.409021
0.405654
0.402211
0.399917
0.397578
0.39631
0.395195
0.394659
0.394359
0.394293
0.394351
0.394526
0.394923
0.395741
0.397131
0.399247
0.402228
0.406169
0.41114
0.417133
0.424116
0.431985
0.440651
0.450053
0.460664
0.470981
0.481972
0.493958
0.5073
0.521715
0.536608
0.550723
0.563279
0.574191
0.583117
0.590494
0.596383
0.601334
0.604844
0.607167
0.607879
0.608127
0.607842
0.606927
0.60485
0.601812
0.597724
0.592988
0.587707
0.582322
0.577011
0.572079
0.567598
0.563748
0.560584
0.55827
0.556847
0.556122
0.555889
0.555856
0.556021
0.556442
0.557138
0.558031
0.559038
0.560057
0.561016
0.561857
0.562549
0.563079
0.563456
0.563724
0.563834
0.40221
0.404284
0.40642
0.408618
0.410828
0.413092
0.415365
0.417653
0.4199
0.422134
0.424309
0.42643
0.428428
0.430269
0.431858
0.433133
0.434011
0.434485
0.434612
0.43456
0.434359
0.433738
0.43245
0.43025
0.426955
0.42258
0.417395
0.412125
0.40836
0.403547
0.400899
0.398023
0.396491
0.395145
0.394494
0.394143
0.394091
0.394172
0.394309
0.394734
0.395541
0.396968
0.399112
0.402174
0.406222
0.411348
0.41751
0.424668
0.432658
0.441303
0.450395
0.460251
0.469701
0.479564
0.490255
0.50245
0.516192
0.531027
0.545477
0.558155
0.569202
0.578168
0.585715
0.591748
0.597125
0.601216
0.604464
0.605911
0.606422
0.60634
0.605797
0.604093
0.601494
0.597835
0.593504
0.58864
0.583656
0.578724
0.574106
0.569849
0.566098
0.562889
0.560405
0.558722
0.557769
0.557383
0.557282
0.557343
0.557626
0.558151
0.558866
0.559692
0.560546
0.561358
0.562078
0.562675
0.563138
0.563473
0.563718
0.563823
0.402771
0.40484
0.406991
0.40919
0.411416
0.413674
0.415943
0.418227
0.420504
0.422786
0.425052
0.427307
0.42952
0.431681
0.43373
0.435614
0.437219
0.438441
0.439169
0.439401
0.439288
0.439024
0.43823
0.436497
0.433372
0.428475
0.421842
0.414458
0.410433
0.404302
0.401194
0.397861
0.396099
0.394578
0.393867
0.393505
0.393477
0.39361
0.393762
0.394227
0.395048
0.396501
0.398689
0.40181
0.405934
0.411161
0.417463
0.424766
0.432886
0.441548
0.450407
0.459452
0.467594
0.475882
0.485098
0.496012
0.508963
0.523654
0.538292
0.550998
0.562565
0.571702
0.579735
0.586177
0.592276
0.59714
0.601528
0.60395
0.605105
0.605064
0.60493
0.603645
0.601481
0.598213
0.594301
0.589845
0.585268
0.580682
0.576346
0.572291
0.568643
0.565401
0.562619
0.56059
0.559332
0.558747
0.558555
0.558535
0.558697
0.559072
0.559624
0.560294
0.561008
0.561695
0.562308
0.562814
0.563208
0.563497
0.563715
0.563814
0.402922
0.404966
0.407129
0.409307
0.411539
0.413778
0.416047
0.418314
0.420591
0.422858
0.425122
0.427371
0.429605
0.431816
0.433993
0.436123
0.438167
0.440068
0.441707
0.442926
0.443538
0.443498
0.443077
0.442035
0.439461
0.434279
0.425587
0.41467
0.410986
0.403882
0.400456
0.39683
0.394894
0.393284
0.39256
0.392218
0.392257
0.392468
0.392694
0.393199
0.394135
0.395577
0.397844
0.400998
0.405216
0.410514
0.416936
0.424374
0.432661
0.441481
0.450435
0.459461
0.46734
0.474721
0.482354
0.491344
0.502499
0.516474
0.532226
0.545438
0.55721
0.566428
0.574728
0.581053
0.587374
0.592403
0.597583
0.601269
0.603634
0.603919
0.604111
0.603285
0.601496
0.598611
0.595004
0.590881
0.586576
0.582259
0.578155
0.574254
0.570649
0.567318
0.564582
0.562295
0.560706
0.559852
0.559562
0.55949
0.559549
0.559797
0.560236
0.560798
0.561419
0.562018
0.562552
0.562983
0.563314
0.563555
0.563741
0.563828
0.402098
0.404114
0.406294
0.408443
0.410686
0.412897
0.415169
0.417408
0.419683
0.421925
0.424186
0.426414
0.428647
0.43085
0.433051
0.435223
0.437374
0.439466
0.441459
0.443289
0.44473
0.445473
0.445239
0.444362
0.442408
0.43781
0.42826
0.412131
0.409724
0.401762
0.397636
0.393918
0.391817
0.390336
0.38964
0.389443
0.389577
0.389967
0.390329
0.390884
0.391851
0.393397
0.39568
0.398972
0.403276
0.408726
0.415296
0.422909
0.431365
0.440329
0.449311
0.457913
0.464768
0.470422
0.47497
0.480423
0.489472
0.503662
0.52031
0.533535
0.545979
0.555892
0.564897
0.571937
0.579323
0.585718
0.59273
0.598516
0.602678
0.603931
0.604057
0.603738
0.602415
0.599932
0.596702
0.592829
0.588757
0.584606
0.580604
0.576799
0.573337
0.570172
0.567046
0.564103
0.561837
0.560496
0.560036
0.559929
0.559965
0.560161
0.56056
0.561076
0.561671
0.562244
0.56276
0.563164
0.563465
0.563676
0.563833
0.563904
0.398278
0.400254
0.402424
0.40452
0.406744
0.408897
0.411146
0.413329
0.41558
0.417766
0.419995
0.422163
0.424346
0.426456
0.428539
0.430522
0.432449
0.434298
0.436134
0.437931
0.439729
0.441442
0.442823
0.443253
0.4422
0.439683
0.430441
0.405881
0.404484
0.396752
0.392129
0.38852
0.386475
0.385107
0.384647
0.384631
0.385106
0.385696
0.386395
0.387171
0.388285
0.389948
0.392619
0.395972
0.400471
0.406021
0.412804
0.420546
0.429206
0.438356
0.447664
0.456887
0.464508
0.470603
0.475425
0.480765
0.488415
0.499973
0.515112
0.529356
0.542662
0.552164
0.56114
0.567922
0.574885
0.580785
0.587359
0.593532
0.599969
0.602543
0.602624
0.602404
0.601048
0.598716
0.595578
0.591907
0.588009
0.584108
0.580376
0.57676
0.573328
0.569885
0.566972
0.564192
0.561855
0.560175
0.559572
0.559473
0.559572
0.559799
0.560253
0.560807
0.561465
0.562097
0.562689
0.563166
0.563534
0.563778
0.56396
0.564048
0.384673
0.386493
0.38844
0.390317
0.392272
0.394143
0.396075
0.397909
0.399789
0.401564
0.403372
0.40507
0.406774
0.408344
0.409889
0.411314
0.412743
0.414093
0.415445
0.416733
0.418113
0.419568
0.421032
0.422047
0.421547
0.42002
0.415217
0.397428
0.394784
0.386308
0.381471
0.377093
0.375352
0.373341
0.373305
0.372799
0.373766
0.374073
0.375344
0.37596
0.377627
0.379088
0.381882
0.385141
0.389953
0.395891
0.403001
0.411117
0.419841
0.429075
0.438175
0.447141
0.455116
0.461577
0.465504
0.465905
0.466526
0.468265
0.487652
0.512879
0.526952
0.538105
0.547104
0.555325
0.562673
0.569996
0.578641
0.58808
0.598285
0.602075
0.601073
0.601562
0.600112
0.597091
0.593555
0.589849
0.585836
0.581975
0.578286
0.574627
0.571407
0.568359
0.565353
0.562355
0.559081
0.55641
0.555449
0.555547
0.555905
0.556471
0.557377
0.558184
0.559053
0.559958
0.560822
0.561633
0.562355
0.562993
0.563527
0.563985
0.245934
0.245959
0.245955
0.245958
0.245957
0.245957
0.245957
0.245958
0.245958
0.245958
0.245959
0.245959
0.245959
0.245959
0.245959
0.24596
0.24596
0.24596
0.24596
0.24596
0.24592
0.245956
0.245953
0.245956
0.245955
0.245956
0.245957
0.245958
0.245958
0.245959
0.24596
0.24596
0.245961
0.245961
0.245961
0.245962
0.245962
0.245962
0.245962
0.245962
0.245902
0.24595
0.245948
0.245952
0.245952
0.245954
0.245955
0.245957
0.245959
0.245961
0.245962
0.245963
0.245964
0.245965
0.245966
0.245967
0.245967
0.245968
0.245968
0.245968
0.245882
0.245944
0.245944
0.245949
0.24595
0.245952
0.245954
0.245957
0.24596
0.245962
0.245964
0.245966
0.245968
0.245969
0.24597
0.245971
0.245972
0.245973
0.245973
0.245974
0.245862
0.245936
0.245939
0.245945
0.245946
0.24595
0.245953
0.245957
0.245961
0.245964
0.245967
0.24597
0.245972
0.245974
0.245976
0.245978
0.245979
0.24598
0.24598
0.245981
0.245839
0.245926
0.245932
0.245939
0.245942
0.245947
0.245951
0.245957
0.245962
0.245966
0.245971
0.245974
0.245978
0.245981
0.245983
0.245986
0.245987
0.245989
0.24599
0.245991
0.245814
0.245915
0.245924
0.245932
0.245936
0.245943
0.245949
0.245957
0.245963
0.245969
0.245975
0.24598
0.245985
0.245989
0.245992
0.245996
0.245998
0.246
0.246001
0.246002
0.245786
0.245901
0.245913
0.245923
0.24593
0.245938
0.245947
0.245956
0.245965
0.245973
0.24598
0.245987
0.245993
0.245999
0.246003
0.246007
0.246011
0.246013
0.246015
0.246016
0.245756
0.245884
0.245901
0.245913
0.245922
0.245933
0.245944
0.245956
0.245967
0.245977
0.245986
0.245995
0.246003
0.24601
0.246016
0.246021
0.246025
0.246028
0.24603
0.246032
0.245722
0.245865
0.245886
0.245901
0.245913
0.245927
0.245942
0.245956
0.24597
0.245982
0.245994
0.246004
0.246014
0.246023
0.24603
0.246037
0.246042
0.246046
0.246048
0.24605
0.245687
0.245843
0.245869
0.245888
0.245903
0.245921
0.245939
0.245957
0.245973
0.245988
0.246002
0.246015
0.246027
0.246037
0.246047
0.246054
0.246061
0.246065
0.246068
0.24607
0.245647
0.245818
0.24585
0.245872
0.245892
0.245914
0.245935
0.245957
0.245976
0.245994
0.246011
0.246027
0.246041
0.246054
0.246065
0.246074
0.246082
0.246087
0.246091
0.246093
0.245606
0.24579
0.245827
0.245855
0.24588
0.245906
0.245932
0.245958
0.24598
0.246002
0.246022
0.246041
0.246058
0.246073
0.246085
0.246096
0.246105
0.246111
0.246115
0.246118
0.24556
0.245759
0.245802
0.245836
0.245866
0.245898
0.245929
0.245959
0.245986
0.246011
0.246035
0.246056
0.246076
0.246093
0.246108
0.246121
0.246131
0.246138
0.246142
0.246145
0.245511
0.245724
0.245774
0.245815
0.245851
0.24589
0.245927
0.245961
0.245992
0.246021
0.246049
0.246074
0.246096
0.246116
0.246133
0.246148
0.246159
0.246167
0.246172
0.246176
0.245456
0.245685
0.245743
0.245792
0.245836
0.245881
0.245925
0.245964
0.246
0.246034
0.246065
0.246094
0.246119
0.246142
0.246161
0.246178
0.24619
0.2462
0.246206
0.246209
0.245396
0.245641
0.245707
0.245766
0.245819
0.245873
0.245923
0.245968
0.246009
0.246048
0.246084
0.246116
0.246145
0.246171
0.246193
0.246211
0.246225
0.246236
0.246242
0.246246
0.245323
0.245591
0.245667
0.245739
0.245801
0.245865
0.245923
0.245973
0.24602
0.246065
0.246105
0.246142
0.246175
0.246203
0.246227
0.246248
0.246264
0.246275
0.246282
0.246286
0.245242
0.245535
0.245621
0.245709
0.245783
0.245858
0.245924
0.24598
0.246034
0.246084
0.24613
0.246171
0.246207
0.246239
0.246266
0.246289
0.246306
0.246319
0.246327
0.246331
0.245146
0.245471
0.24557
0.245679
0.245764
0.245853
0.245925
0.24599
0.246051
0.246108
0.246159
0.246204
0.246245
0.24628
0.24631
0.246334
0.246353
0.246367
0.246376
0.246381
0.245036
0.2454
0.245512
0.245647
0.245746
0.245849
0.245929
0.246003
0.246072
0.246135
0.246192
0.246242
0.246287
0.246326
0.246358
0.246385
0.246406
0.246421
0.24643
0.246435
0.244891
0.245321
0.245445
0.245616
0.245728
0.245847
0.245936
0.24602
0.246097
0.246167
0.24623
0.246286
0.246335
0.246377
0.246412
0.246441
0.246464
0.24648
0.246489
0.246495
0.244709
0.245235
0.24537
0.245587
0.245712
0.245848
0.245946
0.246042
0.246128
0.246206
0.246275
0.246336
0.246389
0.246434
0.246473
0.246504
0.246528
0.246545
0.246555
0.246561
0.244479
0.245147
0.245285
0.245564
0.245698
0.245852
0.245961
0.24607
0.246165
0.246251
0.246326
0.246392
0.24645
0.246499
0.24654
0.246573
0.246599
0.246617
0.246628
0.246634
0.244165
0.245065
0.245192
0.245548
0.245686
0.245861
0.245983
0.246105
0.24621
0.246303
0.246385
0.246457
0.246519
0.246571
0.246615
0.24665
0.246677
0.246697
0.246707
0.246714
0.243872
0.244994
0.2451
0.24554
0.24568
0.245877
0.246014
0.24615
0.246264
0.246365
0.246453
0.24653
0.246596
0.246651
0.246697
0.246735
0.246763
0.246784
0.246794
0.246802
0.243686
0.244933
0.245025
0.245539
0.245677
0.245905
0.246054
0.246204
0.246327
0.246437
0.246531
0.246612
0.246682
0.24674
0.246789
0.246827
0.246857
0.246878
0.246889
0.246897
0.243577
0.244888
0.244978
0.245542
0.245681
0.245945
0.246106
0.24627
0.246401
0.246519
0.246618
0.246704
0.246777
0.246838
0.246888
0.246928
0.246959
0.246981
0.246991
0.247
0.243522
0.244865
0.244956
0.245552
0.245702
0.245999
0.246173
0.24635
0.246488
0.246612
0.246717
0.246806
0.246882
0.246945
0.246997
0.247038
0.247069
0.247092
0.247102
0.247111
0.243494
0.244858
0.244947
0.24558
0.245745
0.24607
0.246255
0.246444
0.246589
0.246719
0.246827
0.246919
0.246997
0.247062
0.247115
0.247157
0.247188
0.247211
0.247222
0.24723
0.243483
0.244864
0.24496
0.245638
0.245816
0.246161
0.246354
0.246554
0.246704
0.246839
0.24695
0.247044
0.247123
0.247189
0.247242
0.247285
0.247316
0.247339
0.247349
0.247357
0.243526
0.244912
0.24502
0.245733
0.245918
0.246277
0.246473
0.246681
0.246835
0.246973
0.247086
0.247181
0.247261
0.247326
0.247379
0.247421
0.247453
0.247475
0.247485
0.247493
0.243665
0.245029
0.245142
0.245871
0.246056
0.24642
0.246614
0.246827
0.246982
0.247122
0.247235
0.247331
0.247409
0.247474
0.247527
0.247568
0.247598
0.24762
0.24763
0.247637
0.243899
0.245224
0.245332
0.246052
0.246231
0.246592
0.24678
0.246994
0.247146
0.247285
0.247396
0.247491
0.247569
0.247632
0.247683
0.247723
0.247753
0.247773
0.247782
0.247789
0.244213
0.245486
0.245583
0.246277
0.246444
0.246793
0.246971
0.24718
0.247327
0.247463
0.247571
0.247663
0.247738
0.2478
0.247849
0.247887
0.247915
0.247934
0.247942
0.247948
0.244581
0.2458
0.245886
0.246539
0.246692
0.247021
0.247186
0.247387
0.247525
0.247656
0.247758
0.247846
0.247917
0.247976
0.248022
0.248058
0.248085
0.248102
0.248109
0.248115
0.244993
0.246153
0.246228
0.246835
0.246971
0.247275
0.247425
0.247613
0.24774
0.247862
0.247958
0.24804
0.248106
0.24816
0.248203
0.248237
0.248261
0.248277
0.248282
0.248287
0.245431
0.246532
0.2466
0.247156
0.247276
0.247551
0.247684
0.247856
0.24797
0.248082
0.248168
0.248243
0.248303
0.248353
0.248391
0.248421
0.248442
0.248456
0.24846
0.248465
0.245891
0.246931
0.246994
0.247499
0.247603
0.247845
0.24796
0.248113
0.248213
0.248313
0.248389
0.248455
0.248508
0.248551
0.248585
0.248611
0.248629
0.248641
0.248643
0.248647
0.246366
0.247346
0.247405
0.247857
0.247946
0.248154
0.248251
0.248383
0.248468
0.248553
0.248618
0.248674
0.248719
0.248756
0.248784
0.248806
0.24882
0.248829
0.24883
0.248832
0.246857
0.247772
0.247829
0.248226
0.248301
0.248474
0.248553
0.248662
0.248731
0.248801
0.248853
0.248899
0.248936
0.248965
0.248987
0.249004
0.249014
0.249021
0.249019
0.249021
0.247358
0.248209
0.248262
0.248605
0.248664
0.248803
0.248864
0.248949
0.249001
0.249054
0.249094
0.249129
0.249155
0.249177
0.249193
0.249204
0.249211
0.249214
0.249211
0.249211
0.24787
0.248652
0.2487
0.248992
0.249032
0.249138
0.24918
0.24924
0.249275
0.249312
0.249338
0.249361
0.249378
0.249391
0.2494
0.249405
0.249408
0.249408
0.249403
0.249402
0.248388
0.2491
0.249141
0.249383
0.249403
0.249477
0.249499
0.249534
0.249552
0.249571
0.249583
0.249594
0.249601
0.249605
0.249607
0.249607
0.249605
0.249602
0.249595
0.249593
0.248913
0.249551
0.249584
0.249778
0.249774
0.249817
0.249818
0.249829
0.249829
0.249831
0.249829
0.249827
0.249823
0.249819
0.249813