/*--------------------------------*- C++ -*----------------------------------*\
  =========                 |
  \\      /  F ield         | OpenFOAM: The Open Source CFD Toolbox
   \\    /   O peration     | Website:  https://openfoam.org
    \\  /    A nd           | Version:  7
     \\/     M anipulation  |
\*---------------------------------------------------------------------------*/
FoamFile
{
    version     2.0;
    format      ascii;
    class       volVectorField;
    location    "0.15";
    object      U;
}
// * * * * * * * * * * * * * * * * * * * * * * * * * * * * * * * * * * * * * //

dimensions      [0 1 -1 0 0 0 0];

internalField   nonuniform List<vector> 
48560
(
(221.949 -5.36779 -4.90801e-11)
(221.757 -6.19699 -5.89227e-11)
(221.588 -7.02839 -7.81897e-11)
(221.44 -7.8404 -1.0014e-10)
(221.308 -8.63331 -1.31241e-10)
(221.188 -9.40126 -1.65916e-10)
(221.077 -10.1471 -2.09113e-10)
(220.971 -10.8665 -2.55716e-10)
(220.869 -11.5639 -3.09336e-10)
(220.769 -12.2367 -3.65499e-10)
(220.669 -12.8903 -4.26051e-10)
(220.568 -13.5233 -4.87279e-10)
(220.465 -14.1408 -5.49544e-10)
(220.358 -14.7412 -6.09896e-10)
(220.246 -15.3284 -6.66335e-10)
(220.127 -15.9006 -7.17118e-10)
(219.999 -16.4603 -7.5896e-10)
(219.859 -17.0061 -7.89901e-10)
(219.707 -17.5399 -8.06841e-10)
(219.537 -18.0609 -8.07813e-10)
(219.349 -18.5706 -7.89946e-10)
(219.137 -19.0684 -7.5115e-10)
(218.897 -19.555 -6.89681e-10)
(218.624 -20.0296 -6.02833e-10)
(218.315 -20.4915 -4.92866e-10)
(217.962 -20.9396 -3.56737e-10)
(217.561 -21.3724 -1.98e-10)
(217.043 -21.8648 1.70594e-11)
(216.289 -22.4138 3.11571e-10)
(215.396 -22.9119 5.9613e-10)
(214.309 -23.3846 8.82318e-10)
(212.966 -23.8067 1.16004e-09)
(211.284 -24.1916 1.37837e-09)
(209.084 -24.5151 1.53885e-09)
(206.06 -24.7615 1.44295e-09)
(202.494 -24.8962 1.19457e-09)
(198.256 -24.8756 5.6528e-10)
(193.605 -24.7459 -1.40182e-10)
(188.791 -24.453 -1.37812e-09)
(184.858 -24.0503 -2.54088e-09)
(180.814 -23.2554 -4.16592e-09)
(176.737 -22.6197 -4.55084e-09)
(172.881 -21.453 -5.91406e-09)
(169.151 -20.0217 -6.40551e-09)
(165.807 -18.7129 -7.02806e-09)
(165.085 -16.0968 -9.50579e-09)
(171.773 -12.2475 -1.25242e-08)
(191.392 -6.88444 -1.71194e-08)
(221.311 -4.08027 -2.21837e-08)
(250.057 -7.78864 -2.61628e-08)
(271.686 -31.4682 -2.92627e-08)
(263.864 -74.1569 -3.08645e-08)
(229.269 -57.6507 -2.97289e-08)
(214.681 -60.785 -2.98151e-08)
(195.662 -51.6236 -2.92096e-08)
(183.878 -51.0943 -2.92489e-08)
(165.481 -43.5363 -2.86463e-08)
(153.75 -41.3576 -2.86608e-08)
(133.696 -34.3428 -2.80033e-08)
(121.444 -31.2416 -2.80414e-08)
(99.3226 -24.1236 -2.73124e-08)
(85.6833 -20.417 -2.7308e-08)
(66.0752 -11.0081 -2.64253e-08)
(66.3464 -8.54314 -2.67596e-08)
(55.7813 -5.57964 -2.6288e-08)
(52.6452 1.12768 -2.6074e-08)
(56.5746 2.22469 -2.63181e-08)
(58.8228 4.44235 -2.65358e-08)
(60.5566 6.50867 -2.67414e-08)
(63.5756 8.64361 -2.70256e-08)
(67.9237 11.4707 -2.74353e-08)
(73.4448 14.9745 -2.78842e-08)
(80.3088 19.2409 -2.83877e-08)
(88.73 24.4694 -2.89284e-08)
(98.9292 30.8338 -2.95115e-08)
(111.36 38.4929 -3.01216e-08)
(127.427 48.2366 -3.07973e-08)
(149.439 61.6849 -3.15087e-08)
(182.285 78.9865 -3.22221e-08)
(220.441 84.7198 -3.28707e-08)
(259.689 66.492 -3.37744e-08)
(254.786 60.4473 -3.4022e-08)
(246.368 53.3836 -3.43877e-08)
(251.804 56.0634 -3.43967e-08)
(256.212 56.6906 -3.46413e-08)
(267.566 53.7093 -3.5387e-08)
(271.759 43.0845 -3.5557e-08)
(275.783 36.6797 -3.59251e-08)
(275.79 26.9355 -3.60928e-08)
(275.43 19.8338 -3.63779e-08)
(273.264 14.3847 -3.64785e-08)
(270.017 8.44321 -3.66559e-08)
(266.521 3.74695 -3.68049e-08)
(263.136 -0.00116728 -3.69451e-08)
(260.008 -3.04811 -3.70517e-08)
(257.305 -5.51271 -3.71569e-08)
(255.075 -7.47895 -3.72369e-08)
(253.411 -8.90357 -3.73003e-08)
(252.353 -9.71777 -3.73461e-08)
(252.112 -9.95824 -3.73698e-08)
(221.194 -5.08796 -5.89792e-10)
(221.011 -5.94579 -6.18046e-10)
(220.844 -6.80036 -6.46909e-10)
(220.708 -7.64517 -6.73459e-10)
(220.58 -8.46265 -6.99101e-10)
(220.469 -9.26027 -7.18661e-10)
(220.358 -10.0284 -7.35801e-10)
(220.253 -10.7749 -7.43072e-10)
(220.143 -11.4974 -7.45638e-10)
(220.03 -12.2044 -7.3455e-10)
(219.911 -12.8958 -7.18488e-10)
(219.785 -13.5731 -6.8774e-10)
(219.649 -14.235 -6.47546e-10)
(219.501 -14.8798 -5.90192e-10)
(219.337 -15.5071 -5.19758e-10)
(219.157 -16.1141 -4.31277e-10)
(218.955 -16.7021 -3.28202e-10)
(218.731 -17.2693 -2.08687e-10)
(218.48 -17.8192 -7.67923e-11)
(218.2 -18.3516 6.61652e-11)
(217.885 -18.8698 2.22311e-10)
(217.531 -19.3712 3.86037e-10)
(217.129 -19.8553 5.60038e-10)
(216.674 -20.3193 7.35564e-10)
(216.149 -20.7628 9.17547e-10)
(215.54 -21.1841 1.09068e-09)
(214.829 -21.5814 1.25761e-09)
(213.851 -22.0214 1.41496e-09)
(212.236 -22.4905 1.51306e-09)
(210.281 -22.9014 1.40494e-09)
(208.021 -23.2593 1.20329e-09)
(205.371 -23.5389 6.85025e-10)
(202.473 -23.7666 1.11451e-10)
(199.348 -23.9086 -9.01496e-10)
(196.474 -23.9688 -1.93653e-09)
(193.658 -23.8484 -3.34186e-09)
(191.149 -23.7678 -3.79568e-09)
(188.66 -23.5225 -5.07404e-09)
(186.656 -23.2634 -5.89871e-09)
(184.848 -22.7267 -6.77082e-09)
(183.409 -22.2536 -7.20754e-09)
(183.044 -21.7385 -8.1555e-09)
(184.92 -20.8172 -1.09421e-08)
(190.63 -20.8875 -1.25653e-08)
(204.552 -21.4822 -1.69179e-08)
(229.838 -22.8102 -2.20621e-08)
(255.639 -23.8667 -2.63496e-08)
(277.809 -24.7591 -2.96262e-08)
(288.945 -26.514 -3.10006e-08)
(295.842 -34.6625 -3.23933e-08)
(287.45 -53.5423 -3.27544e-08)
(275.131 -72.0742 -3.3246e-08)
(246.997 -67.1274 -3.26849e-08)
(235.294 -67.3323 -3.26016e-08)
(216.331 -61.472 -3.22363e-08)
(206.916 -58.394 -3.20996e-08)
(189.502 -52.649 -3.17876e-08)
(179.974 -48.589 -3.15825e-08)
(162.665 -42.4782 -3.12969e-08)
(152.775 -37.7518 -3.10363e-08)
(136.166 -31.2762 -3.07786e-08)
(125.728 -26.056 -3.03939e-08)
(113.384 -16.8047 -3.00707e-08)
(111.847 -12.2644 -2.9851e-08)
(107.958 -6.68251 -2.98562e-08)
(105.468 1.30448 -2.93719e-08)
(111.121 3.49158 -2.98208e-08)
(113.938 8.65578 -2.99019e-08)
(116.836 11.7532 -3.01495e-08)
(121.023 15.5199 -3.03249e-08)
(124.798 18.9556 -3.06287e-08)
(130.436 23.1842 -3.08755e-08)
(135.909 27.5026 -3.12295e-08)
(143.594 32.9526 -3.15411e-08)
(151.846 39.1091 -3.1947e-08)
(163.025 46.9511 -3.2327e-08)
(176.868 56.9038 -3.28062e-08)
(197.31 71.4791 -3.32765e-08)
(221.301 90.2734 -3.38535e-08)
(241.908 94.6583 -3.4458e-08)
(258.388 73.9818 -3.5029e-08)
(263.722 63.9367 -3.55067e-08)
(266.057 61.5187 -3.57051e-08)
(270.263 62.6657 -3.61613e-08)
(272.857 63.4661 -3.59431e-08)
(275.839 59.6065 -3.69409e-08)
(277.533 51.0351 -3.65129e-08)
(279.534 43.4012 -3.72391e-08)
(278.851 33.3397 -3.6853e-08)
(278.005 24.7954 -3.75723e-08)
(274.971 16.7012 -3.71523e-08)
(272.279 10.845 -3.76954e-08)
(268.296 5.71674 -3.73672e-08)
(265.215 1.9854 -3.77603e-08)
(261.552 -1.19583 -3.74905e-08)
(258.961 -3.59794 -3.77637e-08)
(256.277 -5.67091 -3.755e-08)
(254.712 -7.14225 -3.77102e-08)
(253.724 -7.74749 -3.76014e-08)
(253.359 -7.93817 -3.76237e-08)
(219.991 -4.79962 -1.82265e-10)
(219.796 -5.71133 -1.57163e-10)
(219.579 -6.62108 -1.03996e-10)
(219.427 -7.52543 -6.27617e-11)
(219.249 -8.39309 3.88819e-12)
(219.11 -9.2422 6.1781e-11)
(218.941 -10.0545 1.41825e-10)
(218.791 -10.8542 2.16557e-10)
(218.607 -11.6305 3.09385e-10)
(218.427 -12.3961 3.99063e-10)
(218.21 -13.1356 5.0475e-10)
(217.984 -13.8555 6.1073e-10)
(217.72 -14.5414 7.26664e-10)
(217.432 -15.199 8.41204e-10)
(217.096 -15.8191 9.56897e-10)
(216.716 -16.4094 1.06488e-09)
(216.265 -16.9672 1.16018e-09)
(215.735 -17.502 1.23312e-09)
(215.09 -18.0149 1.26626e-09)
(214.4 -18.5117 1.28298e-09)
(213.614 -18.9919 1.25256e-09)
(212.772 -19.4574 1.18927e-09)
(211.836 -19.9046 1.06278e-09)
(210.832 -20.3305 9.2048e-10)
(209.732 -20.7366 6.7657e-10)
(208.562 -21.1166 4.14057e-10)
(207.319 -21.4732 2.74728e-11)
(205.835 -21.8559 -4.55025e-10)
(203.896 -22.2597 -1.32139e-09)
(202.312 -22.6013 -2.15661e-09)
(200.523 -22.8638 -3.27245e-09)
(199.027 -23.0901 -3.59873e-09)
(197.417 -23.2613 -4.62392e-09)
(196.14 -23.3987 -5.19838e-09)
(194.948 -23.4173 -5.95218e-09)
(193.892 -23.3377 -6.42762e-09)
(193.277 -23.1708 -7.12904e-09)
(193.12 -22.9854 -8.07686e-09)
(194.534 -22.8285 -1.00623e-08)
(197.558 -23.0408 -1.12232e-08)
(204.16 -23.6031 -1.3762e-08)
(215.888 -24.7031 -1.69603e-08)
(233.749 -26.1254 -2.12589e-08)
(253.361 -27.6655 -2.46797e-08)
(273.415 -28.0491 -2.8631e-08)
(287.788 -27.1178 -3.03373e-08)
(299.474 -26.4186 -3.21811e-08)
(305.309 -27.0854 -3.2676e-08)
(307.595 -31.1715 -3.32166e-08)
(303.599 -41.4125 -3.32824e-08)
(292.419 -57.7442 -3.32467e-08)
(276.518 -68.0653 -3.3086e-08)
(256.592 -61.96 -3.29088e-08)
(244.507 -65.3498 -3.26547e-08)
(227.863 -57.5583 -3.24966e-08)
(217.675 -57.0995 -3.22081e-08)
(202.677 -49.8137 -3.20872e-08)
(192.626 -47.5255 -3.17759e-08)
(178.162 -40.712 -3.16929e-08)
(168.183 -37.2399 -3.136e-08)
(155.111 -30.7833 -3.13107e-08)
(145.973 -26.3742 -3.09589e-08)
(137.71 -18.2056 -3.09184e-08)
(136.059 -13.8375 -3.06471e-08)
(135.387 -5.90468 -3.07415e-08)
(132.909 0.995013 -3.04465e-08)
(138.64 4.57927 -3.07973e-08)
(139.529 10.9696 -3.07392e-08)
(143.233 14.6249 -3.10264e-08)
(145.455 19.6312 -3.107e-08)
(149.132 23.9291 -3.13809e-08)
(152.45 28.994 -3.15094e-08)
(156.904 34.1491 -3.18518e-08)
(162.029 40.1001 -3.20637e-08)
(168.646 46.709 -3.24545e-08)
(177.393 54.5429 -3.27607e-08)
(189.893 64.2627 -3.32309e-08)
(208.61 76.2673 -3.36614e-08)
(232.075 84.8544 -3.42154e-08)
(250.996 79.6591 -3.46687e-08)
(260.317 67.7104 -3.50188e-08)
(265.186 63.5586 -3.52878e-08)
(267.593 61.0896 -3.55842e-08)
(272.031 59.634 -3.61042e-08)
(274.946 55.1727 -3.59275e-08)
(277.793 48.568 -3.67527e-08)
(278.733 41.1951 -3.62569e-08)
(280.056 33.9935 -3.69679e-08)
(278.899 26.4906 -3.65778e-08)
(277.593 20.1403 -3.71012e-08)
(274.456 14.266 -3.68309e-08)
(271.704 9.30767 -3.71963e-08)
(267.975 5.10045 -3.69814e-08)
(264.962 1.73823 -3.72384e-08)
(261.557 -1.00204 -3.70591e-08)
(258.988 -3.0732 -3.72328e-08)
(256.461 -4.57348 -3.7083e-08)
(254.881 -5.47513 -3.71861e-08)
(253.926 -5.77582 -3.7111e-08)
(253.57 -5.88516 -3.71232e-08)
(216.946 -4.51612 6.05837e-10)
(216.67 -5.45263 6.62456e-10)
(216.273 -6.37385 6.72683e-10)
(216.014 -7.29306 7.05782e-10)
(215.634 -8.16748 7.03879e-10)
(215.346 -9.02767 7.07526e-10)
(214.931 -9.8497 6.8533e-10)
(214.571 -10.6654 6.5261e-10)
(214.095 -11.4558 5.99613e-10)
(213.66 -12.2358 5.21332e-10)
(213.127 -12.9854 4.23747e-10)
(212.62 -13.7173 2.87806e-10)
(212.031 -14.4179 1.30116e-10)
(211.456 -15.0985 -7.60179e-11)
(210.813 -15.75 -3.07873e-10)
(210.182 -16.3815 -5.93669e-10)
(209.507 -16.9859 -9.05491e-10)
(208.861 -17.5686 -1.26668e-09)
(208.225 -18.1218 -1.64001e-09)
(207.587 -18.6475 -2.07189e-09)
(206.954 -19.1413 -2.52615e-09)
(206.341 -19.6068 -3.03179e-09)
(205.716 -20.0195 -3.16413e-09)
(205.106 -20.4334 -3.64165e-09)
(204.495 -20.8072 -3.87716e-09)
(203.912 -21.1732 -4.338e-09)
(203.345 -21.5008 -4.63949e-09)
(202.74 -21.8598 -5.14696e-09)
(202.046 -22.2178 -5.65417e-09)
(201.516 -22.5038 -6.11812e-09)
(200.995 -22.6711 -6.40324e-09)
(200.721 -22.7675 -6.94312e-09)
(200.624 -22.8607 -7.70096e-09)
(201.338 -23.065 -9.16591e-09)
(202.721 -23.2559 -9.89166e-09)
(205.365 -23.7415 -1.14597e-08)
(209.96 -24.5071 -1.3192e-08)
(217.066 -25.7167 -1.55851e-08)
(229.134 -27.4876 -1.87426e-08)
(242.039 -29.3752 -2.15396e-08)
(258.05 -31.3143 -2.50951e-08)
(272.305 -32.6019 -2.75569e-08)
(285.723 -33.2319 -2.99964e-08)
(296.954 -33.4715 -3.14382e-08)
(305.757 -33.1008 -3.2829e-08)
(311.082 -32.9126 -3.30332e-08)
(314.261 -33.522 -3.36211e-08)
(315.31 -35.9809 -3.34183e-08)
(312.89 -41.2703 -3.3598e-08)
(306.177 -50.748 -3.32321e-08)
(294.206 -61.8916 -3.31145e-08)
(279.336 -67.2207 -3.25976e-08)
(262.275 -65.1722 -3.2811e-08)
(249.867 -65.1665 -3.22641e-08)
(235.47 -59.8278 -3.24102e-08)
(224.749 -57.4534 -3.19132e-08)
(211.732 -51.4211 -3.20325e-08)
(201.411 -47.8927 -3.1593e-08)
(189.023 -41.7755 -3.17077e-08)
(179.179 -37.4837 -3.12993e-08)
(168.46 -31.2252 -3.14031e-08)
(160.276 -25.9414 -3.10505e-08)
(154.009 -18.3002 -3.11599e-08)
(152.301 -12.9599 -3.08693e-08)
(152.213 -5.03759 -3.10205e-08)
(150.306 0.596219 -3.0825e-08)
(154.922 5.91013 -3.1061e-08)
(154.343 11.8018 -3.0981e-08)
(158.262 16.0943 -3.12382e-08)
(158.94 21.0267 -3.12468e-08)
(162.825 25.4656 -3.15297e-08)
(164.794 30.3338 -3.16221e-08)
(169.395 35.4427 -3.19371e-08)
(173.531 41.0823 -3.21165e-08)
(180.516 47.6158 -3.248e-08)
(189.03 55.3924 -3.27581e-08)
(202.267 65.3124 -3.31946e-08)
(219.26 76.2534 -3.35784e-08)
(237.755 81.7576 -3.40778e-08)
(252.199 74.5076 -3.44199e-08)
(260.429 66.6997 -3.46221e-08)
(265.766 64.3273 -3.48231e-08)
(269.16 61.9006 -3.53335e-08)
(272.983 59.8103 -3.54111e-08)
(274.784 54.6562 -3.56424e-08)
(276.836 47.8173 -3.59803e-08)
(277.628 41.2826 -3.5897e-08)
(278.355 34.4167 -3.62121e-08)
(277.297 27.511 -3.61266e-08)
(275.954 21.1935 -3.63758e-08)
(273.187 15.3353 -3.62468e-08)
(270.512 10.5055 -3.64988e-08)
(267.077 6.3556 -3.63582e-08)
(264.134 3.06835 -3.65325e-08)
(260.949 0.37696 -3.64075e-08)
(258.489 -1.65744 -3.65253e-08)
(256.193 -3.03843 -3.64164e-08)
(254.762 -3.74221 -3.64816e-08)
(253.939 -3.90571 -3.64217e-08)
(253.624 -3.94779 -3.64365e-08)
(212.161 -3.91967 -2.46634e-09)
(211.79 -4.85691 -2.4747e-09)
(211.387 -5.76192 -2.76187e-09)
(211.095 -6.73368 -2.68565e-09)
(210.754 -7.63239 -2.9495e-09)
(210.49 -8.5694 -2.94935e-09)
(210.162 -9.44525 -3.20421e-09)
(209.89 -10.3468 -3.26891e-09)
(209.563 -11.1987 -3.52433e-09)
(209.295 -12.0655 -3.64423e-09)
(208.986 -12.8887 -3.90607e-09)
(208.735 -13.7159 -4.07162e-09)
(208.452 -14.501 -4.34038e-09)
(208.223 -15.2778 -4.54004e-09)
(207.971 -16.0086 -4.81095e-09)
(207.768 -16.7155 -5.02926e-09)
(207.549 -17.3661 -5.2909e-09)
(207.372 -17.9735 -5.50776e-09)
(207.179 -18.5128 -5.74334e-09)
(207.012 -18.9999 -5.93545e-09)
(206.824 -19.423 -6.11914e-09)
(206.642 -19.8027 -6.24977e-09)
(206.517 -20.1634 -6.73727e-09)
(206.489 -20.488 -7.04805e-09)
(206.555 -20.7975 -7.51296e-09)
(206.759 -21.0909 -7.94434e-09)
(207.104 -21.3865 -8.43527e-09)
(207.719 -21.7475 -9.04616e-09)
(208.717 -22.1503 -9.81272e-09)
(210.387 -22.6404 -1.07325e-08)
(212.695 -23.2256 -1.18388e-08)
(216.168 -24.0196 -1.3287e-08)
(220.89 -25.0414 -1.49551e-08)
(227.92 -26.4079 -1.70907e-08)
(236.386 -28.0222 -1.92062e-08)
(246.406 -29.9174 -2.18137e-08)
(257.475 -31.8513 -2.41582e-08)
(268.785 -33.6124 -2.66045e-08)
(278.808 -34.7607 -2.83549e-08)
(289.199 -35.8188 -3.02324e-08)
(298.059 -36.4024 -3.15789e-08)
(305.614 -36.7805 -3.25837e-08)
(311.617 -36.7854 -3.33147e-08)
(315.959 -36.6575 -3.36003e-08)
(318.8 -36.5512 -3.38538e-08)
(320.299 -37.0856 -3.36892e-08)
(320.673 -38.5031 -3.37723e-08)
(319.103 -41.5322 -3.33977e-08)
(314.9 -47.3939 -3.33901e-08)
(307.007 -55.6093 -3.28819e-08)
(295.353 -63.4395 -3.26924e-08)
(281.702 -66.2217 -3.20217e-08)
(266.447 -64.8274 -3.23876e-08)
(254.173 -64.14 -3.17457e-08)
(241.133 -59.1637 -3.20114e-08)
(230.155 -56.7096 -3.14598e-08)
(218.416 -50.6664 -3.16698e-08)
(207.931 -47.1978 -3.12207e-08)
(196.804 -40.9443 -3.14068e-08)
(187.069 -36.6866 -3.10104e-08)
(177.686 -30.2192 -3.11583e-08)
(170.218 -24.9366 -3.08594e-08)
(165.122 -17.4567 -3.10181e-08)
(163.387 -11.6318 -3.07602e-08)
(163.211 -4.12556 -3.09127e-08)
(162.016 1.0101 -3.07996e-08)
(165.117 7.60495 -3.09069e-08)
(164.317 12.9174 -3.08755e-08)
(167.501 18.063 -3.10384e-08)
(167.696 23.0784 -3.10694e-08)
(171.112 27.9678 -3.12788e-08)
(172.539 33.0226 -3.13835e-08)
(176.9 38.3655 -3.16491e-08)
(180.617 44.1488 -3.18377e-08)
(187.63 50.8065 -3.21671e-08)
(196.042 58.4528 -3.2449e-08)
(209.381 67.3726 -3.2859e-08)
(225.223 75.0113 -3.32334e-08)
(241.657 76.2751 -3.36495e-08)
(252.951 70.3997 -3.38964e-08)
(260.631 65.5231 -3.40176e-08)
(266.074 62.6769 -3.40907e-08)
(269.843 59.9258 -3.49636e-08)
(273.195 55.7459 -3.47332e-08)
(274.783 49.9371 -3.51967e-08)
(276.234 43.6948 -3.53663e-08)
(276.77 37.6642 -3.5361e-08)
(276.97 31.1405 -3.5436e-08)
(275.795 25.2208 -3.54838e-08)
(274.215 19.5076 -3.5599e-08)
(271.656 14.5163 -3.55216e-08)
(269.066 10.0867 -3.56993e-08)
(265.979 6.44387 -3.56153e-08)
(263.178 3.43752 -3.57346e-08)
(260.287 1.14874 -3.5646e-08)
(257.948 -0.526157 -3.57157e-08)
(255.909 -1.57929 -3.56361e-08)
(254.634 -2.1105 -3.56761e-08)
(253.925 -2.22352 -3.56324e-08)
(253.652 -2.25173 -3.56488e-08)
(212.225 -3.32325 -5.77469e-09)
(211.797 -4.30995 -5.81045e-09)
(211.476 -5.33818 -5.80055e-09)
(211.199 -6.35662 -5.97119e-09)
(210.989 -7.37035 -6.0532e-09)
(210.805 -8.36681 -6.21387e-09)
(210.65 -9.33759 -6.36338e-09)
(210.522 -10.2987 -6.53462e-09)
(210.416 -11.2227 -6.73742e-09)
(210.363 -12.1292 -6.93274e-09)
(210.343 -12.9861 -7.18069e-09)
(210.397 -13.8156 -7.40962e-09)
(210.496 -14.5885 -7.69981e-09)
(210.69 -15.3298 -7.97074e-09)
(210.945 -16.0178 -8.30521e-09)
(211.314 -16.6799 -8.62726e-09)
(211.767 -17.3019 -9.01381e-09)
(212.354 -17.9085 -9.40062e-09)
(213.05 -18.4856 -9.85705e-09)
(213.924 -19.0597 -1.03411e-08)
(214.974 -19.6272 -1.09155e-08)
(216.297 -20.2149 -1.15628e-08)
(217.899 -20.8259 -1.2319e-08)
(219.863 -21.4757 -1.30828e-08)
(222.274 -22.1799 -1.40098e-08)
(225.259 -22.9603 -1.49919e-08)
(228.963 -23.8496 -1.61794e-08)
(234.334 -25.0552 -1.77135e-08)
(239.482 -26.2806 -1.91894e-08)
(246.611 -27.8685 -2.10454e-08)
(253.447 -29.4141 -2.27556e-08)
(261.43 -31.1296 -2.46193e-08)
(269.011 -32.721 -2.62625e-08)
(276.486 -34.1689 -2.77828e-08)
(283.817 -35.4976 -2.91628e-08)
(291.075 -36.6868 -3.04865e-08)
(297.84 -37.6765 -3.15357e-08)
(303.983 -38.4624 -3.24861e-08)
(309.355 -39.0636 -3.31029e-08)
(314.009 -39.4956 -3.36877e-08)
(317.656 -39.7202 -3.39054e-08)
(320.572 -39.7981 -3.41166e-08)
(322.605 -39.8203 -3.40672e-08)
(323.961 -39.9837 -3.40109e-08)
(324.647 -40.4549 -3.38419e-08)
(324.615 -41.5091 -3.36324e-08)
(323.565 -43.4853 -3.34422e-08)
(320.76 -47.1876 -3.31125e-08)
(315.553 -52.7772 -3.29011e-08)
(307.172 -59.4736 -3.24091e-08)
(296.056 -64.9363 -3.21018e-08)
(283.197 -66.6853 -3.1416e-08)
(269.206 -65.33 -3.17993e-08)
(257.357 -63.9534 -3.11688e-08)
(245.121 -59.4789 -3.14472e-08)
(234.335 -56.3247 -3.09207e-08)
(223.218 -50.6289 -3.11436e-08)
(212.948 -46.5936 -3.07401e-08)
(202.441 -40.4926 -3.09383e-08)
(193.063 -35.7298 -3.05818e-08)
(184.39 -29.138 -3.0732e-08)
(177.555 -23.4467 -3.04901e-08)
(173.002 -16.144 -3.06644e-08)
(171.225 -10.0297 -3.04491e-08)
(170.781 -3.05354 -3.0593e-08)
(170.086 1.94695 -3.05339e-08)
(171.929 8.8614 -3.05509e-08)
(171.411 13.8274 -3.05693e-08)
(173.663 19.3879 -3.06486e-08)
(174.019 24.2364 -3.07128e-08)
(176.894 29.286 -3.08561e-08)
(178.494 34.2404 -3.0988e-08)
(182.68 39.573 -3.12084e-08)
(186.689 45.2741 -3.1415e-08)
(193.906 51.8487 -3.17122e-08)
(202.677 59.2861 -3.20047e-08)
(215.656 67.3322 -3.23797e-08)
(229.617 72.925 -3.27401e-08)
(243.463 72.4298 -3.30957e-08)
(253.076 67.8685 -3.32906e-08)
(260.51 64.4322 -3.33836e-08)
(265.842 61.2144 -3.338e-08)
(269.457 58.3608 -3.41507e-08)
(271.89 53.3212 -3.41747e-08)
(273.243 47.8195 -3.44071e-08)
(274.317 41.8416 -3.46557e-08)
(274.811 36.1822 -3.44974e-08)
(274.786 30.12 -3.46355e-08)
(273.788 24.6458 -3.46583e-08)
(272.264 19.2628 -3.47757e-08)
(270.006 14.7102 -3.47312e-08)
(267.549 10.5605 -3.48404e-08)
(264.764 7.1985 -3.48005e-08)
(262.126 4.35519 -3.48767e-08)
(259.549 2.23241 -3.48173e-08)
(257.42 0.699561 -3.48552e-08)
(255.657 -0.170963 -3.47977e-08)
(254.53 -0.600826 -3.48195e-08)
(253.913 -0.68809 -3.47892e-08)
(253.673 -0.711099 -3.47968e-08)
(218.385 -2.39078 -1.01372e-08)
(217.834 -3.4017 -1.0119e-08)
(217.749 -4.42402 -1.03065e-08)
(217.567 -5.50728 -1.04039e-08)
(217.731 -6.56659 -1.06327e-08)
(217.844 -7.64786 -1.08253e-08)
(218.203 -8.69277 -1.11111e-08)
(218.566 -9.73729 -1.13875e-08)
(219.156 -10.7428 -1.17408e-08)
(219.829 -11.7529 -1.21011e-08)
(220.734 -12.7418 -1.25365e-08)
(221.797 -13.7446 -1.29939e-08)
(223.122 -14.7415 -1.35348e-08)
(224.69 -15.7627 -1.41175e-08)
(226.592 -16.7944 -1.4801e-08)
(228.862 -17.8659 -1.55559e-08)
(231.607 -18.9736 -1.64418e-08)
(234.849 -20.1434 -1.74204e-08)
(238.341 -21.3347 -1.84561e-08)
(242.287 -22.5861 -1.95647e-08)
(246.506 -23.8598 -2.07244e-08)
(251.111 -25.1718 -2.19272e-08)
(255.934 -26.4836 -2.31502e-08)
(261.023 -27.8 -2.43758e-08)
(266.208 -29.0907 -2.55939e-08)
(271.441 -30.3497 -2.67543e-08)
(276.506 -31.5363 -2.78491e-08)
(281.882 -32.7977 -2.89316e-08)
(286.008 -33.8532 -2.9735e-08)
(291.792 -35.1754 -3.08076e-08)
(295.883 -36.1751 -3.14911e-08)
(301.11 -37.3516 -3.23525e-08)
(304.799 -38.2308 -3.28529e-08)
(309.215 -39.2077 -3.3468e-08)
(312.472 -39.9355 -3.3805e-08)
(316.091 -40.6615 -3.41964e-08)
(318.652 -41.1457 -3.43369e-08)
(321.349 -41.6142 -3.45153e-08)
(323.158 -41.9224 -3.4479e-08)
(324.99 -42.2211 -3.44898e-08)
(326.063 -42.3774 -3.43082e-08)
(327.09 -42.5989 -3.42098e-08)
(327.599 -42.8707 -3.39359e-08)
(327.888 -43.3555 -3.37705e-08)
(327.666 -44.1653 -3.34641e-08)
(326.855 -45.5833 -3.32447e-08)
(324.908 -48.0601 -3.29256e-08)
(321.358 -51.8977 -3.26271e-08)
(315.525 -56.9774 -3.22756e-08)
(307.163 -62.2505 -3.18349e-08)
(296.622 -66.1267 -3.14065e-08)
(284.467 -67.1612 -3.07811e-08)
(271.436 -65.6541 -3.111e-08)
(260.081 -63.7118 -3.0544e-08)
(248.427 -59.3753 -3.07841e-08)
(237.904 -55.8015 -3.03197e-08)
(227.22 -50.1569 -3.05199e-08)
(217.162 -45.7939 -3.01801e-08)
(207.084 -39.6351 -3.03705e-08)
(197.995 -34.5528 -3.00613e-08)
(189.82 -27.767 -3.01998e-08)
(183.4 -21.8492 -3.00102e-08)
(179.157 -14.5954 -3.01843e-08)
(177.254 -8.41463 -3.00096e-08)
(176.595 -1.71459 -3.01404e-08)
(176.131 3.37493 -3.01161e-08)
(177.209 10.2514 -3.00792e-08)
(176.89 15.167 -3.01234e-08)
(178.458 20.9976 -3.01467e-08)
(179.008 25.8186 -3.02273e-08)
(181.385 31.0637 -3.0321e-08)
(183.201 36.0229 -3.0469e-08)
(187.105 41.4281 -3.06527e-08)
(191.374 47.1253 -3.08733e-08)
(198.513 53.5574 -3.11433e-08)
(207.438 60.44 -3.14463e-08)
(219.773 66.9488 -3.17919e-08)
(232.43 70.3372 -3.21319e-08)
(244.364 69.0951 -3.24183e-08)
(252.935 65.7135 -3.25714e-08)
(260.127 62.62 -3.26341e-08)
(265.226 58.8999 -3.27848e-08)
(268.567 55.6925 -3.32996e-08)
(270.584 50.1871 -3.35571e-08)
(271.736 45.2236 -3.36129e-08)
(272.611 39.4472 -3.38296e-08)
(273.041 34.2721 -3.36935e-08)
(272.883 28.5952 -3.38546e-08)
(271.97 23.6549 -3.37951e-08)
(270.491 18.6672 -3.39443e-08)
(268.447 14.5368 -3.38831e-08)
(266.144 10.6729 -3.39821e-08)
(263.632 7.64464 -3.3952e-08)
(261.204 5.06234 -3.40073e-08)
(258.896 3.23521 -3.39634e-08)
(256.976 1.895 -3.39839e-08)
(255.442 1.17731 -3.39422e-08)
(254.444 0.809583 -3.39494e-08)
(253.901 0.740261 -3.39295e-08)
(253.686 0.720357 -3.39317e-08)
(237.356 -1.01995 -1.73511e-08)
(237.229 -2.14024 -1.74728e-08)
(237.801 -3.3268 -1.77989e-08)
(238.326 -4.63371 -1.80599e-08)
(239.462 -5.9717 -1.85006e-08)
(240.626 -7.38501 -1.8908e-08)
(242.324 -8.8019 -1.94713e-08)
(244.108 -10.253 -2.00251e-08)
(246.358 -11.7015 -2.07104e-08)
(248.738 -13.1881 -2.1398e-08)
(251.538 -14.6964 -2.21918e-08)
(254.498 -16.2537 -2.29904e-08)
(257.818 -17.8375 -2.3868e-08)
(261.282 -19.4568 -2.47411e-08)
(265.006 -21.0816 -2.56585e-08)
(268.791 -22.7062 -2.65462e-08)
(272.658 -24.2953 -2.74299e-08)
(276.457 -25.8441 -2.82548e-08)
(280.443 -27.3633 -2.9108e-08)
(284.352 -28.8288 -2.98998e-08)
(288.325 -30.2408 -3.06877e-08)
(292.183 -31.5866 -3.14073e-08)
(296.003 -32.8642 -3.20981e-08)
(299.662 -34.0702 -3.27147e-08)
(303.198 -35.2032 -3.32862e-08)
(306.536 -36.2653 -3.37796e-08)
(309.697 -37.2548 -3.42215e-08)
(313.017 -38.3084 -3.46347e-08)
(314.436 -38.9681 -3.47144e-08)
(317.507 -39.9326 -3.50411e-08)
(319.004 -40.6041 -3.50536e-08)
(321.401 -41.3656 -3.5239e-08)
(322.621 -41.9435 -3.51538e-08)
(324.496 -42.5523 -3.52276e-08)
(325.487 -43.0417 -3.50656e-08)
(326.909 -43.5116 -3.50485e-08)
(327.646 -43.8997 -3.48178e-08)
(328.645 -44.2411 -3.47291e-08)
(329.142 -44.5503 -3.44427e-08)
(329.779 -44.81 -3.43059e-08)
(330.045 -45.115 -3.39757e-08)
(330.357 -45.444 -3.38048e-08)
(330.28 -45.9158 -3.34591e-08)
(330.103 -46.5998 -3.32596e-08)
(329.319 -47.7129 -3.2905e-08)
(327.965 -49.5084 -3.2673e-08)
(325.396 -52.242 -3.22981e-08)
(321.346 -56.0126 -3.20019e-08)
(315.233 -60.4103 -3.15777e-08)
(307.109 -64.5992 -3.11679e-08)
(297.09 -67.4306 -3.0665e-08)
(285.515 -68.0528 -3.01136e-08)
(273.315 -66.1856 -3.03696e-08)
(262.447 -63.8998 -2.98756e-08)
(251.304 -59.4769 -3.00641e-08)
(241.082 -55.5223 -2.96679e-08)
(230.745 -49.8383 -2.98366e-08)
(220.924 -45.0869 -2.95626e-08)
(211.178 -38.8391 -2.97402e-08)
(202.373 -33.3331 -2.94745e-08)
(194.561 -26.3599 -2.95992e-08)
(188.422 -20.1497 -2.94525e-08)
(184.309 -12.9555 -2.96248e-08)
(182.246 -6.74023 -2.94813e-08)
(181.403 -0.235387 -2.96018e-08)
(181.003 4.92907 -2.96004e-08)
(181.62 11.6002 -2.95326e-08)
(181.381 16.5628 -2.95873e-08)
(182.5 22.4552 -2.95765e-08)
(183.138 27.2373 -2.96601e-08)
(185.175 32.548 -2.97211e-08)
(187.155 37.4159 -2.98762e-08)
(190.905 42.7938 -3.00359e-08)
(195.461 48.3363 -3.02664e-08)
(202.598 54.5005 -3.05182e-08)
(211.554 60.7104 -3.08251e-08)
(222.993 65.9069 -3.11425e-08)
(234.306 67.8769 -3.1456e-08)
(244.774 66.5146 -3.16944e-08)
(252.777 63.8008 -3.18373e-08)
(259.643 60.7033 -3.1896e-08)
(264.422 56.7396 -3.20645e-08)
(267.371 53.3144 -3.26203e-08)
(269.122 47.8474 -3.259e-08)
(270.099 43.252 -3.3011e-08)
(270.898 37.711 -3.27501e-08)
(271.244 32.9231 -3.30378e-08)
(271.061 27.5763 -3.29474e-08)
(270.209 23.0285 -3.30146e-08)
(268.833 18.3666 -3.30873e-08)
(266.97 14.5701 -3.30551e-08)
(264.86 10.9693 -3.31276e-08)
(262.583 8.21681 -3.31083e-08)
(260.378 5.83523 -3.31478e-08)
(258.314 4.22166 -3.31154e-08)
(256.601 3.04657 -3.31161e-08)
(255.255 2.44726 -3.30929e-08)
(254.37 2.1252 -3.30861e-08)
(253.886 2.06954 -3.30762e-08)
(253.694 2.05182 -3.30726e-08)
(268.101 -0.223256 -2.62569e-08)
(268.893 -1.59353 -2.65936e-08)
(270.062 -3.10202 -2.7001e-08)
(271.419 -4.76373 -2.74158e-08)
(273.126 -6.49647 -2.78973e-08)
(274.981 -8.31371 -2.83791e-08)
(277.139 -10.1496 -2.89201e-08)
(279.387 -12.0136 -2.94513e-08)
(281.867 -13.8605 -3.00274e-08)
(284.376 -15.7029 -3.05815e-08)
(287.051 -17.5213 -3.11635e-08)
(289.716 -19.3384 -3.17115e-08)
(292.498 -21.1367 -3.22712e-08)
(295.236 -22.9274 -3.27864e-08)
(298.038 -24.6922 -3.32989e-08)
(300.763 -26.4355 -3.37589e-08)
(303.503 -28.1385 -3.42047e-08)
(306.144 -29.7995 -3.45957e-08)
(308.765 -31.3967 -3.49663e-08)
(311.248 -32.9252 -3.52758e-08)
(313.674 -34.3719 -3.55596e-08)
(315.934 -35.7329 -3.57802e-08)
(318.106 -37.002 -3.5973e-08)
(320.099 -38.1782 -3.61034e-08)
(321.982 -39.2605 -3.62053e-08)
(323.684 -40.2504 -3.62505e-08)
(325.262 -41.15 -3.6268e-08)
(326.8 -42.0694 -3.62283e-08)
(327.014 -42.5525 -3.60584e-08)
(328.318 -43.2837 -3.59905e-08)
(328.77 -43.8567 -3.57455e-08)
(329.649 -44.3265 -3.56508e-08)
(329.972 -44.8188 -3.53606e-08)
(330.649 -45.1947 -3.5238e-08)
(330.884 -45.6445 -3.49197e-08)
(331.435 -45.9859 -3.47724e-08)
(331.591 -46.3978 -3.44347e-08)
(332.011 -46.6971 -3.42689e-08)
(332.081 -47.0668 -3.39149e-08)
(332.345 -47.3541 -3.37306e-08)
(332.262 -47.7471 -3.33734e-08)
(332.28 -48.1702 -3.31714e-08)
(331.877 -48.8182 -3.28126e-08)
(331.357 -49.7331 -3.25919e-08)
(330.162 -51.1367 -3.22274e-08)
(328.387 -53.181 -3.19748e-08)
(325.365 -56.0308 -3.15841e-08)
(321.02 -59.5408 -3.12764e-08)
(314.864 -63.3276 -3.08322e-08)
(307.047 -66.7144 -3.04323e-08)
(297.527 -68.854 -2.99075e-08)
(286.49 -69.1642 -2.94116e-08)
(275.048 -66.8608 -2.96061e-08)
(264.64 -64.2935 -2.91693e-08)
(253.98 -59.6653 -2.93126e-08)
(244.061 -55.3763 -2.89727e-08)
(234.042 -49.5432 -2.9114e-08)
(224.451 -44.4373 -2.88971e-08)
(214.999 -38.0171 -2.90652e-08)
(206.454 -32.1189 -2.8836e-08)
(198.936 -24.9274 -2.89491e-08)
(192.98 -18.444 -2.88358e-08)
(188.898 -11.2325 -2.90045e-08)
(186.643 -4.95885 -2.88888e-08)
(185.606 1.45406 -2.90004e-08)
(185.163 6.63189 -2.90162e-08)
(185.495 13.1276 -2.89297e-08)
(185.25 18.1802 -2.89883e-08)
(186.057 24.0662 -2.89561e-08)
(186.696 28.8656 -2.9037e-08)
(188.504 34.2122 -2.90773e-08)
(190.568 39.0195 -2.92359e-08)
(194.232 44.3623 -2.9381e-08)
(198.961 49.707 -2.96181e-08)
(206.02 55.4746 -2.98587e-08)
(214.784 60.7954 -3.01669e-08)
(225.357 64.6675 -3.04589e-08)
(235.625 65.6199 -3.0753e-08)
(245.024 64.3447 -3.09663e-08)
(252.602 61.8381 -3.11054e-08)
(259.063 58.5646 -3.11632e-08)
(263.51 54.3919 -3.1325e-08)
(266.149 50.8363 -3.18411e-08)
(267.725 45.5752 -3.16828e-08)
(268.565 41.2759 -3.23902e-08)
(269.303 36.0339 -3.17836e-08)
(269.564 31.5861 -3.23331e-08)
(269.389 26.5826 -3.1967e-08)
(268.574 22.392 -3.23323e-08)
(267.32 18.0625 -3.21473e-08)
(265.606 14.5821 -3.23176e-08)
(263.692 11.263 -3.22478e-08)
(261.623 8.76869 -3.23156e-08)
(259.639 6.61221 -3.2279e-08)
(257.795 5.19043 -3.23014e-08)
(256.275 4.15091 -3.2261e-08)
(255.088 3.64013 -3.22643e-08)
(254.302 3.35387 -3.22488e-08)
(253.869 3.30821 -3.22421e-08)
(253.696 3.29225 -3.2239e-08)
(296.221 0.0228775 -3.3126e-08)
(297.114 -1.4564 -3.34443e-08)
(297.956 -3.11033 -3.37245e-08)
(299.167 -4.93873 -3.40487e-08)
(300.374 -6.86532 -3.4343e-08)
(301.853 -8.8903 -3.46625e-08)
(303.338 -10.9471 -3.49577e-08)
(304.989 -13.0328 -3.52605e-08)
(306.626 -15.0992 -3.55406e-08)
(308.332 -17.1506 -3.5813e-08)
(309.996 -19.1594 -3.60618e-08)
(311.666 -21.1455 -3.62909e-08)
(313.301 -23.0987 -3.64954e-08)
(314.914 -25.0275 -3.66723e-08)
(316.498 -26.9165 -3.68234e-08)
(318.038 -28.7663 -3.69411e-08)
(319.548 -30.5599 -3.70347e-08)
(320.995 -32.2952 -3.70908e-08)
(322.406 -33.9559 -3.71228e-08)
(323.737 -35.5409 -3.71176e-08)
(325.023 -37.0368 -3.70897e-08)
(326.218 -38.4439 -3.70259e-08)
(327.363 -39.7525 -3.6941e-08)
(328.408 -40.9662 -3.68229e-08)
(329.398 -42.0784 -3.66876e-08)
(330.288 -43.0964 -3.65199e-08)
(331.116 -44.0163 -3.63394e-08)
(331.873 -44.9471 -3.61048e-08)
(331.884 -45.3686 -3.59029e-08)
(332.535 -46.0986 -3.56684e-08)
(332.644 -46.5739 -3.53762e-08)
(333.074 -47.0421 -3.51656e-08)
(333.115 -47.428 -3.48494e-08)
(333.436 -47.789 -3.46339e-08)
(333.438 -48.1321 -3.43108e-08)
(333.698 -48.4691 -3.40876e-08)