/*--------------------------------*- C++ -*----------------------------------*\
  =========                 |
  \\      /  F ield         | OpenFOAM: The Open Source CFD Toolbox
   \\    /   O peration     | Website:  https://openfoam.org
    \\  /    A nd           | Version:  7
     \\/     M anipulation  |
\*---------------------------------------------------------------------------*/
FoamFile
{
    version     2.0;
    format      ascii;
    class       scalarField;
    location    "0.7/lagrangian/reactingCloud1";
    object      age;
}
// * * * * * * * * * * * * * * * * * * * * * * * * * * * * * * * * * * * * * //


2453
(
0.004115
0.00401
0.003905
0.0038
0.003695
0.00359
0.003485
0.00338
0.00337625
0.003275
0.00317
0.003065
0.00296
0.002855
0.00275
0.002645
0.00254
0.002435
0.00233
0.002225
0.00212
0.002015
0.00191
0.001805
0.0017
0.00169625
0.001595
0.00149
0.001385
0.00128
0.001175
0.00107
0.000965
0.00086
0.000755
0.00065
0.000545
0.00044
0.000335
0.00023
0.000125
2e-05
0.22935
0.046525
0.01546
0.014515
0.010945
0.010735
0.010315
0.010105
0.0099
0.01
0.0098
0.0097
0.0096
0.0095
0.0094
0.0093
0.0092
0.0091
0.009
0.0089
0.0087
0.0086
0.0085
0.0083
0.0084
0.0082
0.0081
0.008
0.0079
0.0078
0.0077
0.0075
0.0076
0.0074
0.0073
0.0071
0.0072
0.007
0.0069
0.0068
0.0067
0.0066
0.0065
0.0064
0.0063
0.0061
0.0059
0.006
0.0088
0.00569
0.005585
0.00548
0.005375
0.005165
0.00527
0.00506
0.0062
0.004955
0.005795
0.00485
0.004745
0.00464
0.004535
0.00443
0.004325
0.00442625
0.00422
0.012205
0.012625
0.011995
0.012415
0.01231
0.0121
0.01168
0.011575
0.011785
0.01189
0.01147
0.01252
0.011155
0.01126
0.01105
0.01084
0.01042
0.01063
0.010525
0.011365
0.01021
0.013255
0.014935
0.01357
0.01658
0.01336
0.013465
0.014305
0.01294
0.012835
0.014095
0.013045
0.01315
0.01273
0.01588
0.01504
0.01483
0.01525
0.0147212
0.014725
0.015145
0.01441
0.013885
0.01462
0.0142
0.01399
0.01378
0.013675
0.01868
0.01708
0.01648
0.01678
0.01638
0.01628
0.01668
0.01698
0.01608
0.01567
0.015775
0.015355
0.01688
0.01618
0.01598
0.015565
0.01998
0.0192558
0.021345
0.01988
0.0205012
0.01958
0.02061
0.020085
0.01978
0.01968
0.01938
0.01928
0.01908
0.01918
0.01878
0.01888
0.01898
0.01798
0.01848
0.01828
0.01838
0.01788
0.01948
0.01778
0.01768
0.01808
0.01758
0.01858
0.01748
0.01728
0.01818
0.01718
0.01738
0.02439
0.02376
0.023865
0.023655
0.023445
0.02334
0.023235
0.02271
0.0257512
0.024285
0.022395
0.02229
0.02208
0.022815
0.021975
0.02292
0.022605
0.02166
0.0225
0.02145
0.02187
0.022185
0.02124
0.020925
0.02103
0.021765
0.02313
0.021135
0.02082
0.020715
0.023025
0.020505
0.020295
0.021555
0.0204
0.02019
0.0293138
0.0372425
0.0278672
0.0309766
0.025824
0.0271735
0.0284358
0.0298639
0.0306898
0.0268476
0.0319085
0.0288517
0.03269
0.02996
0.031955
0.02966
0.030905
0.0314337
0.0305862
0.02926
0.02946
0.02956
0.030695
0.0309012
0.02896
0.02866
0.02886
0.02916
0.02936
0.02976
0.02876
0.02856
0.02846
0.02836
0.02796
0.02826
0.02776
0.02746
0.02806
0.02766
0.02816
0.02696
0.02686
0.02726
0.02636
0.02626
0.02596
0.02716
0.02786
0.02616
0.02606
0.02656
0.025755
0.02586
0.02906
0.02544
0.02676
0.025545
0.02565
0.02706
0.02646
0.02502
0.025125
0.02666
0.024705
0.02523
0.02736
0.02481
0.02756
0.024915
0.024495
0.0246
0.025335
0.02397
0.02418
0.024075
0.0371124
0.0359405
0.0379637
0.0366512
0.0506574
0.0347178
0.0369151
0.0320513
0.0372645
0.0360808
0.205551
0.0348279
0.042775
0.0347141
0.038245
0.038745
0.037245
0.038945
0.036345
0.036945
0.036145
0.036545
0.035735
0.038445
0.037545
0.036645
0.037745
0.036045
0.035525
0.036845
0.0356262
0.036245
0.037945
0.037845
0.036445
0.036745
0.035
0.03584
0.03563
0.035945
0.034475
0.03479
0.03437
0.04267
0.03458
0.03542
0.035315
0.035105
0.037345
0.034055
0.033845
0.033425
0.034685
0.03332
0.037045
0.03521
0.03353
0.03395
0.034265
0.0332112
0.0329
0.03311
0.03374
0.03248
0.033005
0.03416
0.033215
0.033635
0.034895
0.032375
0.03227
0.032795
0.03206
0.032165
0.03185
0.0322662
0.031745
0.03164
0.031325
0.03143
0.03101
0.0308
0.032585
0.031115
0.0304812
0.03059
0.030485
0.03038
0.03017
0.030065
0.030275
0.03122
0.02986
0.0412154
0.0422288
0.0422342
0.04072
0.0428442
0.0405287
0.0403435
0.0405413
0.0460248
0.0442454
0.0425035
0.0389128
0.0403252
0.0448215
0.0441347
0.0433271
0.0380945
0.0391993
0.040114
0.0378791
0.0408878
0.0413752
0.0389158
0.0406662
0.0397026
0.0390677
0.0437242
0.0391045
0.0452151
0.0428101
0.05139
0.04477
0.045925
0.04393
0.04414
0.04372
0.0433
0.0412648
0.0545362
0.04435
0.043825
0.04288
0.050865
0.04498
0.04246
0.044875
0.04456
0.045295
0.044665
0.042145
0.05328
0.044245
0.04204
0.043405
0.041725
0.04309
0.045505
0.0417212
0.043195
0.0425612
0.04183
0.04351
0.042355
0.04141
0.04078
0.04162
0.0402534
0.042565
0.041935
0.043615
0.040675
0.04225
0.041305
0.04015
0.04036
0.039845
0.0412
0.040045
0.044455
0.039945
0.039745
0.041095
0.039045
0.040885
0.040465
0.039345
0.0394419
0.039245
0.038845
0.038145
0.038545
0.041515
0.038045
0.04099
0.038645
0.0396431
0.039545
0.038345
0.037145
0.04057
0.037645
0.044035
0.037445
0.0543035
0.0569521
0.0518384
0.0497462
0.051931
0.0528613
0.0474384
0.0575543
0.0508732
0.0612005
0.0469353
0.0504494
0.0478835
0.0467393
0.0507388
0.0535224
0.0515488
0.0516715
0.0469457
0.0579282
0.0485821
0.0464838
0.0508901
0.0537167
0.0483952
0.0478175
0.0467308
0.0547353
0.0547298
0.0491003
0.0523227
0.0481923
0.0545034
0.0525849
0.0551077
0.0469861
0.0544026
0.0546779
0.0515399
0.0535732
0.0531517
0.0489691
0.0514336
0.055023
0.0532565
0.056809
0.0495287
0.0563256
0.050147
0.0464532
0.0573211
0.0516612
0.0547477
0.0550084
0.0574387
0.0453585
0.0470018
0.0490136
0.0575136
0.0480103
0.0518589
0.0445839
0.0469179
0.0513993
0.0457413
0.051117
0.0553983
0.0528836
0.052677
0.0451824
0.054142
0.0507587
0.0541219
0.0489184
0.0495655
0.0551834
0.0536312
0.0437925
0.0498409
0.067185
0.068685
0.067885
0.069285
0.061265
0.065255
0.058705
0.06221
0.058105
0.058205
0.057305
0.057905
0.056605
0.064415
0.057105
0.056205
0.063155
0.057405
0.056009
0.057505
0.05538
0.057005
0.054855
0.0558
0.05496
0.056305
0.062945
0.055485
0.054435
0.0542212
0.05391
0.064205
0.054645
0.056005
0.058505
0.05433
0.0537
0.056405
0.055275
0.05349
0.057705
0.05517
0.054225
0.0527512
0.0549562
0.054015
0.062105
0.05286
0.055695
0.05412
0.0546412
0.062525
0.05307
0.053595
0.0641
0.05118
0.051495
0.051285
0.070825
0.058005
0.052125
0.0556912
0.051075
0.05454
0.05559
0.057805
0.05034
0.053805
0.051915
0.05223
0.050235
0.055905
0.05013
0.051705
0.05265
0.05181
0.056505
0.048825
0.049625
0.049225
0.049925
0.049425
0.052545
0.05202
0.053175
0.05475
0.05097
0.05244
0.0516
0.048425
0.048925
0.052965
0.048125
0.048325
0.052755
0.049325
0.049825
0.047725
0.047425
0.050445
0.05076
0.050025
0.0489243
0.047325
0.055065
0.050655
0.046925
0.048725
0.049725
0.0474531
0.049525
0.046825
0.047925
0.05055
0.046625
0.047125
0.0448203
0.047525
0.048025
0.046225
0.052335
0.04582
0.046325
0.053385
0.048625
0.046025
0.0479819
0.045085
0.047625
0.045715
0.046425
0.046125
0.0454
0.047225
0.04561
0.046725
0.047025
0.049125
0.04519
0.0634858
0.061152
0.0656458
0.070732
0.0610713
0.0593402
0.0625925
0.0611086
0.0642309
0.0604837
0.0664081
0.0610921
0.0678604
0.0594087
0.0601367
0.0605199
0.0706177
0.0691527
0.0628359
0.0619656
0.0673984
0.0715087
0.0678186
0.0650971
0.0701812
0.066924
0.0639124
0.0595374
0.0727751
0.068486
0.0657044
0.0660418
0.0600389
0.0644553
0.0617653
0.0653365
0.0647753
0.058534
0.0717519
0.070518
0.0743845
0.0623821
0.0671023
0.0600329
0.0624631
0.0734674
0.0632768
0.0617387
0.0680422
0.0606272
0.0659349
0.0642377
0.0643973
0.0652875
0.0677073
0.0691472
0.0659165
0.0599868
0.0681316
0.0685907
0.0603987
0.0578776
0.060391
0.0709327
0.0688722
0.0629048
0.0694813
0.0703399
0.0675904
0.0635681
0.0712117
0.0716373
0.0804285
0.0675273
0.0692698
0.0653019
0.0677226
0.0684263
0.0676581
0.0688681
0.0583195
0.0657285
0.0577372
0.0640921
0.0693131
0.0570158
0.0666702
0.0574107
0.0723005
0.0690559
0.0628668
0.0629448
0.0662701
0.0651425
0.0700438
0.0645118
0.0624055
0.0645701
0.0600471
0.0651136
0.0705412
0.0739728
0.0606891
0.0643543
0.0738917
0.0683681
0.0584935
0.0647684
0.0695421
0.0578381
0.0689431
0.0615972
0.0570246
0.0586599
0.072279
0.0630847
0.0691699
0.0613076
0.0627712
0.0721413
0.0608762
0.0632079
0.0669574
0.0576445
0.063428
0.0640751
0.0630637
0.0632802
0.0681162
0.0627114
0.0588265
0.0603674
0.0696621
0.0652984
0.0840073
0.0649082
0.0663371
0.0589631
0.0573539
0.0632122
0.0574547
0.05828
0.0614053
0.0696319
0.0603795
0.0664291
0.0605803
0.0709223
0.0619469
0.0752908
0.0692654
0.0619797
0.0698648
0.0562166
0.0635381
0.0628653
0.0662098
0.0584407
0.0693222
0.0677267
0.0666112
0.0616062
0.0637249
0.0613772
0.0691539
0.075021
0.058566
0.0691292
0.0617733
0.0560993
0.0706977
0.0684399
0.0626437
0.0558569
0.0673334
0.061755
0.0628726
0.0625027
0.0557513
0.0654972
0.0684665
0.0560571
0.0580305
0.0716158
0.056465
0.0737374
0.0571768
0.0690662
0.068571
0.0765755
0.056234
0.0559041
0.080275
0.0618561
0.0594452
0.078365
0.0733412
0.0893436
0.07471
0.075445
0.091095
0.076365
0.08479
0.07198
0.080485
0.069785
0.081535
0.070405
0.075025
0.071245
0.069585
0.07051
0.07072
0.069085
0.07282
0.07219
0.076765
0.0745
0.07135
0.069885
0.073345
0.076865
0.073555
0.070615
0.068985
0.072085
0.071455
0.069985
0.067685
0.067985
0.07387
0.066885
0.073975
0.07156
0.069385
0.069185
0.075965
0.0681909
0.062224
0.066385
0.066185
0.07324
0.069685
0.067485
0.0717838
0.078565
0.068785
0.06536
0.067385
0.069485
0.068385
0.0554934
0.065885
0.06557
0.07093
0.066585
0.065045
0.066285
0.068885
0.06431
0.067585
0.0703
0.06473
0.064939
0.0636587
0.063785
0.063995
0.067085
0.06347
0.0556855
0.068185
0.0635712
0.067785
0.068585
0.063575
0.066485
0.0724
0.0588332
0.0552998
0.068485
0.066785
0.062
0.06032
0.06515
0.07009
0.065465
0.066085
0.06284
0.067285
0.062735
0.063365
0.064835
0.060425
0.06179
0.06074
0.068085
0.059905
0.06305
0.059605
0.0590656
0.06389
0.06263
0.06326
0.059105
0.060005
0.061475
0.059705
0.06137
0.059005
0.059405
0.06011
0.065675
0.058305
0.06452
0.061685
0.059505
0.06158
0.064625
0.060635
0.097725
0.06053
0.057605
0.06242
0.06116
0.061055
0.06578
0.057205
0.059205
0.056805
0.058605
0.058905
0.06095
0.056905
0.056705
0.060215
0.061895
0.058405
0.058805
0.060845
0.0803367
0.0812956
0.0817902
0.0844802
0.0771564
0.0870057
0.0787788
0.0815912
0.0875485
0.0837166
0.0826556
0.0758711
0.0777805
0.0814581
0.0783438
0.0995742
0.0796316
0.0868366
0.0828082
0.0800043
0.0784131
0.0795451
0.0808403
0.0791402
0.0838871
0.0820162
0.0778655
0.0800787
0.0876771
0.0852573
0.0793882
0.0816651
0.0880218
0.0870986
0.0761186
0.0831518
0.0868695
0.0859735
0.0842995
0.0843748
0.0800823
0.0831833
0.0761593
0.0784451
0.0897638
0.079002
0.0763345
0.0766637
0.0778826
0.0840586
0.0795573
0.0814554
0.0757852
0.0818171
0.0826828
0.0792598
0.0862991
0.0883942
0.0868546
0.084189
0.0862087
0.0747729
0.0745038
0.0754995
0.0787982
0.0731794
0.0736257
0.0791487
0.0789685
0.0830518
0.0842971
0.0788131
0.0950917
0.0906816
0.0789774
0.0840046
0.0857062
0.0788766
0.0764054
0.0795103
0.0768962
0.0775098
0.0845675
0.0825628
0.0746773
0.0818809
0.0791403
0.0797225
0.0817146
0.0752245
0.0753716
0.0872632
0.0813138
0.0965077
0.0755234
0.0714673
0.0755759
0.0765861
0.0847124
0.0853242
0.0747872
0.0741113
0.0809221
0.0795843
0.0811403
0.086398
0.0858981
0.0803814
0.0911426
0.0748056
0.0826463
0.0733373
0.0734603
0.0798743
0.0861379
0.0819952
0.0746645
0.075928
0.07896
0.0725327
0.0821816
0.0708874
0.0872469
0.0765917
0.0979301
0.0769668
0.0717195
0.0714168
0.0816029
0.0771303
0.0710832
0.0847166
0.0873398
0.0830808
0.0777674
0.0727118
0.0804886
0.0760357
0.0712128
0.0815246
0.0755198
0.0735154
0.0744344
0.0720498
0.0817419
0.0745521
0.0851577
0.0728673
0.0786192
0.0750422
0.0822938
0.0819133
0.0930018
0.0756491
0.0724226
0.0712881
0.0751223
0.0845931
0.080152
0.080541
0.0846258
0.0788317
0.0857066
0.0879585
0.0814847
0.0746153
0.0838697
0.0801345
0.0864287
0.0940597
0.0716352
0.0846356
0.0717725
0.0700706
0.0772929
0.0889276
0.0788716
0.0724198
0.0709958
0.0734733
0.0744655
0.0710393
0.0820668
0.0768364
0.0775897
0.0750274
0.0771401
0.0766885
0.078965
0.0725759
0.0701351
0.0811707
0.0748314
0.078222
0.0817248
0.079927
0.0806476
0.0849464
0.0705321
0.073792
0.0789239
0.0697955
0.0713866
0.0842762
0.0830446
0.0848049
0.085218
0.0841775
0.0697707
0.0704431
0.099225
0.100651
0.096325
0.09351
0.087545
0.0946237
0.09078
0.086845
0.084573
0.087145
0.09015
0.08542
0.089645
0.101915
0.091305
0.087245
0.117063
0.0852135
0.08353
0.09099
0.08311
0.106805
0.087645
0.088145
0.093615
0.088345
0.088045
0.0847639
0.088845
0.086745
0.088645
0.084265
0.08416
0.087845
0.086345
0.092565
0.09519
0.10097
0.08143
0.087745
0.0808
0.083425
0.081325
0.088945
0.090255
0.081745
0.086645
0.08122
0.086445
0.08038
0.0808954
0.079465
0.0799047
0.089545
0.086045
0.0739933
0.081955
0.079665
0.08458
0.0787102
0.08584
0.08521
0.0825812
0.08269
0.079865
0.080905
0.086245
0.085735
0.08227
0.077665
0.0796982
0.082692
0.08395
0.077865
0.079565
0.078265
0.082165
0.078765
0.081115
0.077365
0.082585
0.0767343
0.077465
0.0765646
0.08059
0.08185
0.078665
0.0761996
0.076165
0.077265
0.078065
0.077165
0.0822895
0.079165
0.085525
0.084055
0.07555
0.0777639
0.078165
0.079365
0.084475
0.0827724
0.074815
0.076065
0.075655
0.078865
0.077065
0.07534
0.076465
0.074395
0.07492
0.08248
0.079065
0.08206
0.0755462
0.075235
0.079265
0.074605
0.072925
0.076665
0.072295
0.076265
0.08017
0.075865
0.079765
0.07513
0.07408
0.0742862
0.07303
0.07345
0.0724936
0.0734111
0.084895
0.071665
0.0722912
0.08332
0.08374
0.072505
0.077965
0.083635
0.0716722
0.085945
0.077565
0.073135
0.070195
0.100064
0.108309
0.0997604
0.104337
0.109899
0.104504
0.0929567
0.101204
0.110188
0.092344
0.0935806
0.103265
0.107565
0.0962284
0.0908375
0.0985799
0.112743
0.102973
0.096628
0.0969139
0.102226
0.0977208
0.104909
0.108593
0.107716
0.114389
0.102113
0.0905417
0.0889484
0.102607
0.0971965
0.112803
0.110441
0.101259
0.0908391
0.0926735
0.0929284
0.0994136
0.119765
0.0921478
0.0982676
0.109898
0.113856
0.0988527
0.0940746
0.0937116
0.0903854
0.0923929
0.0942341
0.111357
0.103976
0.0945572
0.0874684
0.101845
0.102683
0.112154
0.0995557
0.093116
0.0882879
0.0994147
0.105581
0.102058
0.102644
0.0989379
0.0965627
0.103491
0.094335
0.107509
0.0871719
0.0989438
0.0875759
0.0914673
0.0913039
0.0905316
0.0923983
0.107365
0.091047
0.10114
0.0903541
0.0968656
0.0951614
0.101043
0.0932873
0.0949749
0.0959829
0.0893038
0.0892683
0.0983601
0.0904944
0.0941972
0.111306
0.102525
0.0876528
0.0901515
0.116608
0.114153
0.0962541
0.103457
0.112113
0.0974725
0.0950985
0.0960471
0.0879507
0.112099
0.101003
0.0873021
0.115812
0.100386
0.10632
0.0860306
0.0948473
0.103852
0.101147
0.109783
0.109354
0.111128
0.103298
0.105226
0.113644
0.107353
0.0876415
0.0906576
0.0926059
0.102957
0.101727
0.108064
0.0942584
0.112547
0.0873451
0.106891
0.0921374
0.0862099
0.112699
0.0870963
0.102595
0.098334
0.0999219
0.10689
0.103107
0.0884972
0.0894769
0.0871361
0.0859504
0.0981862
0.0900627
0.0869923
0.108745
0.107968
0.105011
0.0916667
0.10934
0.0865659
0.108873
0.112726
0.092737
0.110914
0.0947247
0.110061
0.112485
0.0900116
0.0985224
0.106797
0.0927212
0.0995347
0.0978017
0.0988003
0.109248
0.0929956
0.102963
0.0888838
0.0885862
0.0997177
0.0962156
0.0950224
0.0984609
0.10932
0.0903294
0.0988126
0.0964083
0.0893253
0.122295
0.10684
0.102544
0.119385
0.12261
0.0989759
0.123345
0.121455
0.126565
0.120405
0.11452
0.11305
0.108305
0.120191
0.129865
0.107603
0.109905
0.11347
0.12072
0.117985
0.108005
0.10105
0.108505
0.111895
0.108705
0.11263
0.109301
0.120195
0.11494
0.106405
0.10565
0.119185
0.111685
0.104927
0.106905
0.110215
0.112735
0.105065
0.112105
0.11053
0.11326
0.0897582
0.106004
0.11515
0.104435
0.109705
0.1058
0.112945
0.117885
0.103579
0.11221
0.11578
0.113785
0.104645
0.106305
0.105343
0.104855
0.111055
0.106705
0.101608
0.12366
0.102563
0.109305
0.106418
0.101705
0.10181
0.107705
0.108205
0.10517
0.126865
0.103385
0.103243
0.117785
0.109205
0.102125
0.104015
0.10538
0.107505
0.105695
0.106205
0.099925
0.099625
0.100655
0.100445
0.115675
0.102335
0.0928481
0.10139
0.10286
0.0870418
0.10202
0.109105
0.10475
0.118385
0.103595
0.10034
0.10412
0.10076
0.107105
0.0908039
0.099525
0.099825
0.097525
0.097025
0.098525
0.10328
0.098725
0.098025
0.101495
0.097925
0.100025
0.0982191
0.099125
0.107005
0.098925
0.097325
0.100235
0.099025
0.102755
0.0978436
0.100971
0.122715
0.103085
0.0954
0.095715
0.096025
0.095085
0.0952573
0.100865
0.105905
0.110425
0.09561
0.117285
0.098425
0.101285
0.107905
0.106605
0.116785
0.096525
0.107205
0.09477
0.102965
0.094245
0.103805
0.096825
0.095505
0.10307
0.118285
0.10013
0.107805
0.097625
0.10223
0.097225
0.092355
0.0973318
0.0929013
0.09309
0.09162
0.094455
0.118085
0.096625
0.0874164
0.091725
0.098225
0.104225
0.105485
0.09225
0.096125
0.0928031
0.09498
0.092985
0.0864868
0.09204
0.0903126
0.09393
0.090045
0.098625
0.090675
0.0933
0.091515
0.089845
0.091107
0.092775
0.088807
0.0936182
0.096225
0.09183
0.088745
0.0919227
0.108605
0.091935
0.0895637
0.088445
0.096725
0.0873719
0.09141
0.09456
0.0871063
0.09036
0.100546
0.089648
0.088245
0.09267
0.0869427
0.089445
0.087945
0.102545
0.0854237
0.089145
0.094035
0.093825
0.093195
0.097125
0.105275
0.088545
0.086545
0.0868103
0.113274
0.122608
0.155471
0.133921
0.13072
0.131188
0.125108
0.157432
0.131063
0.113287
0.139485
0.114021
0.120275
0.136111
0.139796
0.132135
0.165551
0.164647
0.139851
0.119706
0.147967
0.136613
0.157801
0.12049
0.117779
0.158131
0.114525
0.136687
0.12597
0.144932
0.150202
0.131955
0.124576
0.147951
0.125287
0.129282
0.128911
0.148085
0.13627
0.121691
0.117316
0.119021
0.11572
0.120105
0.127382
0.158589
0.125065
0.150348
0.11973
0.150596
0.128885
0.156604
0.166818
0.16376
0.149824
0.146901
0.146313
0.130676
0.14475
0.150726
0.135479
0.180798
0.143093
0.145041
0.138131
0.163401
0.141013
0.151619
0.138752
0.115017
0.160959
0.133754
0.113335
0.118548
0.14311
0.123059
0.136128
0.131249
0.16744
0.120211
0.135014
0.120862
0.111438
0.142654
0.112028
0.113057
0.116201
0.124917
0.144927
0.151854
0.117275
0.115566
0.127097
0.126636
0.136475
0.160383
0.110785
0.130657
0.143485
0.112219
0.133582
0.139028
0.138431
0.115326
0.12662
0.160962
0.160515
0.135709
0.121128
0.109116
0.14637
0.144491
0.144431
0.161991
0.121598
0.157657
0.1744
0.129657
0.138584
0.123189
0.129849
0.156497
0.151215
0.153147
0.119317
0.132924
0.151221
0.155455
0.157479
0.142354
0.154039
0.142528
0.148562
0.137461
0.142745
0.125496
0.113315
0.125283
0.126538
0.113751
0.126608
0.136119
0.113742
0.130964
0.13439
0.125235
0.114924
0.128634
0.153037
0.152182
0.111132
0.122864
0.126369
0.116718
0.125335
0.157092
0.154904
0.160563
0.109276
0.112793
0.134553
0.138221
0.122425
0.170593
0.134766
0.11219
0.119708
0.12878
0.13
0.151452
0.135883
0.135503
0.151751
0.113723
0.113951
0.142358
0.147908
0.123466
0.140224
0.11181
0.129299
0.141175
0.140072
0.117023
0.108019
0.143578
0.132191
0.161553
0.149496
0.12224
0.166753
0.111593
0.120042
0.136145
0.140727
0.117208
0.13395
0.129435
0.144971
0.123911
0.145212
0.146414
0.186745
0.15339
0.114409
0.17135
0.19015
0.182585
0.170615
0.122618
0.164806
0.19351
0.160729
0.167585
0.172085
0.165885
0.112846
0.187745
0.192145
0.174185
0.186845
0.164016
0.168885
0.17387
0.16137
0.167685
0.16431
0.162117
0.17408
0.161895
0.136526
0.16032
0.162948
0.180065
0.159771
0.146285
0.162525
0.16116
0.165482
0.158182
0.169598
0.160298
0.156805
0.189645
0.166985
0.156696
0.173765
0.14389
0.158729
0.158605
0.156404
0.16011
0.158005
0.155485
0.157884
0.15598
0.165675
0.172291
0.169789
0.156105
0.159905
0.160327
0.155074
0.140073
0.157505
0.157135
0.132495
0.154225
0.169185
0.167185
0.160635
0.138569
0.152335
0.159605
0.154645
0.159205
0.15559
0.153595
0.160845
0.174815
0.152886
0.15538
0.18164
0.156705
0.176665
0.15391
0.163365
0.153174
0.160099
0.171035
0.172925
0.169085
0.110854
0.152226
0.156189
0.16158
0.153065
0.137134
0.157712
0.151614
0.15034
0.15265
0.152755
0.155275
0.110806
0.154435
0.155695
0.152864
0.157205
0.16095
0.157005
0.156405
0.157705
0.1342
0.158305
0.156905
0.148825
0.162945
0.154105
0.149725
0.149225
0.153175
0.147215
0.158505
0.147229
0.150445
0.159505
0.150666
0.142212
0.146831
0.16452
0.112757
0.148425
0.157305
0.162105
0.145925
0.167885
0.115806
0.15349
0.151285
0.146515
0.15223
0.15286
0.147525
0.148525
0.153805
0.14561
0.145505
0.146125
0.14414
0.147797
0.145041
0.148123
0.145932
0.151495
0.140609
0.14225
0.115237
0.159705
0.144327
0.143415
0.159405
0.149925
0.164205
0.144875
0.142029
0.140675
0.154015
0.151915
0.144981
0.144665
0.14246
0.152125
0.142397
0.143615
0.207321
0.110624
0.141935
0.157905
0.15055
0.138941
0.140932
0.114445
0.158705
0.142775
0.139445
0.15454
0.150025
0.147625
0.144455
0.15013
0.14183
0.150021
0.113896
0.138349
0.16179
0.140477
0.155481
0.148225
0.150865
0.137045
0.14393
0.135627
0.140678
0.14141
0.141725
0.139053
0.138545
0.136741
0.136645
0.13542
0.137155
0.14105
0.145085
0.144245
0.134895
0.136338
0.166685
0.147125
0.13395
0.13479
0.113034
0.129413
0.13374
0.138345
0.145715
0.123195
0.136845
0.169785
0.141515
0.15118
0.116891
0.134448
0.138745
0.1329
0.137645
0.117196
0.132934
0.139545
0.132067
0.14309
0.114623
0.135735
0.133215
0.133675
0.137945
0.14099
0.140045
0.137845
0.159105
0.146225
0.137345
0.147825
0.13143
0.143195
0.131115
0.136945
0.126101
0.14162
0.133005
0.141095
0.130022
0.129235
0.138045
0.131535
0.134363
0.133845
0.131323
0.1516
0.13185
0.136345
0.128665
0.13122
0.130065
0.133425
0.131718
0.136245
0.145186
0.150655
0.147725
0.130778
0.13563
0.129451
0.127165
0.136545
0.13038
0.127317
0.126854
0.114472
0.128765
0.13521
0.126365
0.13227
0.128565
0.12513
0.132556
0.126065
0.132585
0.129259
0.138645
0.141826
0.129065
0.138845
0.123776
0.127404
0.12906
0.13248
0.13059
0.13584
0.129965
0.130397
0.127056
0.133635
0.110063
0.135945
0.129765
0.125201
0.13017
0.138945
0.121985
0.128065
0.127065
0.124746
0.123199
0.143825
0.1308
0.110171
0.119868
0.12219
0.121875
0.122925
0.129665
0.12303
0.122745
0.138763
0.128965
0.121123
0.123656
0.127665
0.137745
0.128465
0.140465
0.128165
0.12051
0.124811
0.1245
0.12492
0.140255
0.12555
0.125965
0.136045
0.12198
0.12282
0.121245
0.123135
0.14204
0.13206
0.125336
0.12009
0.127465
0.124706
0.1454
0.117909
0.13101
0.132375
0.123555
0.12576
0.11939
0.13311
0.126265
0.134475
0.134055
0.138245
0.123975
0.119199
0.115885
0.119685
0.120615
0.1141
0.12156
0.118985
0.128774
0.116185
0.12408
0.115227
0.114531
0.115439
0.116885
0.116485
0.116585
0.114123
0.124199
0.121035
0.116385
0.117085
0.115473
0.11284
0.127965
0.12177
0.136145
0.118585
0.116263
0.112315
0.12345
0.111475
0.117585
0.127365
0.1224
0.111484
0.117681
0.125025
0.113058
0.112525
0.11389
0.116685
0.11032
0.125562
0.117385
0.114415
0.11368
0.114603
0.116985
0.119085
0.109251
0.129465
0.109605
0.108805
0.109005
0.107405
0.114944
)


// ************************************************************************* //
