/*--------------------------------*- C++ -*----------------------------------*\
  =========                 |
  \\      /  F ield         | OpenFOAM: The Open Source CFD Toolbox
   \\    /   O peration     | Website:  https://openfoam.org
    \\  /    A nd           | Version:  7
     \\/     M anipulation  |
\*---------------------------------------------------------------------------*/
FoamFile
{
    version     2.0;
    format      ascii;
    class       labelField;
    location    "0.7/lagrangian/reactingCloud1";
    object      cellId;
}
// * * * * * * * * * * * * * * * * * * * * * * * * * * * * * * * * * * * * * //


2453
(
2875
2758
2739
2656
2526
2113
2422
2318
2330
1836
2112
2091
1994
1937
1852
1792
1732
1689
1529
1450
1370
1328
1226
1178
1090
1089
1040
997
817
846
765
694
627
569
416
411
357
304
219
146
98
12
861
656
2423
3309
3380
3519
3459
3546
3188
3559
3341
2976
3051
2908
2701
3075
2564
2709
2566
2801
2503
2511
2520
2369
2621
2020
2391
2161
2259
2171
2199
1966
1340
1897
1751
1757
1936
1773
1695
1628
1642
1572
1415
1445
1283
1221
1174
1176
247
954
875
803
756
596
706
539
458
388
318
404
341
307
207
129
48
156
39
8105
7236
6151
4722
1830
1769
1652
1740
1436
1290
1027
949
762
684
480
420
303
215
221
128
92
8170
7854
7866
6454
7597
7031
6738
5379
5110
3945
3400
2838
50
9734
9763
7802
7786
6406
6397
5551
3890
3081
3321
3330
3068
1954
271
9660
8835
7747
7441
7472
6917
5759
4921
4092
3844
2982
2451
2131
1853
1862
457
163
6299
9585
9619
8474
8783
8764
7639
7644
7927
7370
7094
6809
6532
6271
6264
5978
4060
4027
4020
3740
3494
3456
2927
2365
2063
952
380
678
405
385
409
117
9809
9264
8690
8701
8706
8434
8151
7328
5886
6166
6194
6203
5943
5338
5655
5058
5362
3957
3669
3960
3670
3104
3117
2858
2841
2261
2260
2555
2288
2297
1430
1164
1185
570
319
39
6155
9503
5597
9782
5039
3644
6992
3923
5597
3365
7550
7829
9162
9742
9738
9762
9469
9503
9484
9492
9479
9184
8894
9197
8923
8657
8640
8062
8060
7783
7795
7792
7508
7513
7247
6948
6968
6415
6105
6113
5545
4993
4710
4143
4455
4459
4197
4150
3582
4174
4182
3875
3634
3620
2745
2781
2760
2772
2770
2473
1913
2225
1932
1917
1678
1923
1630
1951
1642
820
819
810
512
284
553
277
8315
7199
9431
8873
8315
3851
6362
2177
8315
8594
1061
5804
9337
5246
9653
9376
9394
8233
9429
8249
9143
8276
8579
8585
7710
7430
7708
8588
8287
7430
7723
7433
6566
6871
7442
6569
7464
6591
6877
6595
6908
6604
6629
4859
6611
5737
6034
5754
5167
6346
5774
5219
4350
4932
4347
4067
4659
4362
4360
4370
4386
4376
4088
4116
3811
3516
3529
3523
3242
3541
3549
3560
3553
3264
3282
2980
2989
2998
2147
1857
1586
1308
1285
1297
1332
1316
1320
1052
763
767
465
170
200
5732
6011
4337
4895
8522
4895
5174
2942
9638
2942
6011
2384
2663
9638
2105
8801
2105
2105
2105
1826
6011
5453
1826
4616
2663
3221
9359
710
8243
8522
9284
9320
8748
9331
9340
8774
8777
6569
7344
7633
7049
8214
7368
7072
7661
6782
6499
6518
6515
7385
4477
6236
6529
5964
6240
5680
5394
5694
5695
5400
5704
5409
5708
5415
5444
4274
5152
4574
4574
3985
4284
3996
3996
4021
4024
4029
3739
3746
3159
3749
3468
2307
2937
2318
2338
2337
2382
2347
1782
2085
2075
1774
1803
1504
1508
1547
937
976
700
349
106
60
114
8450
8729
6497
4265
7334
7892
3149
9287
5660
7055
2870
4823
3707
2870
6218
7055
6776
7055
2870
5660
3986
2591
6218
6776
4265
3707
2591
8729
9566
3707
7613
2312
7613
7613
9008
1754
9008
9287
6497
8171
8171
2312
5102
8450
4823
8171
4265
7892
4823
2591
8729
7055
9287
9566
9008
1196
3149
4544
8729
3986
5939
917
2591
6776
638
5660
9566
4823
5939
1475
5660
6218
9008
3986
4265
9566
8171
359
5102
9488
9764
9763
9500
8637
8629
9791
9530
9820
9262
8961
9252
9539
8708
8968
8981
8096
8424
9557
7824
8694
8392
9272
8414
8706
8706
8127
8119
8707
8144
8154
5814
8150
6685
7294
7273
7873
6149
6712
7583
7292
7300
7306
7608
6439
6730
5850
7328
6738
6456
6462
4963
6450
6177
4948
6489
6188
6205
5911
5036
5912
5333
5920
5038
5929
4744
5929
4743
4793
4502
4793
3887
4798
4205
3920
4519
3908
4536
4530
4235
4231
3952
3327
3947
3340
3068
3959
3668
3356
3955
3660
3080
3684
3393
3391
2798
2824
3129
3127
3114
2809
2820
3149
2848
2186
2541
2848
2536
2255
2312
2570
2565
2267
2260
2590
2287
80
1999
1989
2018
1688
2019
1722
1413
1434
1456
1471
1470
1136
1170
876
871
889
888
594
591
307
308
35
5588
3356
3914
9773
3077
2798
4472
3635
4472
3077
7262
3635
7820
2798
3077
2798
7820
9494
4751
3635
6983
7262
6983
5030
7262
6146
5588
2240
9773
8099
5588
5588
3356
6146
4472
6425
3635
2240
8936
9494
9215
4751
8378
2798
4193
9215
5030
4472
8099
3914
6146
5309
6146
6146
7541
8378
6704
2798
8936
8099
3635
1961
3356
9494
9494
4472
4472
9494
6146
5309
9773
9215
9494
2519
7820
6425
7820
9494
4193
7262
1403
6704
1682
4193
7262
1403
6983
1403
9494
8378
4472
3077
3914
6425
9773
3077
4193
5867
3635
6704
6146
9215
2519
6425
5309
6983
1682
4472
6704
1124
8936
4751
1124
1403
8378
4193
6983
1961
4193
8657
1961
4193
7541
845
4193
6146
2519
3914
7820
4193
1682
3077
7541
5030
3635
5588
7262
1961
845
2240
845
1682
3077
6983
2240
6704
1124
8657
4751
5030
9494
4751
5588
566
5867
5309
6704
566
8936
8657
5030
4472
4193
4472
9494
9494
845
7820
3914
287
7820
5030
4193
287
6425
2519
4193
1403
287
5867
8378
287
287
8936
845
9215
566
9773
3356
8378
8
8
9045
3635
3356
8530
9129
8551
9439
9752
9438
7064
7093
9723
8009
9762
7981
9773
8567
9145
9186
9483
9176
9477
8003
8891
8035
6833
8622
8913
8897
7990
7753
8349
8343
7763
8083
7430
8365
7807
7188
7540
6605
7176
7507
7237
6607
7250
3914
7233
6964
6648
6958
6951
6983
5479
6681
6965
6686
6373
5804
8
6075
6395
5223
6114
6406
6118
6108
6130
6117
5504
5848
5579
5307
5276
5294
4958
5287
8
4429
4416
4442
3787
4448
4193
2915
1682
8
3565
3869
3900
3626
3590
2953
2689
2702
2694
3002
3346
2687
3032
3053
3046
3050
2441
2788
2446
2518
2512
2456
2472
2449
2511
2780
2485
2506
2209
2221
1954
1943
1929
1934
1610
1931
1650
1305
1348
1368
1039
1368
1393
1362
1057
1058
725
825
806
808
540
522
518
543
556
529
183
269
249
233
6911
6353
5795
9701
3842
8306
5795
6632
6632
4400
8027
3842
5237
2726
4400
9143
3005
8585
8027
4958
2726
4958
6632
4121
7748
8027
2726
6632
9422
5795
5795
2168
8027
8306
3563
8027
7469
5237
4679
8585
5795
8027
4121
5795
8306
5795
3842
4121
5237
6911
4400
6074
2447
6911
2447
5795
9422
8585
6353
7190
8306
2726
1889
4121
2168
1610
3284
6353
4958
8585
9143
6074
9422
9143
5237
6632
7190
3842
3284
4958
4121
1610
8585
7469
2726
6353
6353
6632
8027
3563
3563
9143
3842
8306
3005
1331
2726
4679
9701
8585
1052
1331
4121
6353
5795
9422
9422
5795
7748
3005
6074
1052
1052
6632
8306
7469
1052
4121
2447
1610
7748
1052
6632
4679
8306
3005
1331
1052
7469
1052
773
3563
9701
7748
4121
1052
3284
773
1331
6911
3284
773
3005
773
7190
2168
9135
773
5795
1331
7469
2168
8864
773
773
773
773
8585
2726
7748
9701
4121
9701
8306
4400
494
8027
6632
8864
8585
1052
4400
494
773
4679
4958
6074
1889
494
494
3284
494
4121
2447
4400
773
4958
4121
2168
2168
773
7190
494
5795
8027
3005
7190
7748
215
215
4679
215
1331
8864
6632
8864
6074
5516
215
215
9763
9521
9598
9583
8725
9668
8806
9421
9376
9114
8809
8777
9137
8797
8840
6733
9134
8559
8566
7940
8573
7901
8270
7961
6787
7681
7679
8304
7683
6767
7406
7708
7433
7096
7377
6232
6255
5944
7169
6566
6860
6608
6603
5367
5682
6325
5704
6048
6308
6036
6349
5721
6074
6038
6071
2447
6069
6074
5060
6071
5447
5440
6018
5498
5751
5177
4863
5156
5173
5512
3284
5219
4591
4676
4677
4658
4375
4397
3405
4075
3149
4385
4059
3808
3811
3499
3813
3181
3810
3531
3809
3798
3560
3177
3509
3229
3277
3262
3541
3275
2956
2431
2691
2695
2697
2053
2392
2405
2133
1852
1876
1503
1853
1442
1882
1568
1232
1540
1587
1521
1599
1557
1262
1252
1302
1304
1295
1316
1315
1318
1051
1052
964
1024
1020
670
698
757
705
365
494
353
460
487
198
6281
9350
6839
7955
9629
8234
2375
6002
9065
2096
4049
8234
6281
2654
1817
5723
7676
4607
6002
6002
7397
5444
6560
6839
8513
8792
6281
1817
2375
6839
5444
9629
9629
6560
2654
4049
2933
3491
8234
4049
5165
9350
7676
5723
1817
3212
2375
3212
4607
8234
6002
4886
1538
6281
7955
8513
7397
3770
1259
6281
8234
7955
6002
6560
5723
7397
2375
9071
1259
6560
1259
3491
2933
3212
980
8792
2654
7397
1259
4328
1259
7397
2654
4328
5165
2375
2096
2096
1817
3770
5165
8179
980
2933
6839
2096
4607
7676
9350
4886
4328
5723
1817
7676
6839
701
9350
4328
8792
701
1817
8513
7676
9629
7955
9629
3212
7676
9350
9350
701
1538
3770
7397
5165
8792
1259
9071
422
9629
2933
701
8513
422
2096
6002
5723
8513
7676
422
422
980
422
2654
2654
980
7676
9071
8234
422
9629
422
9071
7676
1817
9350
2375
8792
9350
422
6281
4328
4049
6560
3212
6002
5444
3770
7676
422
2375
6281
4049
143
3491
9350
2375
6560
4607
422
9718
9629
8234
9739
9149
6560
9515
9496
9193
9537
9252
9471
9548
8020
9227
9566
8970
8902
9250
9270
9617
7676
9599
8960
9030
8930
8332
8039
8676
8716
9056
8074
8737
9069
8754
8746
8412
8496
8416
8461
8349
2654
8763
8436
8479
8144
8482
7830
8129
8509
7560
7876
7544
8159
7528
8230
7949
7886
7258
7614
7295
7317
6939
7395
7356
7577
7362
6811
6996
6654
7037
7388
6693
6744
7345
6836
6732
6756
6763
6416
7091
6438
7053
6503
5537
6496
1538
6827
6812
701
6533
6838
6527
5543
5917
5597
6260
6540
5882
1538
5277
5957
5993
5978
5996
5687
5713
5706
5307
5423
5722
5428
5062
5396
5425
5694
5423
5066
4767
5107
5423
5090
4489
5148
5427
5135
5132
4883
5074
4836
4816
4866
4181
4555
4587
4589
4266
3864
4284
3925
4294
4276
4295
3938
3974
3628
3598
3298
4000
3703
3681
3621
3760
3417
3767
3476
3488
3482
3465
2814
3156
422
3190
3046
2798
2824
2805
2872
2917
2906
2880
143
2609
2649
2349
2634
2308
2284
2029
2089
2302
2057
2020
1707
1814
1468
1468
1517
1527
1426
1515
143
1510
1218
1243
1218
1200
973
966
870
953
650
609
647
394
384
497
421
391
548
317
124
44
99
110
41
96
908
3140
9557
5651
5093
4535
4256
8720
5372
1187
7046
908
3140
5930
4814
5930
9557
9557
6767
1745
7883
4256
8720
2861
2303
9557
2024
5651
3698
7325
8162
3698
2303
7325
3977
5093
4535
5651
4535
2861
1745
1745
1745
2861
4814
9219
2582
6209
3140
8441
4814
7604
9557
8720
8441
7325
6209
5093
7883
7046
4814
9557
6488
7604
5651
9278
6767
8720
3977
1745
9836
5093
1745
2024
7046
3140
5093
4814
8720
1745
5930
2024
1466
7325
629
908
629
4535
5930
8720
1187
908
2861
3698
5093
8162
908
4814
7604
1187
3977
6767
2024
629
4814
8162
9557
6767
1466
350
7046
7604
7046
9557
3419
9557
9836
5372
7325
2861
4535
8999
7604
7883
3140
4814
8441
8162
9557
6488
8999
7046
6767
4535
6209
4256
1745
2861
2861
1187
3977
6488
350
4535
4814
4256
1466
4535
8162
7604
908
3140
3977
908
2582
8162
9278
9557
350
908
6209
5930
3698
9836
4256
1187
3419
4535
3977
8441
5930
6209
8441
629
1466
7046
6209
2861
6767
629
5093
6209
6209
2582
350
6209
4814
9557
7883
71
9836
71
1187
4814
7325
1187
5930
71
7604
3698
8162
7883
9618
7325
908
9618
9325
9641
9627
2582
9639
9356
8720
9687
9768
9791
908
9396
8502
9074
9320
9115
9418
9791
9730
9456
9783
9833
9110
9673
6209
9817
9062
9112
9532
5930
9513
9523
9525
9726
9268
9469
9156
9222
8835
9538
9091
8162
8802
9220
9549
9148
9184
8889
9277
8916
9198
9191
8924
8953
9205
8953
8975
6767
8905
9104
5651
8923
8850
8233
8929
7046
8516
7916
8979
8975
8569
8630
8842
8692
8376
8656
8259
8667
7377
8693
8288
8716
7965
8714
7957
7634
629
8416
8162
8643
8258
4814
8694
8980
8370
8376
8660
8417
629
8424
8431
8350
8395
8381
8376
8382
8056
6209
8385
8057
8355
7410
8130
7382
8107
8147
8068
7733
8031
7753
8076
7808
7604
7877
8103
1187
7837
7485
7868
7850
7512
2303
7432
7531
7871
7580
8107
7835
7576
7490
7589
7283
6866
7559
6836
7504
7201
7302
7167
7046
7283
71
6522
7262
7268
6561
7298
6584
6926
7013
7319
6961
6266
7001
6922
6999
7010
7014
7020
7019
71
6630
7039
6264
6719
6209
1745
6660
6722
6707
5994
6690
6755
6331
6685
6442
6034
1187
6463
5109
6767
6384
6378
6403
6486
6402
4535
6767
6103
6452
6400
6176
6121
6161
6203
6455
6423
6128
5831
6199
6173
5454
5786
6182
5921
71
4814
5926
5867
5872
3977
5585
4840
5798
5504
629
5614
5595
5633
5539
2582
5610
4890
5608
5524
2024
5622
5609
5610
5315
5308
5243
5323
4896
5302
5259
4901
5238
4891
5350
5042
3419
5012
5348
4987
4878
5006
5080
5081
5081
5061
4773
4358
4760
4763
4753
4795
4720
4741
4766
4754
4358
4704
4366
4535
4409
4810
4504
4730
4443
4519
4534
71
4432
4440
4528
4081
4530
4510
4081
4503
4137
4217
3767
4109
3854
3796
4231
4250
4236
3811
4231
3842
4250
4149
3937
3820
629
4124
3924
3871
3616
3855
3698
3631
3618
3633
3140
3252
3363
71
2582
3678
3393
3382
3360
3419
3140
2606
3342
3413
3107
3410
3048
3279
3316
2978
3117
2944
2949
3115
2682
3012
2622
3048
2856
2813
2828
2713
2370
3070
2565
2550
2521
2498
2106
2024
2531
2402
2420
2257
2549
2171
2292
1850
2164
2171
2177
1958
1998
2012
1990
2024
1680
1678
1729
1720
1560
1745
1741
1725
1675
1680
1940
1725
1456
1402
1437
1430
1130
1168
1025
993
998
1088
894
871
1105
872
1020
1113
851
904
609
757
591
582
549
533
320
348
292
261
307
232
13
258
71
100
275
49
60
10
70
)


// ************************************************************************* //
