/*--------------------------------*- C++ -*----------------------------------*\
  =========                 |
  \\      /  F ield         | OpenFOAM: The Open Source CFD Toolbox
   \\    /   O peration     | Website:  https://openfoam.org
    \\  /    A nd           | Version:  7
     \\/     M anipulation  |
\*---------------------------------------------------------------------------*/
FoamFile
{
    version     2.0;
    format      ascii;
    class       scalarField;
    location    "0.7/lagrangian/reactingCloud1";
    object      cellDensity;
}
// * * * * * * * * * * * * * * * * * * * * * * * * * * * * * * * * * * * * * //


2453
(
0.250689
0.250235
0.250175
0.249516
0.24914
0.247119
0.249471
0.247938
0.248724
0.245179
0.246965
0.248933
0.248184
0.248449
0.247743
0.248032
0.248194
0.248444
0.248059
0.247802
0.247509
0.248
0.247377
0.247778
0.247481
0.247345
0.247759
0.247958
0.24754
0.247844
0.247769
0.247766
0.247781
0.247822
0.247801
0.247793
0.247819
0.247843
0.24783
0.247834
0.247844
0.247844
0.251763
0.25172
0.253387
0.250715
0.25036
0.249611
0.2498
0.248406
0.251367
0.248006
0.249737
0.252787
0.252096
0.253056
0.253491
0.250879
0.253614
0.253398
0.253827
0.251944
0.253908
0.253446
0.252971
0.253971
0.251946
0.253693
0.25288
0.254253
0.252894
0.253772
0.252738
0.253828
0.252135
0.253851
0.253688
0.253909
0.252712
0.253357
0.253677
0.253606
0.253158
0.25319
0.253604
0.252873
0.253502
0.253306
0.252644
0.252602
0.251676
0.25288
0.253202
0.253264
0.252402
0.253163
0.251934
0.252518
0.253062
0.252998
0.252769
0.252158
0.251801
0.251192
0.251393
0.251461
0.251679
0.251009
0.250737
0.210261
0.20941
0.217509
0.217626
0.221895
0.224715
0.228464
0.228055
0.231336
0.233704
0.237692
0.239141
0.240992
0.242247
0.244491
0.244776
0.245413
0.246693
0.246431
0.248006
0.247276
0.181355
0.187953
0.181179
0.252194
0.182491
0.183775
0.190064
0.189968
0.191081
0.212244
0.195213
0.196777
0.205909
0.186556
0.16492
0.165642
0.16676
0.166468
0.166464
0.173519
0.16889
0.170399
0.171089
0.169612
0.170263
0.172266
0.175699
0.212746
0.163933
0.16393
0.163947
0.163975
0.16404
0.174071
0.178292
0.164291
0.164309
0.164327
0.164475
0.175333
0.170581
0.164505
0.174068
0.359921
0.162983
0.243484
0.162569
0.206668
0.162646
0.164068
0.194256
0.172031
0.163806
0.163228
0.162836
0.165771
0.163563
0.1629
0.162866
0.162935
0.16325
0.163122
0.163813
0.164416
0.163298
0.178814
0.163329
0.16338
0.169136
0.163666
0.222037
0.163527
0.163582
0.185217
0.163603
0.163628
0.173548
0.162125
0.180611
0.162344
0.162135
0.16215
0.162145
0.162219
0.244898
0.238175
0.162202
0.162227
0.162285
0.190118
0.162282
0.19394
0.162242
0.16234
0.170278
0.162289
0.16775
0.195846
0.16258
0.162389
0.162372
0.229218
0.236342
0.164812
0.162372
0.162409
0.193682
0.162566
0.162498
0.359294
0.17187
0.1749
0.162036
0.161994
0.162044
0.161991
0.162053
0.162079
0.162024
0.162073
0.162044
0.162084
0.162016
0.162013
0.249402
0.177301
0.186848
0.16198
0.165924
0.161994
0.16198
0.161988
0.162018
0.176339
0.20581
0.162134
0.161989
0.161998
0.162052
0.189368
0.195145
0.188905
0.164167
0.168168
0.178062
0.167773
0.162002
0.182103
0.162003
0.162009
0.198377
0.175734
0.204425
0.184307
0.196261
0.23202
0.162028
0.162031
0.162067
0.202449
0.247366
0.162042
0.16204
0.188476
0.162072
0.16204
0.247075
0.162051
0.183629
0.162442
0.163199
0.21207
0.220388
0.162066
0.163441
0.203139
0.162109
0.182296
0.240867
0.162087
0.188201
0.162177
0.162247
0.172246
0.252641
0.162144
0.16211
0.162127
0.161939
0.161943
0.161936
0.161938
0.161939
0.16196
0.161947
0.161972
0.161939
0.161938
0.161981
0.161949
0.345265
0.161952
0.238337
0.231565
0.186586
0.328237
0.161936
0.27039
0.161949
0.188947
0.162036
0.161947
0.206701
0.208915
0.211963
0.161941
0.169289
0.208915
0.178253
0.201291
0.309177
0.210836
0.181583
0.296386
0.16198
0.213228
0.19568
0.202571
0.161955
0.182231
0.161954
0.358048
0.169839
0.27365
0.209708
0.212129
0.325966
0.161994
0.168655
0.164454
0.239897
0.175683
0.251609
0.255627
0.165905
0.201932
0.207417
0.18276
0.162293
0.171265
0.189003
0.161959
0.184009
0.22832
0.190474
0.206241
0.211738
0.167014
0.162182
0.161958
0.161995
0.164434
0.16196
0.170785
0.162367
0.161965
0.1643
0.182965
0.167138
0.16548
0.222397
0.186751
0.161976
0.162077
0.161982
0.161977
0.161976
0.161973
0.174048
0.21751
0.162031
0.161948
0.161951
0.161937
0.161941
0.162009
0.161941
0.161943
0.161933
0.162065
0.161933
0.161951
0.161932
0.161933
0.162065
0.161932
0.16202
0.161932
0.161932
0.161932
0.161933
0.161951
0.161945
0.161933
0.161939
0.161933
0.161933
0.162047
0.161934
0.161999
0.162009
0.298616
0.207974
0.241143
0.18653
0.172652
0.183769
0.178946
0.161959
0.264457
0.236361
0.306956
0.18613
0.201724
0.243739
0.177036
0.27568
0.287027
0.231472
0.23989
0.172283
0.371944
0.239386
0.204362
0.219786
0.228207
0.23265
0.253014
0.19854
0.196495
0.234976
0.180105
0.211327
0.173942
0.198037
0.162144
0.264454
0.170363
0.205168
0.205168
0.296351
0.232949
0.260831
0.260831
0.193611
0.187833
0.179081
0.19934
0.185547
0.259836
0.180306
0.183314
0.309258
0.161946
0.273088
0.210794
0.213284
0.161934
0.19091
0.205115
0.164548
0.177726
0.225825
0.167219
0.20237
0.193658
0.161933
0.22455
0.162061
0.16197
0.324826
0.20738
0.342236
0.189454
0.194911
0.197109
0.179962
0.166997
0.186199
0.190526
0.163887
0.201487
0.174278
0.184077
0.163454
0.169497
0.165136
0.163454
0.17799
0.184077
0.181994
0.184077
0.163454
0.174278
0.165985
0.163121
0.17799
0.181994
0.166997
0.165136
0.163121
0.197109
0.203658
0.165136
0.188351
0.162864
0.188351
0.188351
0.199302
0.16251
0.199302
0.201487
0.179962
0.192715
0.192715
0.162864
0.170967
0.194911
0.169497
0.192715
0.166997
0.190526
0.169497
0.163121
0.197109
0.184077
0.201487
0.203658
0.199302
0.162288
0.163887
0.16817
0.197109
0.165985
0.176091
0.162215
0.163121
0.181994
0.16216
0.174278
0.203658
0.169497
0.176091
0.162386
0.174278
0.17799
0.199302
0.165985
0.166997
0.203658
0.192715
0.162119
0.170967
0.299652
0.303548
0.304827
0.283058
0.31786
0.327118
0.266066
0.23896
0.225275
0.222422
0.253659
0.236434
0.226464
0.21418
0.242894
0.223754
0.295462
0.219608
0.207104
0.284856
0.23425
0.269749
0.210454
0.234718
0.216838
0.216838
0.246578
0.259631
0.215497
0.219721
0.205815
0.35448
0.211094
0.318375
0.237257
0.27312
0.206803
0.285707
0.277589
0.221784
0.240678
0.22713
0.217328
0.190066
0.266854
0.246011
0.316567
0.188705
0.23184
0.236197
0.225517
0.365245
0.247046
0.235264
0.373566
0.18477
0.215636
0.189049
0.210946
0.279891
0.209235
0.245928
0.196216
0.276182
0.183627
0.302584
0.183627
0.304204
0.209552
0.231519
0.209552
0.33209
0.200671
0.267531
0.279238
0.199407
0.30144
0.174002
0.181862
0.207145
0.2147
0.213562
0.335341
0.223478
0.318106
0.307259
0.200467
0.222433
0.290788
0.207824
0.239163
0.284898
0.192273
0.21327
0.21729
0.290884
0.234407
0.185004
0.188253
0.212153
0.267859
0.243315
0.163887
0.187129
0.35988
0.242545
0.187129
0.253949
0.257984
0.162864
0.184415
0.192843
0.230345
0.246392
0.163204
0.19
0.162088
0.20571
0.227134
0.173575
0.277997
0.172263
0.200665
0.268435
0.218375
0.177382
0.162824
0.163105
0.263188
0.187567
0.216346
0.227949
0.190127
0.191923
0.222341
0.229518
0.241277
0.238728
0.223137
0.242899
0.22959
0.23311
0.262874
0.22778
0.225938
0.2365
0.231367
0.2365
0.22778
0.251602
0.231367
0.254281
0.225938
0.22778
0.225938
0.254281
0.261716
0.238147
0.231367
0.250222
0.251602
0.250222
0.239762
0.251602
0.245915
0.242899
0.222155
0.262874
0.255581
0.242899
0.242899
0.22959
0.245915
0.2365
0.247379
0.231367
0.222155
0.259334
0.261716
0.260537
0.238147
0.256857
0.225938
0.234822
0.260537
0.239762
0.2365
0.255581
0.23311
0.245915
0.241346
0.245915
0.245915
0.252954
0.256857
0.248815
0.225938
0.259334
0.255581
0.231367
0.220215
0.22959
0.261716
0.261716
0.2365
0.2365
0.261716
0.245915
0.241346
0.262874
0.260537
0.261716
0.224063
0.254281
0.247379
0.254281
0.261716
0.234822
0.251602
0.216241
0.248815
0.218243
0.234822
0.251602
0.216241
0.250222
0.216241
0.261716
0.256857
0.2365
0.22778
0.23311
0.247379
0.262874
0.22778
0.234822
0.244422
0.231367
0.248815
0.245915
0.260537
0.224063
0.247379
0.241346
0.250222
0.218243
0.2365
0.248815
0.214208
0.259334
0.238147
0.214208
0.216241
0.256857
0.234822
0.250222
0.220215
0.234822
0.258107
0.220215
0.234822
0.252954
0.212148
0.234822
0.245915
0.224063
0.23311
0.254281
0.234822
0.218243
0.22778
0.252954
0.239762
0.231367
0.242899
0.251602
0.220215
0.212148
0.222155
0.212148
0.218243
0.22778
0.250222
0.222155
0.248815
0.214208
0.258107
0.238147
0.239762
0.261716
0.238147
0.242899
0.210061
0.244422
0.241346
0.248815
0.210061
0.259334
0.258107
0.239762
0.2365
0.234822
0.2365
0.261716
0.261716
0.212148
0.254281
0.23311
0.207948
0.254281
0.239762
0.234822
0.207948
0.247379
0.224063
0.234822
0.216241
0.207948
0.244422
0.256857
0.207948
0.207948
0.259334
0.212148
0.260537
0.210061
0.262874
0.22959
0.256857
0.205813
0.205813
0.370462
0.231367
0.22959
0.34272
0.31088
0.326919
0.286667
0.267224
0.287412
0.387886
0.371516
0.283667
0.31373
0.26415
0.336445
0.262874
0.313915
0.297874
0.268917
0.26303
0.274803
0.264719
0.318804
0.278091
0.291325
0.359344
0.270542
0.26495
0.273983
0.329443
0.293501
0.265975
0.26964
0.284891
0.258687
0.331249
0.258889
0.256443
0.299089
0.252979
0.321429
0.309939
0.266175
0.259433
0.319667
0.253583
0.23311
0.261856
0.255085
0.281785
0.258299
0.262818
0.250222
0.33055
0.255969
0.254618
0.253356
0.277531
0.286933
0.205813
0.295126
0.259317
0.309337
0.259712
0.25257
0.256808
0.26447
0.249809
0.257511
0.307452
0.249971
0.244313
0.241443
0.257327
0.245175
0.295017
0.249123
0.205813
0.263703
0.277298
0.251441
0.346664
0.246591
0.234822
0.370813
0.218243
0.205813
0.291569
0.26413
0.237161
0.233212
0.263326
0.345167
0.332516
0.319812
0.32779
0.296849
0.23193
0.334349
0.261717
0.239841
0.246475
0.242573
0.300075
0.228478
0.29419
0.224109
0.225427
0.282107
0.262518
0.290601
0.225812
0.233443
0.247345
0.228372
0.242879
0.2311
0.221704
0.228667
0.242803
0.237291
0.292466
0.24055
0.241619
0.322735
0.270128
0.244098
0.308273
0.244098
0.219396
0.251698
0.285642
0.284325
0.344315
0.224094
0.247187
0.24453
0.229326
0.253122
0.258717
0.225804
0.21368
0.243497
0.329951
0.21876
0.243851
0.266606
0.285872
0.284375
0.28283
0.292847
0.276993
0.28945
0.28283
0.285129
0.285129
0.278734
0.288751
0.276993
0.281234
0.27332
0.278734
0.291505
0.274263
0.290141
0.288751
0.280415
0.27332
0.280415
0.285129
0.277871
0.288044
0.288751
0.27332
0.285129
0.292179
0.28283
0.28283
0.271383
0.288751
0.28945
0.276099
0.288751
0.287329
0.281234
0.279582
0.290141
0.28283
0.288751
0.277871
0.28283
0.28945
0.28283
0.276993
0.277871
0.281234
0.285872
0.278734
0.283609
0.27236
0.285872
0.27236
0.28283
0.292179
0.290141
0.284375
0.286606
0.28945
0.27332
0.270387
0.277871
0.271383
0.269373
0.275189
0.284375
0.280415
0.290141
0.291505
0.283609
0.292179
0.291505
0.281234
0.285129
0.286606
0.276993
0.275189
0.280415
0.277871
0.269373
0.290141
0.287329
0.27332
0.284375
0.284375
0.285129
0.288751
0.276099
0.276099
0.291505
0.276993
0.28945
0.274263
0.26834
0.27332
0.279582
0.292847
0.290141
0.267288
0.26834
0.277871
0.284375
0.28283
0.292179
0.292179
0.28283
0.288044
0.274263
0.283609
0.267288
0.267288
0.285129
0.28945
0.287329
0.267288
0.277871
0.27236
0.269373
0.288044
0.267288
0.285129
0.279582
0.28945
0.274263
0.26834
0.267288
0.287329
0.267288
0.266216
0.276099
0.292847
0.288044
0.277871
0.267288
0.275189
0.266216
0.26834
0.285872
0.275189
0.266216
0.274263
0.266216
0.286606
0.271383
0.291827
0.266216
0.28283
0.26834
0.287329
0.271383
0.290826
0.266216
0.266216
0.266216
0.266216
0.290141
0.27332
0.288044
0.292847
0.277871
0.292847
0.28945
0.278734
0.265123
0.288751
0.285129
0.290826
0.290141
0.267288
0.278734
0.265123
0.266216
0.279582
0.280415
0.283609
0.270387
0.265123
0.265123
0.275189
0.265123
0.277871
0.27236
0.278734
0.266216
0.280415
0.277871
0.271383
0.271383
0.266216
0.286606
0.265123
0.28283
0.288751
0.274263
0.286606
0.288044
0.264009
0.264009
0.279582
0.264009
0.26834
0.290826
0.285129
0.290826
0.283609
0.282039
0.264009
0.264009
0.387364
0.369867
0.327229
0.334974
0.345944
0.297499
0.30472
0.292187
0.300994
0.295288
0.303468
0.31847
0.291693
0.3087
0.293513
0.370286
0.291907
0.293334
0.291891
0.31778
0.290865
0.339125
0.295479
0.307107
0.338069
0.307213
0.308197
0.289478
0.306244
0.349184
0.304887
0.295669
0.29372
0.321017
0.320081
0.336369
0.322854
0.341621
0.28895
0.305198
0.298441
0.288282
0.289647
0.352528
0.331619
0.28869
0.318389
0.287437
0.294802
0.291414
0.284484
0.308467
0.283609
0.290669
0.283675
0.27236
0.283776
0.283609
0.370755
0.283675
0.305308
0.309299
0.299307
0.284019
0.293247
0.299973
0.320332
0.311961
0.302142
0.282155
0.275189
0.283258
0.315785
0.279656
0.279619
0.282423
0.282783
0.27881
0.358955
0.290646
0.345531
0.280261
0.299302
0.28453
0.283341
0.299621
0.282597
0.324871
0.283728
0.282989
0.284124
0.289049
0.276181
0.32754
0.293753
0.293796
0.275584
0.278675
0.279503
0.275823
0.289834
0.274406
0.282034
0.280287
0.279474
0.332954
0.292206
0.284766
0.28052
0.280741
0.271836
0.327431
0.280239
0.367135
0.270836
0.282682
0.321635
0.30077
0.273772
0.31445
0.270455
0.289297
0.299689
0.306935
0.275301
0.274436
0.278685
0.270346
0.270608
0.269867
0.267305
0.267288
0.313391
0.27398
0.275848
0.3245
0.303406
0.268609
0.298197
0.343093
0.265123
0.350915
0.275184
0.265636
0.266846
0.307519
0.314532
0.308784
0.311326
0.315175
0.311965
0.298685
0.306888
0.313979
0.298047
0.30248
0.311965
0.307519
0.29932
0.297408
0.306257
0.310689
0.303739
0.306888
0.306888
0.310052
0.305627
0.308151
0.308784
0.312603
0.313246
0.307519
0.297408
0.298685
0.308784
0.305627
0.315175
0.315175
0.308151
0.29932
0.30248
0.299954
0.301219
0.311965
0.30248
0.304997
0.314532
0.310689
0.306257
0.297408
0.300587
0.298685
0.300587
0.303739
0.311965
0.306888
0.304368
0.296766
0.307519
0.311326
0.312603
0.310052
0.30185
0.296122
0.307519
0.311965
0.311326
0.306888
0.308151
0.306257
0.310052
0.298685
0.313887
0.296122
0.308151
0.296122
0.301219
0.299954
0.300587
0.295474
0.313246
0.29932
0.310052
0.296122
0.303109
0.296122
0.310052
0.29932
0.303109
0.304997
0.298685
0.298047
0.298047
0.297408
0.30185
0.304997
0.318767
0.295474
0.299954
0.308784
0.298047
0.303739
0.310689
0.314532
0.304368
0.303109
0.306257
0.297408
0.310689
0.308784
0.294823
0.314532
0.303109
0.313246
0.294823
0.297408
0.312603
0.310689
0.315175
0.311326
0.315175
0.300587
0.310689
0.314532
0.314532
0.294823
0.296766
0.30185
0.310052
0.304997
0.313246
0.296122
0.313887
0.294169
0.315175
0.299954
0.294823
0.312603
0.294169
0.298047
0.306888
0.306257
0.312603
0.310689
0.294169
0.294169
0.295474
0.294169
0.29932
0.29932
0.295474
0.310689
0.313887
0.311965
0.294169
0.315175
0.294169
0.313887
0.310689
0.297408
0.314532
0.298685
0.313246
0.314532
0.294169
0.307519
0.303109
0.30248
0.308151
0.300587
0.306888
0.305627
0.30185
0.310689
0.294169
0.298685
0.307519
0.30248
0.29351
0.301219
0.314532
0.298685
0.308151
0.303739
0.294169
0.370417
0.315175
0.311965
0.357876
0.378838
0.308151
0.337661
0.344036
0.352544
0.330782
0.332294
0.35294
0.327636
0.38743
0.340483
0.323057
0.332958
0.358092
0.33292
0.326972
0.315501
0.310689
0.317095
0.336239
0.317549
0.346656
0.36525
0.375221
0.337735
0.325065
0.314412
0.35393
0.31977
0.3139
0.316481
0.317904
0.332422
0.313302
0.331105
0.318601
0.35574
0.29932
0.315168
0.324949
0.315273
0.328543
0.314838
0.34048
0.333523
0.312649
0.337026
0.324771
0.342988
0.323979
0.349067
0.312011
0.311426
0.321868
0.345593
0.319536
0.33176
0.324344
0.36472
0.310067
0.314211
0.330959
0.313125
0.310869
0.338979
0.368934
0.324308
0.310277
0.348277
0.32876
0.316567
0.308814
0.333141
0.32462
0.322344
0.347477
0.311321
0.338735
0.319456
0.316357
0.37038
0.318298
0.296766
0.30919
0.310727
0.294823
0.310136
0.308789
0.311072
0.366176
0.324332
0.340041
0.308765
0.309262
0.337705
0.296766
0.35825
0.312378
0.307137
0.308535
0.307004
0.309924
0.306568
0.30712
0.344549
0.306953
0.306262
0.306411
0.330386
0.312074
0.306719
0.308679
0.306953
0.32879
0.33684
0.314328
0.306953
0.319808
0.336307
0.305897
0.306508
0.307688
0.308228
0.304404
0.325671
0.311599
0.317718
0.305624
0.34884
0.311665
0.30502
0.304784
0.314251
0.370772
0.309025
0.338732
0.306738
0.311187
0.306537
0.333049
0.318393
0.346697
0.362012
0.377158
0.309852
0.315127
0.323554
0.349801
0.302208
0.317322
0.301888
0.302015
0.301258
0.301518
0.303519
0.33618
0.310555
0.294169
0.302287
0.358615
0.343555
0.331613
0.340327
0.311804
0.300892
0.302526
0.309135
0.29351
0.30623
0.299426
0.30117
0.300791
0.313196
0.323162
0.312815
0.298253
0.315546
0.303533
0.316435
0.331572
0.297452
0.313275
0.313275
0.298512
0.29727
0.332423
0.298847
0.29351
0.299801
0.302495
0.297176
0.302495
0.308546
0.295696
0.296306
0.331236
0.298416
0.304721
0.322282
0.305803
0.297445
0.300014
0.38625
0.294177
0.298147
0.352495
0.32851
0.295097
0.325349
0.301338
0.298075
0.326861
0.30235
0.317765
0.322936
0.337327
0.328981
0.327544
0.326179
0.325505
0.335624
0.328239
0.318417
0.332399
0.317765
0.322936
0.329682
0.326839
0.329682
0.337327
0.337327
0.331788
0.319718
0.334144
0.325505
0.335624
0.32231
0.321022
0.337327
0.320365
0.328981
0.32421
0.333034
0.334609
0.32421
0.321022
0.333034
0.324865
0.327544
0.326179
0.328981
0.326179
0.32231
0.319718
0.319718
0.319718
0.32231
0.326839
0.339657
0.321664
0.330416
0.322936
0.335173
0.326839
0.333561
0.337327
0.335624
0.335173
0.333034
0.330416
0.327544
0.334144
0.332399
0.326839
0.337327
0.331089
0.333561
0.328981
0.336683
0.331788
0.335624
0.324865
0.319718
0.337739
0.327544
0.319718
0.320365
0.332399
0.322936
0.327544
0.326839
0.335624
0.319718
0.329682
0.320365
0.319062
0.333034
0.317119
0.317765
0.317119
0.326179
0.329682
0.335624
0.318417
0.317765
0.32231
0.32421
0.327544
0.334609
0.317765
0.326839
0.333561
0.318417
0.324865
0.331788
0.320365
0.317119
0.326839
0.334609
0.337327
0.331788
0.319062
0.316467
0.332399
0.333561
0.332399
0.337327
0.32358
0.337327
0.337739
0.328239
0.333034
0.32231
0.326179
0.336216
0.333561
0.334144
0.322936
0.326839
0.335173
0.334609
0.337327
0.331089
0.336216
0.332399
0.331788
0.326179
0.330416
0.325505
0.319718
0.32231
0.32231
0.318417
0.324865
0.331089
0.316467
0.326179
0.326839
0.325505
0.319062
0.326179
0.334609
0.333561
0.317765
0.322936
0.324865
0.317765
0.321664
0.334609
0.336683
0.337327
0.316467
0.317765
0.330416
0.329682
0.32421
0.337739
0.325505
0.318417
0.32358
0.326179
0.324865
0.335173
0.329682
0.330416
0.335173
0.317119
0.319062
0.332399
0.330416
0.32231
0.331788
0.317119
0.327544
0.330416
0.330416
0.321664
0.316467
0.330416
0.326839
0.337327
0.334144
0.315823
0.337739
0.315823
0.318417
0.326839
0.333034
0.318417
0.329682
0.315823
0.333561
0.32421
0.334609
0.334144
0.381611
0.333034
0.317765
0.381611
0.387782
0.367821
0.375713
0.321664
0.368831
0.371089
0.335624
0.353425
0.341448
0.33941
0.317765
0.355804
0.382622
0.373006
0.387879
0.356157
0.351498
0.33941
0.346285
0.345307
0.340034
0.337749
0.357504
0.356357
0.330416
0.33805
0.38074
0.356947
0.337869
0.329682
0.338961
0.338316
0.338205
0.346884
0.336777
0.343503
0.348255
0.339372
0.356363
0.337644
0.364248
0.334609
0.369198
0.33956
0.337387
0.349637
0.343876
0.346037
0.336684
0.34205
0.342001
0.342909
0.341034
0.338098
0.341153
0.338098
0.336745
0.331788
0.343577
0.359336
0.328981
0.341156
0.352996
0.376172
0.340441
0.332399
0.373421
0.388094
0.336587
0.336745
0.353242
0.342607
0.354649
0.33636
0.339043
0.339289
0.362362
0.338174
0.387638
0.33631
0.353594
0.335641
0.369727
0.335662
0.374506
0.388153
0.317119
0.335778
0.334609
0.340835
0.362775
0.326839
0.336261
0.336551
0.339752
0.339043
0.338863
0.335732
0.317119
0.335458
0.335275
0.342473
0.337161
0.338493
0.339043
0.338387
0.344534
0.330416
0.33808
0.344364
0.341744
0.368429
0.335619
0.386066
0.337499
0.33484
0.342576
0.352795
0.349075
0.348743
0.341365
0.339499
0.333561
0.334185
0.337917
0.318417
0.336243
0.346392
0.33438
0.335244
0.34162
0.321022
0.358729
0.338794
0.334297
0.33417
0.337499
0.336423
0.334383
0.345451
0.333805
0.334894
0.361876
0.335631
0.378827
0.34295
0.347162
0.33361
0.354494
0.332399
0.334894
0.315823
0.388075
0.337095
0.336388
0.376361
0.333821
0.363266
0.346092
0.333596
0.333078
0.339738
0.386824
0.334587
0.3469
0.334779
0.333818
0.333527
0.333151
0.333209
0.315823
0.349433
0.332459
0.387442
0.334336
0.330416
0.319718
0.34325
0.334037
0.335699
0.383006
0.338057
0.331961
0.353912
0.338838
0.333504
0.359849
0.318417
0.331827
0.388275
0.331788
0.342281
0.34346
0.338838
0.331095
0.339007
0.326179
0.331788
0.342302
0.33259
0.33935
0.33172
0.3389
0.333113
0.330465
0.332357
0.335774
0.337696
0.340482
0.330545
0.331961
0.371323
0.350379
0.331299
0.32979
0.315823
0.326839
0.329705
0.33435
0.33367
0.324865
0.334216
0.388208
0.347567
0.350916
0.317119
0.330704
0.332812
0.329405
0.342781
0.321664
0.331083
0.375685
0.331286
0.346143
0.320365
0.330054
0.331184
0.331083
0.332312
0.333315
0.346317
0.331288
0.371679
0.334249
0.342623
0.368575
0.347517
0.374999
0.328883
0.330926
0.32358
0.33564
0.329002
0.34072
0.384006
0.336776
0.327783
0.327749
0.327749
0.328917
0.32912
0.360773
0.330713
0.330311
0.331724
0.327351
0.337737
0.333687
0.32993
0.331573
0.360773
0.341254
0.357308
0.326179
0.344826
0.326866
0.32754
0.335719
0.336917
0.326556
0.326182
0.315823
0.339323
0.337556
0.326257
0.359881
0.326221
0.327075
0.359881
0.327627
0.342815
0.327685
0.381598
0.350125
0.34359
0.362879
0.326424
0.325564
0.326101
0.356101
0.326424
0.346749
0.325564
0.3399
0.327212
0.352924
0.317119
0.346135
0.328896
0.339351
0.333566
0.343332
0.32421
0.330645
0.333152
0.330289
0.322936
0.356504
0.328281
0.315823
0.321664
0.324836
0.32465
0.325702
0.328769
0.32358
0.322936
0.388232
0.332113
0.323644
0.324679
0.323718
0.335004
0.347823
0.337993
0.35455
0.3238
0.372394
0.36909
0.323952
0.362218
0.344309
0.387939
0.335004
0.322358
0.325987
0.324096
0.349924
0.384169
0.33026
0.322169
0.323388
0.327598
0.332382
0.373705
0.320365
0.325892
0.362852
0.354529
0.324577
0.323493
0.344949
0.321245
0.359888
0.347035
0.344949
0.343188
0.327567
0.321574
0.320636
0.322399
0.320365
0.326878
0.327293
0.3202
0.320865
0.366133
0.319718
0.319753
0.320462
0.327933
0.326878
0.331575
0.320462
0.319262
0.326179
0.32063
0.321444
0.324278
0.319123
0.35454
0.372441
0.36902
0.33442
0.318165
0.320395
0.32988
0.32026
0.356714
0.327931
0.323759
0.317803
0.317936
0.350412
0.319951
0.321374
0.328563
0.332931
0.318303
0.316479
0.32294
0.330603
0.32014
0.33937
0.322437
0.331452
0.315823
0.388179
0.32687
0.316852
0.316092
0.323089
0.315826
)


// ************************************************************************* //
