/*--------------------------------*- C++ -*----------------------------------*\
  =========                 |
  \\      /  F ield         | OpenFOAM: The Open Source CFD Toolbox
   \\    /   O peration     | Website:  https://openfoam.org
    \\  /    A nd           | Version:  7
     \\/     M anipulation  |
\*---------------------------------------------------------------------------*/
FoamFile
{
    version     2.0;
    format      ascii;
    class       vectorField;
    location    "0.7/lagrangian/reactingCloud1";
    object      coordinates;
}
// * * * * * * * * * * * * * * * * * * * * * * * * * * * * * * * * * * * * * //


2453
(
(-1.0558 0.297928 1.0842e-19)
(-1.07677 0.181098 0)
(-1.08391 0.29513 0)
(-1.09201 0.386334 1.0842e-19)
(-1.1095 0.344256 5.42101e-20)
(-1.19238 0.361182 2.1684e-19)
(-1.14957 0.14833 0)
(-1.15323 0.359192 2.1684e-19)
(-1.15895 0.29352 -2.1684e-19)
(-1.2564 0.383843 2.1684e-19)
(-1.19082 0.368996 -1.0842e-19)
(-1.21141 0.0961761 0)
(-1.2222 0.260853 -1.0842e-19)
(-1.24211 0.19602 -1.05032e-19)
(-1.25366 0.293328 2.03288e-20)
(-1.26942 0.245926 5.42101e-20)
(-1.28958 0.203721 -5.42101e-20)
(-1.30727 0.0620599 0)
(-1.32049 0.199224 0)
(-1.33372 0.260683 -5.42101e-20)
(-1.3506 0.330213 1.0842e-19)
(-1.36823 0.178462 0)
(-1.38177 0.370519 -2.1684e-19)
(-1.39996 0.257541 1.49078e-19)
(-1.41621 0.373011 1.69407e-21)
(-1.41847 0.378073 0)
(-1.43181 0.271912 -1.0842e-19)
(-1.44843 0.126963 0)
(-1.47528 0.38149 0)
(-1.48176 0.212971 0)
(-1.49619 0.289949 -2.1684e-19)
(-1.51037 0.303172 1.0842e-19)
(-1.52756 0.296613 0)
(-1.54331 0.240781 -1.0842e-19)
(-1.56179 0.341512 5.42101e-20)
(-1.57601 0.366482 0)
(-1.59324 0.287828 9.48677e-20)
(-1.60722 0.204455 1.0842e-19)
(-1.62532 0.301626 0)
(-1.64147 0.328044 -1.6263e-19)
(-1.65694 0.215807 2.1684e-19)
(-1.67442 0.313923 1.0842e-19)
(-0.872346 0.464148 1.0842e-19)
(-0.917072 0.458382 -2.03288e-19)
(-0.561076 0.462998 0)
(-0.368473 0.401838 -5.42101e-20)
(-0.354699 0.379106 2.71051e-20)
(-0.322097 0.350166 1.0842e-19)
(-0.334059 0.305255 -1.0842e-19)
(-0.324729 0.190606 0)
(-0.386978 0.314798 -1.0842e-19)
(-0.324114 0.11314 -1.35525e-20)
(-0.370779 0.206827 1.0842e-19)
(-0.441183 0.380283 0)
(-0.425909 0.325378 -1.0842e-19)
(-0.45693 0.378135 0)
(-0.49268 0.40564 -1.6263e-19)
(-0.430663 0.174729 0)
(-0.525157 0.421786 -1.0842e-19)
(-0.490709 0.352442 -4.33681e-19)
(-0.535251 0.405275 -2.1684e-19)
(-0.484004 0.193175 0)
(-0.539761 0.37833 1.0842e-19)
(-0.53801 0.321435 1.0842e-19)
(-0.539739 0.259032 -5.42101e-20)
(-0.578047 0.367838 5.42101e-20)
(-0.534081 0.0390568 -6.77626e-21)
(-0.652888 0.439885 0)
(-0.582354 0.219363 1.0842e-19)
(-0.618497 0.399474 0)
(-0.603356 0.18721 -2.71051e-20)
(-0.627656 0.330739 0)
(-0.622571 0.13877 0)
(-0.659425 0.34024 -2.1684e-19)
(-0.790964 0.450735 0)
(-0.673414 0.352536 0)
(-0.70081 0.428535 -2.1684e-19)
(-0.709634 0.385803 -2.71051e-20)
(-0.681859 0.0773148 0)
(-0.711209 0.269336 2.71051e-20)
(-0.725176 0.340327 1.0842e-19)
(-0.736557 0.34025 -2.1684e-19)
(-0.743406 0.233581 0)
(-0.756695 0.249122 0)
(-0.772259 0.404456 0)
(-0.77795 0.184524 2.71051e-20)
(-0.796224 0.373511 -1.6263e-19)
(-0.815728 0.329533 0)
(-0.835655 0.179 1.0842e-19)
(-0.825371 0.163442 0)
(-0.990224 0.439112 2.1684e-19)
(-0.862354 0.287892 2.1684e-19)
(-0.874412 0.364728 8.13152e-20)
(-0.888131 0.387247 2.1684e-19)
(-0.898018 0.244097 5.42101e-20)
(-0.922065 0.40461 2.1684e-19)
(-0.912734 0.113087 0)
(-0.935591 0.3233 1.0842e-19)
(-0.954967 0.403766 -2.1684e-19)
(-0.959597 0.418572 3.25261e-19)
(-0.972931 0.420875 0)
(-0.962001 0.311828 -2.71051e-19)
(-0.976294 0.274708 2.71051e-20)
(-0.994573 0.0498638 -1.46113e-20)
(-1.00308 0.255308 0)
(-1.01312 0.316118 -6.77626e-21)
(-1.02477 0.398054 0)
(-1.02141 0.1462 -1.0842e-19)
(-1.04697 0.176256 0)
(0.134865 0.101731 -2.71051e-20)
(0.111089 0.242693 1.0842e-19)
(0.0696226 0.106152 -2.71051e-20)
(0.0239197 0.258605 1.0842e-19)
(-0.00203366 0.262058 2.71051e-20)
(-0.0145731 0.236189 0)
(-0.0345215 0.151899 0)
(-0.0203131 0.0575825 -1.35525e-20)
(-0.0547538 0.211874 -8.13152e-20)
(-0.0801192 0.262799 -1.0842e-19)
(-0.124509 0.2285 -1.0842e-19)
(-0.13631 0.280485 0)
(-0.161546 0.197422 -2.71051e-20)
(-0.174955 0.255066 0)
(-0.211937 0.263211 0)
(-0.224991 0.220002 -1.6263e-19)
(-0.25917 0.120181 5.42101e-20)
(-0.2644 0.23669 -5.42101e-20)
(-0.266674 0.202496 0)
(-0.284346 0.344908 2.1684e-19)
(-0.300784 0.162954 0)
(0.508586 0.0895348 -5.42101e-20)
(0.502048 0.252235 -1.0842e-19)
(0.501709 0.197185 1.0842e-19)
(0.431472 0.274386 0)
(0.488491 0.153642 0)
(0.458684 0.191791 0)
(0.444637 0.254842 1.0842e-19)
(0.387365 0.0937026 -6.09864e-20)
(0.369322 0.0490499 -1.01644e-20)
(0.313183 0.264634 0)
(0.290271 0.209201 5.42101e-20)
(0.273835 0.22711 5.42101e-20)
(0.159925 0.216094 9.48677e-20)
(1.2274 0.256945 -2.71051e-20)
(1.22979 0.127936 -1.35525e-20)
(1.09118 0.163549 0)
(1.08163 0.235707 0)
(0.990996 0.167594 1.35525e-20)
(0.982658 0.20871 2.71051e-20)
(0.941479 0.249901 1.0842e-19)
(0.83196 0.191757 -5.42101e-20)
(0.782762 0.0634384 -2.71051e-20)
(0.793811 0.239306 1.18585e-20)
(0.78685 0.198343 -1.0842e-19)
(0.780708 0.125164 0)
(0.704182 0.115836 -5.42101e-20)
(0.613491 0.153473 5.42101e-20)
(2.12112 0.264393 0)
(2.02153 0.210516 -1.0842e-19)
(1.90368 0.08721 2.71051e-20)
(1.88026 0.208014 0)
(1.87562 0.0672527 -2.71051e-20)
(1.83588 0.0559925 0)
(1.73414 0.243055 -5.42101e-20)
(1.64102 0.247807 0)
(1.56972 0.213339 0)
(1.55548 0.0741238 0)
(1.47493 0.185315 2.71051e-20)
(1.42064 0.0635297 2.71051e-20)
(1.41009 0.248429 -5.42101e-20)
(1.38541 0.243027 -5.42101e-20)
(1.37317 0.203245 0)
(1.27425 0.250647 5.42101e-20)
(1.24503 0.313843 1.0842e-19)
(2.90221 -2.11135e-33 1.84254e-35)
(3.39012 0.280734 0)
(3.37695 0.127474 -1.35525e-20)
(3.21876 0.2595 0)
(3.24926 0.121347 0)
(3.22776 0.207058 0)
(3.06789 0.248452 0)
(3.09354 0.227442 -1.0842e-19)
(3.11534 0.207874 5.42101e-20)
(3.03567 0.203937 -4.06576e-20)
(2.99735 0.18954 5.42101e-20)
(2.96615 0.219159 0)
(2.92112 0.20617 0)
(2.88846 0.127357 6.77626e-21)
(2.87862 0.158528 5.42101e-20)
(2.85101 0.191662 0)
(2.60537 0.0343309 -6.77626e-21)
(2.60828 0.181837 2.71051e-20)
(2.59757 0.213003 0)
(2.55578 0.215305 0)
(2.53993 0.0673665 -2.71051e-20)
(2.51651 0.240357 1.6263e-19)
(2.46581 0.109576 0)
(2.40573 0.126835 -2.71051e-20)
(2.35409 0.231018 -5.42101e-20)
(2.22785 0.207185 -1.0842e-19)
(2.19041 0.269409 -1.0842e-19)
(2.19841 0.186818 0)
(2.18489 0.157197 -2.71051e-20)
(2.17741 0.248677 -1.35525e-20)
(2.16755 0.13905 0)
(2.14933 0.199052 1.35525e-20)
(5.23963 0.20457 -2.1684e-19)
(5.09882 0.147686 5.42101e-20)
(4.95458 0.218456 0)
(4.9648 0.169675 0)
(4.94878 0.146146 -5.42101e-20)
(4.94035 0.113201 2.71051e-20)
(4.87511 0.131444 0)
(4.69279 0.0692804 1.01644e-20)
(4.42662 0.279874 0)
(4.44952 0.277504 0)
(4.48503 0.150245 5.42101e-20)
(4.47452 0.111142 -2.71051e-20)
(4.43955 0.0234753 -6.77626e-21)
(4.33738 0.237288 1.74912e-19)
(4.36703 0.0646139 0)
(4.26896 0.237637 -1.0842e-19)
(4.33548 0.129678 -1.0842e-19)
(4.0775 0.174254 1.0842e-19)
(4.03175 0.2124 -8.13152e-20)
(4.04388 0.160524 0)
(4.00531 0.207734 0)
(3.93032 0.242804 0)
(3.90444 0.185611 0)
(3.8754 0.0972699 0)
(3.85006 0.171599 -5.42101e-20)
(3.7758 0.272706 -2.71051e-20)
(3.76059 0.274203 1.0842e-19)
(3.80362 0.203025 0)
(3.77455 0.150304 -2.5411e-21)
(3.76767 0.109835 3.38813e-21)
(3.6237 0.242776 -1.0842e-19)
(3.60682 0.186877 -5.42101e-20)
(3.60406 0.0896355 -5.42101e-20)
(3.49081 0.348689 2.1684e-19)
(3.44708 0.222634 0)
(3.40496 0.225153 0)
(6.67318 -1.79175e-33 1.56364e-35)
(7.71351 -1.70358e-33 1.48669e-35)
(6.55764 -1.80154e-33 1.57218e-35)
(7.72337 -1.70274e-33 1.48596e-35)
(6.39535 -1.8153e-33 1.58418e-35)
(6.07089 -1.84279e-33 1.60818e-35)
(6.93981 -1.76915e-33 1.54391e-35)
(6.08986 -1.84119e-33 1.60678e-35)
(6.56427 -1.80098e-33 1.57169e-35)
(6.0164 -1.84741e-33 1.61221e-35)
(7.09378 -1.7561e-33 1.53253e-35)
(7.17408 -1.7493e-33 1.52659e-35)
(7.56723 0.279437 0)
(7.78754 0.182543 -5.42101e-20)
(7.7425 0.19852 -5.42101e-20)
(7.79374 0.0896561 0)
(7.67001 0.155654 0)
(7.70195 0.00269873 0)
(7.68124 0.0887387 -1.35525e-20)
(7.63802 0.0522163 0)
(7.68201 0.111542 -2.71051e-20)
(7.62567 0.181991 1.0842e-19)
(7.49395 0.230652 2.71051e-20)
(7.58319 0.12209 1.35525e-20)
(7.46837 0.100527 0)
(7.38022 0.0407103 2.71051e-20)
(7.40537 0.117571 0)
(7.28319 0.208197 -2.1684e-19)
(7.2749 0.217488 0)
(7.15571 0.208807 0)
(7.21006 0.154036 -8.13152e-20)
(7.18219 0.16613 -1.0842e-19)
(7.09765 0.190125 1.35525e-20)
(7.07125 0.166635 0)
(7.01658 0.107529 5.42101e-20)
(6.95514 0.199611 5.42101e-20)
(6.9224 0.111812 0)
(6.80671 0.086493 -2.71051e-20)
(6.69701 0.226429 5.42101e-20)
(6.73583 0.192116 0)
(6.57829 0.235992 1.0842e-19)
(6.37368 0.206668 0)
(6.33938 0.224922 -1.6263e-19)
(6.22875 0.264807 0)
(6.2848 0.120286 -5.42101e-20)
(6.26483 0.0989619 5.42101e-20)
(6.17005 0.0234162 0)
(6.16964 0.235874 -1.0842e-19)
(6.07279 0.278364 -1.0842e-19)
(6.18165 0.127299 0)
(6.1783 0.0913827 0)
(6.11028 0.218734 -1.0842e-19)
(6.07254 0.0457428 -6.77626e-21)
(6.07046 0.107775 0)
(5.88105 0.280301 0)
(5.87188 0.118282 -1.35525e-20)
(5.82612 0.210875 1.0842e-19)
(5.86086 0.157 5.42101e-20)
(5.84315 0.169629 1.0842e-19)
(5.76338 0.247765 1.0842e-19)
(5.6707 0.258073 0)
(5.6997 0.108793 0)
(5.67541 0.170281 5.42101e-20)
(5.6365 0.238132 -5.42101e-20)
(5.59299 0.0619915 -2.03288e-20)
(5.62736 0.212134 1.0842e-19)
(5.576 0.273709 5.42101e-20)
(5.62649 0.0853444 5.42101e-20)
(5.57114 0.221763 0)
(5.40269 0.153308 -5.42101e-20)
(5.39057 0.159253 0)
(5.36675 0.198246 -1.0842e-19)
(5.32509 0.283286 5.42101e-20)
(5.27323 0.0538178 0)
(5.32546 0.101944 2.71051e-20)
(5.29311 0.0858248 0)
(10.4387 -1.47261e-33 1.28513e-35)
(10.042 -1.50623e-33 1.31447e-35)
(10.7598 -1.4454e-33 1.26138e-35)
(10.6436 -1.45524e-33 1.26997e-35)
(10.3968 -1.47616e-33 1.28823e-35)
(9.03854 -1.59128e-33 1.38869e-35)
(9.81594 -1.52539e-33 1.33119e-35)
(8.44005 -1.642e-33 1.43295e-35)
(10.405 -1.47547e-33 1.28763e-35)
(10.4852 1.62838e-21 1.42107e-23)
(8.06682 -1.67363e-33 1.46056e-35)
(9.66387 -1.53828e-33 1.34244e-35)
(10.7837 0.422024 -1.0842e-19)
(9.43455 -1.55772e-33 1.3594e-35)
(10.8685 0.259353 2.1684e-19)
(10.8031 0.247032 1.0842e-19)
(10.7831 0.167557 0)
(10.4777 0.368337 -2.1684e-19)
(10.8211 0.0124473 0)
(10.4567 0.295736 2.1684e-19)
(10.7322 0.040859 1.35525e-20)
(10.4 0.175664 0)
(10.5344 0.0691763 1.05879e-21)
(10.5076 0.042719 -2.71051e-20)
(10.2338 0.210454 1.0842e-19)
(10.2138 0.219293 1.0842e-19)
(10.2256 0.221604 -1.0842e-19)
(10.5697 0.0286156 -6.77626e-21)
(10.4279 0.128854 -5.42101e-20)
(10.1679 0.214962 6.77626e-21)
(10.2866 0.156225 5.42101e-20)
(10.1453 0.202167 -1.0842e-19)
(9.90801 0.337951 0)
(10.0342 0.223552 1.35525e-19)
(10.1467 0.163909 -2.71051e-20)
(9.90505 0.324365 0)
(10.213 0.0653202 -2.71051e-20)
(9.89619 0.22449 1.6263e-19)
(9.97423 0.196838 0)
(9.87762 0.209853 1.0842e-19)
(9.95841 0.056189 1.69407e-20)
(9.91533 0.167516 0)
(9.9206 0.0546 0)
(9.38121 0.485578 -5.42101e-20)
(9.88233 0.138255 0)
(9.6012 0.30225 1.52466e-19)
(9.6792 0.222077 2.71051e-20)
(9.64541 0.224139 0)
(9.44394 0.357685 2.1684e-19)
(9.77032 0.0716803 5.42101e-20)
(9.60837 0.137147 -8.13152e-20)
(9.43754 0.123689 2.71051e-20)
(9.2065 0.265872 0)
(9.34241 0.160671 0)
(9.15735 0.281461 0)
(9.10754 0.283822 -5.42101e-20)
(9.284 0.131341 -1.35525e-20)
(9.17965 0.210683 0)
(9.15868 0.219898 -1.0842e-19)
(9.16709 0.176216 -5.42101e-20)
(9.2019 0.103203 -2.71051e-20)
(9.18677 0.15093 -6.77626e-21)
(9.10694 0.189 0)
(9.07443 0.0648824 2.71051e-20)
(9.01438 0.18007 0)
(8.91027 0.252697 1.35525e-20)
(8.93934 0.194522 6.77626e-20)
(8.87376 0.219471 0)
(8.83943 0.232796 1.6263e-19)
(8.91939 0.140976 -1.01644e-20)
(8.93249 0.105045 -2.03288e-20)
(8.91143 0.0564858 -6.77626e-21)
(8.87294 0.0851596 5.42101e-20)
(8.84927 0.132252 0)
(8.80282 0.0516217 -1.35525e-20)
(8.77156 0.155936 0)
(8.69787 0.116194 0)
(8.70524 0.0725991 0)
(8.50776 0.13849 -1.11808e-19)
(8.35389 0.184227 5.42101e-20)
(8.30883 0.148225 -5.42101e-20)
(8.23246 0.144665 -2.71051e-20)
(8.19344 0.247534 -5.42101e-20)
(8.18424 0.194954 0)
(8.19272 0.0387581 0)
(8.19349 0.108956 6.77626e-21)
(8.16668 0.090383 -5.42101e-20)
(8.14873 0.0406888 2.71051e-20)
(8.02859 0.0865893 -6.77626e-21)
(7.99281 0.0675563 0)
(7.88738 0.172749 2.71051e-20)
(7.85862 0.242713 -1.0842e-19)
(7.85096 0.110634 1.35525e-20)
(12.7689 -1.27512e-33 1.11278e-35)
(12.8852 -1.26527e-33 1.10418e-35)
(12.3352 -1.31188e-33 1.14486e-35)
(12.5118 -1.29691e-33 1.1318e-35)
(13.6758 -1.19826e-33 1.04571e-35)
(12.5434 -1.29424e-33 1.12946e-35)
(12.5645 1.59919e-31 -1.39559e-33)
(11.9209 -1.347e-33 1.17551e-35)
(14.0191 -1.16917e-33 1.02032e-35)
(11.8872 -1.34985e-33 1.178e-35)
(12.8914 -1.26474e-33 1.10372e-35)
(11.6883 -1.3667e-33 1.1927e-35)
(11.796 -1.35758e-33 1.18474e-35)
(14.0153 -1.16949e-33 1.0206e-35)
(11.6466 -1.37024e-33 1.19579e-35)
(13.7877 -1.18878e-33 1.03743e-35)
(11.6179 -1.37267e-33 1.19791e-35)
(11.5635 -1.37728e-33 1.20194e-35)
(11.6135 -1.37305e-33 1.19824e-35)
(11.5079 -1.382e-33 1.20605e-35)
(12.8701 -1.26655e-33 1.1053e-35)
(12.661 5.01598e-33 -4.37738e-35)
(11.475 -1.38478e-33 1.20848e-35)
(12.3983 -1.30653e-33 1.14019e-35)
(11.7718 -1.35963e-33 1.18653e-35)
(11.939 -1.34546e-33 1.17417e-35)
(13.9845 -1.1721e-33 1.02287e-35)
(11.2012 -1.40799e-33 1.22873e-35)
(13.6115 -1.20371e-33 1.05046e-35)
(13.723 7.58315e-31 -6.61771e-33)
(13.9644 0.339299 0)
(13.9319 0.175778 -5.42101e-20)
(13.7984 0.237966 -4.06576e-20)
(13.9923 0.126815 8.13152e-20)
(13.9478 0.0860501 -2.71051e-20)
(13.8114 0.124792 -1.35525e-20)
(13.747 0.108372 0)
(13.007 -1.25494e-33 1.09517e-35)
(13.3247 0.278083 0)
(13.4031 0.235444 2.71051e-20)
(13.2345 0.351477 6.77626e-21)
(13.6206 0.132823 -2.71051e-20)
(13.3569 0.1728 -1.0842e-19)
(13.1933 0.249154 -1.6263e-19)
(13.3967 0.110895 0)
(13.1018 0.297733 2.1684e-19)
(13.0918 0.314385 2.1684e-19)
(13.071 0.22944 -1.01644e-20)
(13.0713 0.245232 0)
(13.2971 0.0948269 2.71051e-20)
(12.3818 0.625464 -3.25261e-19)
(12.9563 0.244064 -1.01644e-20)
(13.0172 0.179346 0)
(12.9134 0.214483 2.71051e-20)
(12.9527 0.225519 0)
(12.7602 0.234182 5.42101e-20)
(12.6962 0.267734 0)
(12.8067 0.173313 -2.71051e-20)
(12.7976 0.168465 2.71051e-20)
(12.6552 0.238317 -1.0842e-19)
(12.788 0.127531 0)
(12.691 0.199335 -6.77626e-21)
(12.783 0.108611 0)
(12.6815 0.171233 4.06576e-20)
(12.7241 0.041904 -1.35525e-20)
(12.3095 0.285855 0)
(12.5977 0.102652 5.42101e-20)
(12.4515 0.192187 0)
(12.4279 0.191605 -8.13152e-20)
(12.2117 0.329058 1.0842e-19)
(12.3235 0.240615 0)
(12.2339 0.280187 0)
(12.2604 0.278858 1.0842e-19)
(12.2827 0.165819 -1.0842e-19)
(12.2437 0.155676 -6.77626e-20)
(12.282 0.130554 0)
(12.1685 0.182805 0)
(12.1215 0.14977 0)
(11.9927 0.280488 -5.42101e-20)
(12.1037 0.136957 2.71051e-20)
(12.051 0.146524 5.42101e-20)
(11.7337 0.345 0)
(11.9221 0.024415 7.19978e-21)
(11.698 0.296686 -1.0842e-19)
(11.7296 0.207935 1.35525e-20)
(11.6632 0.213466 5.42101e-20)
(11.7084 0.0097008 3.38813e-21)
(11.6736 0.165759 5.42101e-20)
(11.559 0.199133 0)
(11.6021 0.0908924 -3.38813e-20)
(11.5737 0.135438 -5.42101e-20)
(11.4828 0.237163 0)
(11.5083 0.103748 -4.06576e-20)
(11.4625 0.19365 0)
(11.4122 0.176055 1.0842e-19)
(11.442 0.00275213 4.23516e-22)
(11.2064 0.2331 0)
(11.2151 0.0624581 5.42101e-20)
(11.176 0.0470476 0)
(11.1034 0.369283 -5.42101e-20)
(11.0139 0.207582 0)
(10.9814 0.414443 1.01644e-20)
(10.9391 0.174526 0)
(18.4658 -7.92299e-34 6.91429e-36)
(18.5863 -7.82085e-34 6.82515e-36)
(17.4668 -8.76962e-34 7.65313e-36)
(16.2435 -9.80644e-34 8.55795e-36)
(17.81 5.30385e-26 -4.6286e-28)
(18.0806 -8.24941e-34 7.19915e-36)
(15.6599 -1.0301e-33 8.98956e-36)
(18.9412 -7.52009e-34 6.56268e-36)
(16.9701 -9.19057e-34 8.02049e-36)
(17.6703 -8.59717e-34 7.50263e-36)
(15.5342 -1.04076e-33 9.08257e-36)
(16.5516 -9.54528e-34 8.33004e-36)
(15.9638 -1.00435e-33 8.7648e-36)
(15.517 -1.04222e-33 9.09529e-36)
(17.3086 -8.90374e-34 7.77018e-36)
(17.7555 -8.52499e-34 7.43964e-36)
(17.5566 -8.69351e-34 7.58671e-36)
(17.6546 -8.61044e-34 7.51422e-36)
(15.4192 -1.0505e-33 9.16761e-36)
(17.0143 -9.15312e-34 7.98781e-36)
(16.0875 -9.9386e-34 8.67329e-36)
(15.3297 1.25608e-30 1.09802e-32)
(17.241 -8.96105e-34 7.82019e-36)
(17.4918 -8.74845e-34 7.63465e-36)
(16.2264 -9.8209e-34 8.57057e-36)
(15.9884 -1.00226e-33 8.74657e-36)
(15.2751 -1.06272e-33 9.2742e-36)
(18.6166 -7.79517e-34 6.80274e-36)
(18.9556 -7.50784e-34 6.552e-36)
(15.9929 5.08256e-24 4.43548e-26)
(17.9235 -8.38256e-34 7.31535e-36)
(15.1723 -1.07143e-33 9.35025e-36)
(17.919 -8.3864e-34 7.3187e-36)
(17.9335 -8.37412e-34 7.30798e-36)
(18.7373 -7.69287e-34 6.71346e-36)
(14.9663 -1.08888e-33 9.50255e-36)
(18.7606 -7.67312e-34 6.69623e-36)
(18.9506 -7.51205e-34 6.55567e-36)
(17.3754 -8.84714e-34 7.72078e-36)
(18.2937 1.0764e-29 9.395e-32)
(18.2539 -8.10253e-34 7.07097e-36)
(15.2588 -1.0641e-33 9.28624e-36)
(16.7055 -9.41489e-34 8.21625e-36)
(18.4715 -7.9181e-34 6.91002e-36)
(16.5384 -9.5565e-34 8.33983e-36)
(18.2605 1.61063e-24 1.40558e-26)
(16.2144 -9.83112e-34 8.57949e-36)
(18.1308 -8.20687e-34 7.16203e-36)
(16.5178 -9.57395e-34 8.35506e-36)
(15.4155 -1.05082e-33 9.17037e-36)
(18.548 -7.85332e-34 6.85349e-36)
(17.6388 -8.62388e-34 7.52594e-36)
(18.9379 -7.52286e-34 6.5651e-36)
(19.0691 -7.41167e-34 6.46806e-36)
(18.7445 -7.68675e-34 6.70813e-36)
(14.5766 -1.12192e-33 9.79082e-36)
(15.5835 -1.03658e-33 9.04607e-36)
(16.3688 -9.70018e-34 8.46522e-36)
(18.523 -7.87445e-34 6.87193e-36)
(16.0299 -9.98747e-34 8.71593e-36)
(17.1349 -9.05092e-34 7.89862e-36)
(14.4418 -1.13334e-33 9.89052e-36)
(15.3097 3.83352e-22 -3.34546e-24)
(17.582 -8.67205e-34 7.56798e-36)
(14.3893 -1.13779e-33 9.92933e-36)
(16.8975 -9.25216e-34 8.07423e-36)
(19.0587 -7.4205e-34 6.47577e-36)
(16.4428 -9.63755e-34 8.41056e-36)
(17.0828 -9.09507e-34 7.93715e-36)
(14.7285 -1.10904e-33 9.67846e-36)
(17.0247 -9.14436e-34 7.98016e-36)
(17.177 -9.00931e-34 7.87264e-36)
(18.7007 -7.7239e-34 6.74054e-36)
(16.0369 -9.98152e-34 8.71074e-36)
(16.2693 8.63879e-19 -7.53896e-21)
(19.0417 -7.43486e-34 6.48831e-36)
(18.2202 -8.13115e-34 7.09594e-36)
(14.2072 -1.15323e-33 1.0064e-35)
(16.7334 -9.39123e-34 8.19561e-36)
(19.0407 0.351713 -2.71051e-20)
(19.1373 0.365855 -1.0842e-19)
(19.1313 0.370992 -2.1684e-19)
(18.9703 0.296094 0)
(18.5512 0.414046 0)
(18.5517 0.452215 0)
(19.2283 0.24504 -2.71051e-20)
(18.9606 0.16549 0)
(19.2036 0.111948 5.42101e-20)
(18.8307 0.114674 -2.71051e-20)
(18.7427 0.2114 -5.42101e-20)
(18.9461 0.158416 2.71051e-20)
(18.9832 0.121002 0)
(18.6191 0.0961056 2.03288e-20)
(18.7579 0.180525 -1.10114e-20)
(18.7845 0.122089 5.42101e-20)
(18.3572 0.337797 -5.42101e-20)
(18.363 0.118482 0)
(18.9565 0.0433505 1.35525e-20)
(18.1308 0.307003 0)
(18.656 0.158843 -6.09864e-20)
(18.4975 0.263903 0)
(18.9138 0.0692496 -3.04932e-20)
(18.4944 0.162622 -5.42101e-20)
(18.6436 0.103441 -5.42101e-20)
(18.6075 0.103111 0)
(18.2302 0.200821 -1.0842e-19)
(18.3176 0.235539 0)
(18.5114 0.0992066 0)
(18.2507 0.124968 -5.42101e-20)
(18.3475 0.0781394 -2.03288e-20)
(17.1225 0.564258 1.0842e-19)
(18.2556 0.0941875 -5.42101e-20)
(17.5713 0.409325 0)
(17.908 0.183151 -8.13152e-20)
(17.7865 0.276126 -1.0842e-19)
(18.0999 0.0867606 0)
(17.3013 0.312976 0)
(17.5821 0.288535 1.6263e-19)
(17.9967 0.136907 -2.71051e-20)
(17.781 0.189338 -1.0842e-19)
(17.867 0.152987 5.42101e-20)
(17.8058 0.127702 2.71051e-20)
(18.0163 0.024854 0)
(17.4276 0.261945 -1.0842e-19)
(17.5032 0.209757 1.0842e-19)
(17.0509 0.400781 -2.1684e-19)
(17.8409 0.0289683 1.69407e-21)
(17.5839 0.171346 5.42101e-20)
(17.3726 0.184606 5.42101e-20)
(17.3925 0.160019 5.42101e-20)
(16.708 0.62401 0)
(17.3546 0.211236 0)
(17.2783 0.187006 0)
(16.6629 0.69169 2.1684e-19)
(17.3938 0.0384791 0)
(17.1855 0.136192 -1.0842e-19)
(17.2207 0.0611572 1.35525e-20)
(17.1183 0.129706 -8.13152e-20)
(16.7057 0.29911 7.45389e-20)
(17.1412 0.122114 -2.71051e-20)
(16.8738 0.215511 0)
(17.0719 0.0850935 -2.71051e-20)
(16.6688 0.291033 2.71051e-20)
(17.0992 0.0466572 3.38813e-21)
(16.4829 0.357387 0)
(17.0466 0.0482838 0)
(16.4599 0.359725 2.1684e-19)
(16.5559 0.136116 2.71051e-20)
(16.4325 0.19134 5.42101e-20)
(16.5258 0.13439 1.0842e-19)
(16.0717 0.446599 1.0842e-19)
(16.4952 0.114617 1.35525e-20)
(16.2685 0.271743 5.42101e-20)
(16.0817 0.299084 -2.71051e-20)
(16.329 0.112628 -5.42101e-20)
(16.1106 0.349922 1.6263e-19)
(16.4201 0.0401854 2.71051e-20)
(16.3734 0.0635784 -5.42101e-20)
(16.234 0.136826 2.71051e-20)
(16.1893 0.152693 -5.42101e-20)
(16.056 0.154515 -2.03288e-20)
(15.7803 0.453957 -1.01644e-20)
(16.0166 0.17893 -1.0842e-19)
(15.7531 0.397675 0)
(15.7026 0.366172 0)
(16.0515 0.122891 0)
(15.8906 0.175769 -5.42101e-20)
(15.7781 0.323402 -2.03288e-20)
(16.0403 0.138962 -5.42101e-20)
(15.8782 0.212366 0)
(15.6791 0.310078 0)
(15.8622 0.107276 0)
(15.7692 0.158246 -1.35525e-20)
(15.714 0.16884 -5.42101e-20)
(15.5453 0.322526 0)
(15.5589 0.207177 -5.42101e-20)
(15.6728 0.0934039 0)
(15.6611 0.101693 0)
(15.5895 0.160563 1.0842e-19)
(15.4208 0.274087 -4.33681e-19)
(15.4749 0.223932 -8.13152e-20)
(15.6108 0.0014952 0)
(15.5383 0.100642 3.21873e-20)
(15.2563 0.568665 4.33681e-19)
(15.2815 0.225398 -1.0842e-19)
(15.4882 0.10269 0)
(15.4004 0.250254 -1.0842e-19)
(15.2437 0.258144 5.42101e-20)
(15.2503 -1.06482e-33 9.29253e-36)
(15.347 0.0972818 -1.01644e-20)
(15.2952 0.120249 0)
(15.187 0.205048 -1.0842e-19)
(15.143 0.233785 1.0842e-19)
(15.3206 0.00872691 -6.77626e-21)
(15.218 0.112247 -5.42101e-20)
(14.1065 -1.16175e-33 1.01385e-35)
(15.087 0.155606 1.0842e-19)
(15.0501 0.200844 0)
(15.1092 0.0690327 -1.35525e-20)
(14.9039 0.297035 -2.03288e-20)
(14.9938 0.064053 0)
(14.8968 0.145542 2.5411e-21)
(14.8055 0.278811 0)
(14.8222 0.183802 3.38813e-20)
(14.7557 0.0881831 -2.71051e-20)
(14.7634 0.0205267 1.27055e-21)
(14.7509 0.025156 -3.38813e-21)
(14.5868 0.272075 0)
(14.5651 0.119353 2.71051e-20)
(14.5258 0.186031 0)
(14.4976 0.20614 2.1684e-19)
(14.4884 0.129714 1.0842e-19)
(14.4389 0.131656 0)
(14.4106 0.199827 2.1684e-19)
(14.3401 0.214463 1.0842e-19)
(14.2857 0.234368 0)
(14.2347 0.229272 1.0842e-19)
(14.1804 0.202719 5.42101e-20)
(22.1035 -4.83996e-34 4.22377e-36)
(21.0339 -5.74645e-34 5.01485e-36)
(21.2409 -5.57104e-34 4.86177e-36)
(24.3928 -2.89967e-34 2.5305e-36)
(20.7874 -5.95539e-34 5.19719e-36)
(20.7228 -6.0101e-34 5.24494e-36)
(21.5589 -5.3015e-34 4.62655e-36)
(21.1879 -5.61595e-34 4.90097e-36)
(21.5113 0.000424928 1.17549e-38)
(20.7972 -5.94705e-34 5.18991e-36)
(23.0429 -4.04379e-34 3.52896e-36)
(21.1299 -5.6651e-34 4.94386e-36)
(23.4066 -3.73553e-34 3.25995e-36)
(20.7225 -6.01038e-34 5.24518e-36)
(20.8587 -5.89497e-34 5.14446e-36)
(20.7387 -5.99664e-34 5.23319e-36)
(23.3398 3.94796e-25 3.44533e-27)
(24.2517 -3.01929e-34 2.63489e-36)
(21.6711 -5.20636e-34 4.54352e-36)
(21.1543 -5.64442e-34 4.92581e-36)
(22.8869 -4.17601e-34 3.64435e-36)
(23.1131 -3.9843e-34 3.47705e-36)
(22.8812 3.20184e-19 2.79421e-21)
(21.8076 -5.09075e-34 4.44263e-36)
(23.049 -4.03862e-34 3.52445e-36)
(22.5114 -4.49426e-34 3.92208e-36)
(22.2143 -4.74606e-34 4.14183e-36)
(20.2984 -6.36977e-34 5.55881e-36)
(24.3852 -2.90617e-34 2.53617e-36)
(23.5817 -3.58715e-34 3.13046e-36)
(22.2142 -4.74612e-34 4.14187e-36)
(22.211 -4.74884e-34 4.14425e-36)
(20.9072 -5.85382e-34 5.10855e-36)
(22.5227 -4.48467e-34 3.91371e-36)
(21.5539 5.48194e-23 4.78402e-25)
(22.6268 -4.3964e-34 3.83668e-36)
(21.0768 -5.71012e-34 4.98314e-36)
(20.3509 -6.32533e-34 5.52003e-36)
(23.9091 -3.30963e-34 2.88827e-36)
(24.2263 -3.04079e-34 2.65366e-36)
(24.186 -3.075e-34 2.68351e-36)
(21.6673 -5.20965e-34 4.54639e-36)
(23.6988 -3.48784e-34 3.0438e-36)
(20.6986 -6.02807e-34 5.26503e-36)
(21.4625 -5.38319e-34 4.69784e-36)
(24.1002 -3.14767e-34 2.74693e-36)
(21.8017 -5.0957e-34 4.44695e-36)
(21.5517 -5.3076e-34 4.63187e-36)
(23.484 -3.66996e-34 3.20272e-36)
(21.3185 -5.50525e-34 4.80436e-36)
(22.4589 -4.53874e-34 3.9609e-36)
(22.0877 -4.8533e-34 4.23541e-36)
(22.515 -4.4912e-34 3.91941e-36)
(22.5215 -4.48562e-34 3.91455e-36)
(23.2009 -3.90987e-34 3.41209e-36)
(23.623 -3.55215e-34 3.09991e-36)
(22.7193 -4.31804e-34 3.76829e-36)
(20.6912 -5.99739e-34 5.23384e-36)
(24.0144 -3.22041e-34 2.81041e-36)
(23.5939 -3.57679e-34 3.12142e-36)
(21.0847 -5.70339e-34 4.97728e-36)
(20.2197 -6.43646e-34 5.61701e-36)
(20.92 -5.84297e-34 5.09908e-36)
(24.3543 -2.9323e-34 2.55898e-36)
(24.2711 -3.00285e-34 2.62055e-36)
(21.5922 -5.27329e-34 4.60193e-36)
(21.5579 -5.3023e-34 4.62725e-36)
(24.326 -2.95635e-34 2.57996e-36)
(22.4763 -4.52394e-34 3.94799e-36)
(21.9929 -4.93367e-34 4.30555e-36)
(24.4027 -2.89133e-34 2.52322e-36)
(24.0782 -3.16637e-34 2.76325e-36)
(24.2178 -3.048e-34 2.65995e-36)
(20.5327 -6.17118e-34 5.38551e-36)
(23.399 -3.74199e-34 3.26559e-36)
(22.6584 -4.36968e-34 3.81336e-36)
(23.3484 -3.78481e-34 3.30296e-36)
(24.2118 -3.05306e-34 2.66436e-36)
(21.4122 -5.42581e-34 4.73503e-36)
(23.0047 -4.0761e-34 3.55716e-36)
(19.959 -6.65745e-34 5.80987e-36)
(22.7646 -4.27966e-34 3.7348e-36)
(20.0119 -6.61264e-34 5.77076e-36)
(21.3503 -5.47831e-34 4.78085e-36)
(23.0766 5.08934e-25 4.4414e-27)
(19.9828 -6.63726e-34 5.79225e-36)
(22.9139 -4.15306e-34 3.62432e-36)
(19.9494 -6.66562e-34 5.817e-36)
(24.2471 -3.02321e-34 2.63832e-36)
(23.6606 -3.52029e-34 3.07211e-36)
(21.5276 -5.32798e-34 4.64966e-36)
(20.8753 2.06413e-23 1.80134e-25)
(21.2188 -5.58973e-34 4.87808e-36)
(22.6839 -4.34806e-34 3.7945e-36)
(24.4181 -2.87827e-34 2.51182e-36)
(20.7853 -5.95714e-34 5.19871e-36)
(21.3848 -5.44905e-34 4.75532e-36)
(22.3746 -4.61014e-34 4.02321e-36)
(21.0602 -5.72413e-34 4.99537e-36)
(22.8104 -4.24081e-34 3.7009e-36)
(22.493 -4.50981e-34 3.93565e-36)
(24.1491 -3.10621e-34 2.71074e-36)
(20.5864 -6.12575e-34 5.34586e-36)
(22.697 -4.33691e-34 3.78476e-36)
(22.0922 -4.84948e-34 4.23207e-36)
(22.8879 1.0389e-18 -9.06636e-21)
(20.0994 -6.53848e-34 5.70604e-36)
(21.6166 -5.25261e-34 4.58388e-36)
(22.8166 -4.23552e-34 3.69628e-36)
(19.7718 -6.81612e-34 5.94834e-36)
(23.9213 -3.29928e-34 2.87924e-36)
(21.6888 1.85186e-25 1.6161e-27)
(19.727 -6.85409e-34 5.98147e-36)
(19.9287 1.98723e-25 -1.73423e-27)
(23.687 -3.49789e-34 3.05256e-36)
(21.3547 -5.47453e-34 4.77755e-36)
(22.9563 -4.11719e-34 3.59301e-36)
(20.1573 -6.4894e-34 5.66321e-36)
(21.4273 -5.413e-34 4.72385e-36)
(23.8656 6.21595e-25 5.42457e-27)
(20.2564 -6.40542e-34 5.58992e-36)
(21.4785 -5.36961e-34 4.68599e-36)
(23.2065 -3.90512e-34 3.40794e-36)
(19.6909 -6.88468e-34 6.00817e-36)
(21.466 1.13884e-23 9.93849e-26)
(22.4823 -4.51891e-34 3.94359e-36)
(20.5833 -6.12837e-34 5.34814e-36)
(21.244 7.10565e-23 6.20101e-25)
(23.379 -3.75891e-34 3.28035e-36)
(21.4272 1.44248e-05 -6.1656e-15)
(20.1278 -6.51441e-34 5.68504e-36)
(20.878 -5.87854e-34 5.13013e-36)
(23.157 -3.94703e-34 3.44453e-36)
(21.8751 -5.03354e-34 4.39271e-36)
(21.1396 -5.65687e-34 4.93668e-36)
(22.148 -4.80225e-34 4.19086e-36)
(23.1499 -3.95309e-34 3.44981e-36)
(20.2818 -6.38386e-34 5.57111e-36)
(19.567 -6.98965e-34 6.09978e-36)
(20.3082 -6.36152e-34 5.55162e-36)
(19.5602 -6.99539e-34 6.10479e-36)
(20.1007 -6.53733e-34 5.70504e-36)
(20.87 -5.88535e-34 5.13607e-36)
(22.9664 -4.10863e-34 3.58555e-36)
(20.4465 -6.24431e-34 5.44933e-36)
(22.7485 -4.28508e-34 3.73953e-36)
(19.764 -6.82267e-34 5.95405e-36)
(23.8532 -3.35703e-34 2.92964e-36)
(21.6953 -5.18592e-34 4.52568e-36)
(21.8382 -5.06481e-34 4.42e-36)
(24.274 -3.00039e-34 2.6184e-36)
(21.727 -5.15901e-34 4.5022e-36)
(22.2151 -4.74532e-34 4.14118e-36)
(19.4339 -7.10249e-34 6.19825e-36)
(22.2573 -4.70961e-34 4.11002e-36)
(21.9583 -4.96296e-34 4.33111e-36)
(22.7695 -4.27548e-34 3.73116e-36)
(19.4251 -7.10298e-34 6.21076e-36)
(23.9433 -7.8626e-35 5.03988e-36)
(23.7867 -3.41341e-34 2.97883e-36)
(21.8157 -5.08385e-34 4.43661e-36)
(21.5065 -5.34587e-34 4.66527e-36)
(21.3478 -5.48038e-34 4.78266e-36)
(21.5861 -5.27846e-34 4.60644e-36)
(24.205 -3.05887e-34 2.66943e-36)
(24.3103 -2.96961e-34 2.59154e-36)
(19.6534 -6.91644e-34 6.03589e-36)
(23.3224 -3.80692e-34 3.32225e-36)
(21.2798 -5.53803e-34 4.83297e-36)
(19.3655 1.15702e-19 1.00971e-21)
(23.4387 1.56318e-24 -1.36417e-26)
(21.8364 -5.06635e-34 4.42133e-36)
(21.4202 -5.41903e-34 4.72912e-36)
(19.3515 1.21687e-19 -1.06194e-21)
(22.6949 1.54963e-18 1.35234e-20)
(20.4606 -6.2323e-34 5.43885e-36)
(21.4314 -5.40959e-34 4.72088e-36)
(19.8911 -6.71498e-34 5.86008e-36)
(19.3251 1.14658e-19 1.0006e-21)
(22.3926 -4.59487e-34 4.00988e-36)
(23.6106 -3.56267e-34 3.10909e-36)
(19.2923 -7.22252e-34 6.303e-36)
(19.2751 -7.23707e-34 6.31569e-36)
(24.0206 -3.21513e-34 2.8058e-36)
(19.5928 -6.96784e-34 6.08074e-36)
(24.1134 -3.13648e-34 2.73717e-36)
(19.4961 -7.04975e-34 6.15222e-36)
(24.3728 -2.91662e-34 2.5453e-36)
(20.9195 -5.84341e-34 5.09946e-36)
(23.6929 -3.49289e-34 3.0482e-36)
(19.1972 -7.30306e-34 6.37329e-36)
(19.1883 2.03158e-25 1.77293e-27)
(24.1441 0.785222 1.0842e-19)
(21.1784 -5.62398e-34 4.90797e-36)
(20.8976 -5.862e-34 5.11569e-36)
(23.844 0.572953 -1.0842e-19)
(24.1832 0.386317 3.25261e-19)
(23.8173 0.475734 -1.0842e-19)
(24.3181 0.250166 1.0842e-19)
(24.4799 0.0966855 2.71051e-20)
(24.2785 0.252967 0)
(23.0756 1.02784 4.33681e-19)
(23.0943 0.776566 -9.48677e-20)
(24.387 0.227596 -1.0842e-19)
(23.5246 0.406683 0)
(24.3874 0.0517863 0)
(23.4976 0.530397 -1.0842e-19)
(24.4338 0.00119141 0)
(23.7784 0.407405 0)
(24.0871 0.314527 0)
(24.1816 0.132512 0)
(24.283 0.0500766 2.71051e-20)
(24.0629 0.175191 0)
(24.2739 0.0782298 0)
(23.4834 0.432324 1.35525e-19)
(23.9063 0.20474 5.42101e-20)
(23.5918 0.288187 5.42101e-20)
(22.9943 0.675552 -2.1684e-19)
(23.8804 0.159726 2.71051e-20)
(23.9464 0.105289 -2.37169e-20)
(24.0424 0.178068 1.0842e-19)
(23.5381 0.49202 -5.42101e-20)
(23.4471 0.301164 -1.0842e-19)
(23.6088 0.134199 -1.0842e-19)
(23.6062 0.157493 1.0842e-19)
(23.4197 0.257476 0)
(23.5894 0.0754595 -2.71051e-20)
(23.2948 0.499251 -2.71051e-19)
(23.6268 0.0604688 5.0822e-21)
(23.4184 0.0617995 0)
(23.0306 0.334594 1.0842e-19)
(23.238 0.00758693 0)
(22.7471 0.446213 -5.42101e-20)
(23.0767 0.385837 0)
(23.1731 0.153093 0)
(23.138 0.114309 1.0842e-19)
(22.7569 0.434692 -5.42101e-20)