/*--------------------------------*- C++ -*----------------------------------*\
  =========                 |
  \\      /  F ield         | OpenFOAM: The Open Source CFD Toolbox
   \\    /   O peration     | Website:  https://openfoam.org
    \\  /    A nd           | Version:  7
     \\/     M anipulation  |
\*---------------------------------------------------------------------------*/
FoamFile
{
    version     2.0;
    format      ascii;
    class       labelField;
    location    "0.7/lagrangian/reactingCloud1";
    object      origId;
}
// * * * * * * * * * * * * * * * * * * * * * * * * * * * * * * * * * * * * * //


2453
(
3951
3952
3953
3954
3955
3956
3957
3958
3959
3960
3961
3962
3963
3964
3965
3966
3967
3968
3969
3970
3971
3972
3973
3974
3975
3976
3977
3978
3979
3980
3981
3982
3983
3984
3985
3986
3987
3988
3989
3990
3991
3992
1704
3527
3839
3849
3883
3885
3889
3891
3893
3892
3894
3895
3896
3897
3898
3899
3900
3901
3902
3903
3905
3906
3907
3909
3908
3910
3911
3912
3913
3914
3915
3917
3916
3918
3919
3921
3920
3922
3923
3924
3925
3926
3927
3928
3929
3931
3933
3932
3904
3935
3936
3937
3938
3940
3939
3941
3930
3942
3934
3943
3944
3945
3946
3947
3949
3948
3950
3871
3867
3873
3869
3870
3872
3876
3877
3875
3874
3878
3868
3881
3880
3882
3884
3888
3886
3887
3879
3890
3861
3844
3858
3828
3860
3859
3851
3864
3865
3853
3863
3862
3866
3835
3843
3845
3841
3847
3846
3842
3850
3855
3848
3852
3854
3856
3857
3807
3823
3829
3826
3830
3831
3827
3824
3833
3837
3836
3840
3825
3832
3834
3838
3794
3759
3780
3795
3789
3798
3787
3793
3796
3797
3800
3801
3803
3802
3806
3805
3804
3814
3809
3811
3810
3815
3799
3816
3817
3813
3818
3808
3819
3821
3812
3822
3820
3751
3757
3756
3758
3760
3761
3762
3767
3738
3752
3770
3771
3773
3766
3774
3765
3768
3777
3769
3779
3775
3772
3781
3784
3783
3776
3763
3782
3785
3786
3764
3788
3791
3778
3790
3792
822
1539
291
1750
1975
2056
2418
1088
2501
849
2956
3331
3665
3695
3673
3698
3683
3677
3688
3702
3700
3699
3686
3684
3705
3708
3706
3703
3701
3697
3707
3709
3710
3711
3715
3712
3717
3720
3714
3718
3713
3725
3726
3722
3731
3732
3735
3723
3716
3733
3734
3729
3737
3736
3704
3741
3727
3740
3739
3724
3730
3745
3744
3728
3748
3743
3721
3747
3719
3746
3750
3749
3742
3755
3753
3754
1166
1236
1474
1723
1609
1123
2144
2299
2808
3265
412
3353
3563
3600
3609
3604
3619
3602
3628
3622
3630
3626
3634
3607
3616
3625
3614
3631
3637
3623
3636
3629
3612
3613
3627
3624
3642
3633
3635
3632
3647
3644
3648
3564
3646
3638
3639
3641
3618
3651
3653
3657
3645
3658
3621
3640
3656
3652
3649
3660
3663
3661
3654
3667
3662
3650
3659
3655
3643
3668
3669
3664
3672
3671
3674
3670
3675
3676
3679
3678
3682
3685
3666
3681
3690
3687
3689
3691
3693
3694
3692
3680
3696
624
1068
1411
1561
1634
1885
1939
613
2220
2198
2288
2313
2531
2544
1264
2642
1542
2279
2030
1986
2886
2954
3041
3147
3144
3247
3280
700
3324
3507
3479
3544
3533
3552
3550
3554
3558
3561
3447
3548
3553
3562
3484
3542
3567
3543
3546
3539
3545
3570
3460
3549
3571
3557
3574
3560
3537
3575
3559
3566
3573
3556
3568
3578
3584
3576
3589
3565
3572
3555
3585
3569
3579
3590
3588
3593
3580
3591
3547
3592
3594
3581
3601
3583
3587
3598
3597
3599
3603
3610
3606
3577
3611
3582
3605
3595
3596
3608
3620
3586
3615
3551
3617
184
199
422
415
533
532
498
579
707
641
91
831
843
502
976
973
1122
1137
1155
1092
1191
96
1218
1233
1305
1307
40
1372
1438
1452
1615
1807
1859
1884
1898
688
1914
1921
1930
1943
1985
1982
2037
2055
2053
2073
2229
2294
2324
2343
2312
2451
2471
2564
2586
284
2647
2741
2716
2755
2842
2810
2896
2981
547
3030
3052
3025
3050
3087
3059
3130
3140
3183
3205
3232
3249
1796
3391
3319
3304
3312
3298
3377
3338
3402
3368
3408
3407
3416
3410
3423
3346
3418
3427
3359
3415
3428
3414
3436
3419
3442
3431
3440
3426
3361
3435
3448
3451
3454
3348
3444
3429
3404
3449
3456
3425
3437
3458
3412
3438
3450
3466
3441
3453
3369
3464
3432
3452
3445
3365
3462
3457
3349
3481
3478
3480
3283
3409
3472
3433
3482
3446
3434
3411
3489
3455
3474
3471
3490
3430
3491
3476
3467
3475
3424
3504
3496
3500
3493
3498
3468
3473
3461
3443
3483
3469
3477
3508
3503
3463
3511
3509
3465
3499
3494
3515
3518
3488
3485
3492
3502
3519
3439
3486
3523
3505
3495
3514
3497
3524
3513
3487
3526
3521
2185
3517
3512
3530
3470
3534
3529
3459
3506
3532
3510
3541
3516
3535
3528
3531
3538
3520
3536
3525
3522
3501
3540
36
41
4
30
47
83
78
85
86
112
124
129
147
168
183
216
193
250
263
293
315
294
318
351
398
472
512
519
506
545
571
628
666
667
728
733
737
235
775
826
830
895
896
945
941
899
946
964
962
994
1015
1025
1073
1084
1090
1101
1112
1129
1143
1128
1163
1195
1192
1204
1240
1231
1212
1298
1304
1336
1333
1319
1249
1318
1388
1406
1449
1471
1428
1502
1347
1566
581
1554
1570
1510
1608
317
1646
1664
1673
1662
1637
1705
1702
1676
1727
1735
1756
1815
1767
1781
1830
1882
1821
1904
1972
1971
1956
693
2049
2083
1780
2110
2091
2131
2125
2159
2184
2157
2178
2189
2201
593
2197
2253
2244
2301
2332
2334
2351
2384
2368
2380
2177
2412
2434
2445
1419
2447
1779
2517
2524
2500
2532
2567
2563
2601
2655
2575
2717
2727
2661
1252
2751
2787
2780
2788
2801
2809
2772
2825
2797
2837
2834
2793
2853
2856
2887
245
2871
2849
2899
101
2894
2905
2933
2921
2557
2977
3006
2100
1858
3047
3099
3083
3161
3174
3092
3135
425
2950
3187
3253
3281
3206
3258
3098
3243
3236
3081
3226
3143
3272
3185
3293
3175
3287
3240
3279
3295
3286
3284
3300
3263
3270
3222
3245
3278
3292
3257
3221
3255
3285
3301
3271
3277
3291
3314
3311
3252
3322
3251
3276
3297
3299
3230
3308
3321
3327
3329
3259
3294
3316
3273
3204
3303
3337
3317
3296
3307
3152
3332
3335
3282
3325
3340
3328
3302
3347
3315
3288
3343
3341
2478
3352
3350
3320
3356
1638
3309
3355
3313
3305
3354
3326
3267
3367
1046
3306
3323
3370
3386
3339
3290
3336
3330
3362
3318
3363
3357
3342
3385
3372
3382
3310
3390
3360
3393
3396
3351
3364
3358
3398
3389
3375
3392
3376
3399
3395
3388
3334
3406
3345
3373
3394
3374
3344
3383
3017
3384
3413
3366
3378
3379
3333
3417
3397
3421
3403
3400
3380
3420
3422
3387
3371
3405
3401
3381
34
25
14
57
42
37
88
79
35
45
123
144
190
192
253
160
296
339
379
434
423
458
493
471
499
524
500
632
652
662
744
239
701
749
798
794
768
762
791
846
878
923
939
949
882
960
977
992
1011
980
986
1014
1019
1032
1024
1132
1124
1097
1066
1147
1146
1217
874
1261
1208
907
1079
1337
1327
1362
1370
1391
1295
1354
1410
1413
1407
1423
1446
1459
1473
645
1540
1556
1587
1573
1601
1598
1623
1668
1695
1678
1655
1584
1755
552
1769
1790
1803
1794
51
127
1772
1824
1804
1829
1840
1844
1788
1902
1877
360
457
1958
1926
1961
1456
1990
1940
1999
2007
742
2002
2087
1955
2085
2118
1778
2149
2092
1667
2138
2243
2259
2256
2263
2222
1158
2227
2320
2326
1177
2346
1688
2372
2369
2392
1855
2406
2378
2405
2331
2350
717
1216
2486
174
2482
2446
480
2522
2530
2571
2513
2554
474
1677
2622
2598
2533
2654
2589
1669
2688
2702
2604
2728
2753
2623
731
2759
1151
2712
2743
2031
2798
2860
2862
2812
2877
2881
2882
2722
2893
2910
2875
2944
2913
1857
558
2968
658
3011
3013
3000
3035
3001
3016
1339
2435
3002
2987
3031
3058
3116
3045
3084
3123
1720
3120
3090
3137
3095
2973
3079
3119
157
3138
3155
3082
3159
2926
3115
3110
3057
3108
3111
3141
3103
3124
3105
3148
3149
3113
3128
3067
3042
2983
3176
3114
3182
3156
3177
3102
3089
3173
3125
3178
3127
3186
3180
3195
3189
3096
3131
3190
3171
3193
3145
3200
3133
3139
3165
3163
3191
3181
3129
3134
3168
3213
3158
3162
3151
3211
3194
3207
3169
3202
3179
3216
3164
3220
3215
3224
3184
3172
3203
828
3228
3217
3209
3218
3167
3198
3136
3150
3234
3212
3208
3196
3146
3160
3242
3229
3233
3201
3219
3237
3225
3246
3241
3166
3199
3170
3235
3238
3197
3244
3262
3223
3268
3227
3188
3231
3192
3239
3250
3248
3261
3256
3264
3254
3142
3275
3269
3157
3153
3266
3210
3154
3274
3132
3214
3260
3289
10
11
28
26
17
70
62
66
105
125
186
200
117
142
188
238
165
212
306
309
320
356
324
300
417
367
431
459
488
453
576
567
572
597
610
629
636
635
612
790
761
752
694
810
792
868
893
903
922
854
869
988
672
974
1039
965
1077
1063
461
1067
1135
1170
1114
1182
1214
1184
1172
1239
251
1348
847
1384
1405
1429
492
1416
1439
1444
678
1434
574
1475
1464
1497
1505
1552
1562
1493
1641
1694
1571
1736
625
1759
1596
1519
1773
1792
1776
1826
1849
1878
1880
1799
1905
1651
1823
1867
1951
1934
1915
2005
2024
1998
1969
2000
1947
2043
2047
2128
1280
2124
2164
2155
2181
2215
2211
2208
416
2309
2300
2225
2241
560
2200
2342
2329
2337
2356
1700
1658
2401
2172
2358
2439
2448
623
2459
2476
2210
2470
1938
2502
2423
2498
2505
2506
2510
2507
1569
2573
2462
2599
2584
2560
2616
2503
2663
2653
1937
2711
2719
2733
470
2730
2785
2815
2822
2844
2836
2774
2885
2883
2803
2771
2888
2764
2782
2729
2792
2851
2865
2911
2795
2696
2918
2895
2861
2789
2817
2914
122
2909
2876
2907
2869
2900
2794
2847
2930
1324
2805
2878
585
2925
2892
2868
2943
2874
2889
2863
2949
2934
2845
2948
2897
2936
2866
2818
2404
2873
2839
2858
2947
2931
2938
2945
2884
2927
2976
2760
2966
2901
2929
2975
2974
2917
2912
2942
2726
2959
2958
2819
2902
2971
2953
2940
2919
2937
2932
2995
2998
2986
2990
2840
2969
7
2979
2964
2997
2972
2903
2946
2813
2957
2991
2952
2985
2923
2988
2999
2996
3019
3024
3009
2960
3007
3014
2978
3015
2994
1911
3003
2924
3005
3021
2992
3004
2965
2626
2982
2770
2961
3040
3037
3034
3043
3036
2984
2935
2890
3038
2824
3010
2980
2915
2928
2829
3029
2922
3046
2963
3051
2955
3026
3039
2962
2814
2993
2916
3018
2970
3022
3069
3020
650
3062
3076
3049
2816
3028
3068
3075
3012
2951
2939
3070
3033
3064
3044
3063
1883
3072
3086
3054
3091
3008
3085
3060
3077
3093
3080
3065
3101
3056
3032
3074
3104
3071
2908
3073
889
3107
3027
3117
3078
3048
3118
3088
2989
3094
3109
3066
3122
3097
3112
2967
15
3100
3053
3055
3061
3023
2941
3106
3126
3121
3
29
76
64
46
33
95
55
80
81
99
77
103
90
9
156
56
97
137
119
167
60
166
182
203
210
246
198
209
213
267
194
225
248
395
436
430
338
380
447
466
442
494
520
559
549
504
432
631
634
661
542
578
554
675
653
591
691
710
618
654
482
670
739
709
730
763
819
696
852
834
835
897
863
864
890
880
915
818
938
1007
957
1058
1036
972
1060
1028
1107
998
1150
1133
1153
1119
1178
1145
1115
1258
1268
1303
1297
1226
1321
1103
1293
1364
1223
1359
1382
1300
647
1310
1389
1350
1356
1394
1395
1277
1420
1436
1387
1404
1427
1378
1437
1509
1472
1496
1458
1550
1516
1591
1597
1538
1515
1568
1647
1661
1607
1606
1671
1685
1722
355
1675
1666
1744
1737
1729
1716
1717
1798
1785
1791
1770
1746
1728
1847
1800
944
1846
1852
1836
1892
1787
1813
1903
1917
1899
1870
1922
1929
1948
942
1981
2028
2021
1920
2009
2041
2042
2069
2016
2001
2103
1141
2036
2071
2062
2109
162
2086
2003
2108
2141
27
2187
2264
1679
2268
2270
2305
2290
2130
2214
2293
2282
2096
2171
2289
2321
2344
2063
2261
2319
2275
2336
2367
2120
2076
2254
2129
2354
2306
2257
2381
2318
2352
2373
2255
2376
2382
2391
2365
2196
2394
2286
2370
2383
2339
2410
2298
2389
2426
2101
2325
2302
2258
2040
487
2408
2429
2393
2414
2440
2413
2432
2338
2273
2296
2433
2395
2390
2444
2431
2419
2420
2436
2454
2303
2323
2388
2455
2472
2398
2449
2402
2438
2460
2386
2248
2080
2442
2180
2427
2230
2457
2361
2463
1400
2285
2266
2304
2485
2474
2387
2379
2465
2396
2416
2479
2492
2469
2468
2443
2493
2452
2437
2466
2422
2385
2424
2430
2417
2509
2411
2425
2508
2366
2453
2499
2504
2464
1732
2409
2523
2491
2399
2488
2528
2527
2349
2526
2512
2421
2374
2537
2316
2548
2461
2483
2529
2473
2467
2521
2511
2458
2540
2541
2535
2556
2516
2543
2515
2536
2481
2568
2574
2156
2397
2552
2562
2400
2497
2353
2549
2246
2591
2456
2477
2547
2551
2572
2475
648
2561
1923
397
2577
2415
2490
2607
2550
2600
2407
2569
2603
2450
2495
2520
2553
2494
2578
2496
2596
2613
2377
2592
2441
2514
2487
2627
2558
2538
2590
2583
2580
2606
2612
2630
2631
2643
2625
2585
2546
2555
2648
2633
2328
2525
2657
2649
2345
2644
2659
2614
2539
2669
2629
2297
2582
2484
2605
2650
2610
2667
2621
2679
2428
2602
2674
2566
2686
2640
2664
22
2618
2588
2597
2619
2403
2534
2624
2518
2681
2565
2684
2628
2646
2581
2666
2587
2692
600
2617
2680
2651
2658
2682
2480
2677
2634
2708
2683
2694
2662
2676
2635
2545
2489
2519
2678
2641
2699
2723
2632
2691
54
2725
685
2707
2645
2731
2673
2709
2744
2668
2734
2670
2701
2611
2579
2704
2609
2758
2216
2703
2671
2689
2639
2695
2690
82
2660
2765
2638
2697
2740
2693
2608
2776
2714
2724
32
2736
2559
2687
375
2749
2775
2778
2768
2698
2767
2747
2594
2705
2783
2761
2718
2620
2710
2593
2713
2791
2748
2752
2746
2595
2739
2735
2637
2777
2769
2784
2766
2576
2675
2742
2796
2720
2750
2542
2799
2685
2672
2762
2737
2802
2665
2732
2652
2656
2615
2757
2804
2838
2800
2790
2855
2781
2807
2706
2835
2756
2843
2850
748
2828
2832
2831
2854
2754
2786
2833
2826
2841
2867
2715
2779
2636
2811
1254
2872
2763
2880
2821
2721
2773
2879
2820
2745
2864
2870
2857
2830
2891
2738
2823
2852
2859
2848
2827
2806
2570
2700
2898
2906
2904
2920
2846
)


// ************************************************************************* //
