/*--------------------------------*- C++ -*----------------------------------*\
  =========                 |
  \\      /  F ield         | OpenFOAM: The Open Source CFD Toolbox
   \\    /   O peration     | Website:  https://openfoam.org
    \\  /    A nd           | Version:  7
     \\/     M anipulation  |
\*---------------------------------------------------------------------------*/
FoamFile
{
    version     2.0;
    format      ascii;
    class       Cloud<passiveParticle>;
    location    "0.7/lagrangian/reactingCloud1";
    object      positions;
}
// * * * * * * * * * * * * * * * * * * * * * * * * * * * * * * * * * * * * * //

2453
(
(0.105407 0.158914 0.447963 0.287717) 2875 5642 2
(0.332005 0.328993 0.0387651 0.300236) 2758 5542 1
(0.0767253 0.389547 0.0680328 0.465695) 2739 5369 2
(0.435675 0.282131 0.00395254 0.278241) 2656 5204 1
(0.0547317 0.306803 0.475325 0.16314) 2526 5081 2
(0.46958 0.0313901 0.265463 0.233567) 2113 4261 2
(0.221027 0.264414 0.390263 0.124296) 2422 4743 2
(0.115965 0.441232 0.15303 0.289773) 2318 4536 1
(0.055759 0.338697 0.132501 0.473043) 2330 4558 2
(0.260918 0.0132131 0.356229 0.36964) 1836 3577 2
(0.27298 0.361354 0.0897206 0.275945) 2112 4259 1
(0.186297 0.398927 0.14534 0.269437) 2091 4218 1
(0.400831 0.104757 0.300749 0.193663) 1994 4025 2
(0.356152 0.309796 0.322341 0.0117111) 1937 3780 2
(0.540022 0.214734 0.230224 0.0150205) 1852 3611 2
(0.140873 0.379612 0.429881 0.0496338) 1792 3492 2
(0.195094 0.400231 0.159989 0.244686) 1732 3370 1
(0.158754 0.419438 0.0260659 0.395742) 1689 3285 1
(0.0311377 0.484431 0.0415899 0.442841) 1529 2968 1
(0.122738 0.436876 0.27894 0.161446) 1450 2945 1
(0.0256634 0.487168 0.298109 0.18906) 1370 2652 1
(0.62726 0.0236315 0.186751 0.162357) 1328 2703 2
(0.12994 0.43503 0.0367878 0.398242) 1226 2368 1
(0.449417 0.224933 0.275291 0.0503581) 1178 2273 2
(0.496221 0.249997 0.249861 0.00392125) 1090 2095 1
(0.187146 0.297852 0.106319 0.408684) 1089 2093 2
(0.503255 0.0704735 0.177899 0.248373) 1040 1997 2
(0.586371 0.070422 0.206815 0.136393) 997 1914 2
(0.0165423 0.396124 0.0956047 0.491729) 817 1554 2
(0.233786 0.281499 0.0978044 0.386911) 846 1611 2
(0.16721 0.0516821 0.364713 0.416395) 765 1451 2
(0.453184 0.0113754 0.261925 0.273515) 694 1309 2
(0.173239 0.0610219 0.413381 0.352359) 627 1179 2
(0.383257 0.090046 0.217254 0.309444) 569 1061 2
(0.00135045 0.499091 0.471506 0.0280528) 416 892 1
(0.238506 0.236726 0.142172 0.382596) 411 747 2
(0.196832 0.398076 0.357791 0.0473011) 357 640 1
(0.194061 0.178704 0.224265 0.402969) 304 536 2
(0.0658472 0.133313 0.333764 0.467076) 219 367 2
(0.40861 0.294057 0.189983 0.10735) 146 221 1
(0.207168 0.200954 0.195462 0.396416) 98 127 2
(0.252402 0.151501 0.373799 0.222298) 12 12 2
(0.344709 0.255276 0.329609 0.070406) 3810 7630 2
(0.361872 0.316839 0.298162 0.0231271) 3605 7088 1
(0.220538 0.389251 0.161286 0.228926) 5372 313902 2
(0.087176 0.453651 0.36445 0.0947231) 6258 12355 1
(0.0440705 0.474379 0.451858 0.0296925) 6329 12496 1
(0.380968 0.151654 0.308716 0.158662) 6468 12775 2
(0.337483 0.332739 0.0522051 0.277573) 6408 12656 1
(0.441326 0.12798 0.278662 0.152032) 6495 12829 2
(0.208741 0.394347 0.266076 0.130836) 6137 12250 1
(0.304656 0.332288 0.34592 0.0171364) 6508 12855 2
(0.276425 0.360773 0.0689941 0.293808) 6290 12419 1
(0.0389116 0.15085 0.330473 0.479765) 5925 11695 2
(0.0846378 0.22243 0.456527 0.236405) 6000 11846 2
(0.0466411 0.106112 0.476138 0.371109) 5857 11562 2
(0.248554 0.376068 0.263793 0.111585) 5650 11151 1
(0.316606 0.220417 0.117198 0.345779) 6024 11891 2
(0.522784 0.238881 0.0896777 0.148657) 5513 10877 1
(0.0685127 0.140226 0.467067 0.324195) 5658 11299 2
(0.0384289 0.0340878 0.446414 0.48107) 5515 10880 2
(0.538571 0.231056 0.126177 0.104195) 5750 11350 1
(0.0520403 0.474616 0.210539 0.262804) 5452 10756 1
(0.0941547 0.449358 0.114266 0.342222) 5460 10906 1
(0.151007 0.285314 0.428251 0.135428) 5469 10924 2
(0.580872 0.208759 0.0869603 0.123409) 5318 10489 1
(0.396932 0.302181 0.212348 0.088539) 5570 10991 1
(0.466768 0.0652577 0.200832 0.267142) 4969 9796 2
(0.0768779 0.161065 0.30097 0.461086) 5340 10534 2
(0.655748 0.172365 0.0881323 0.083754) 5110 10079 1
(0.12681 0.436822 0.358068 0.0783003) 5208 10274 1
(0.128539 0.258998 0.173977 0.438486) 5120 10096 2
(0.158753 0.421418 0.27794 0.141888) 5148 10153 1
(0.178038 0.0117717 0.411104 0.399087) 4915 9824 2
(0.0300103 0.286601 0.485147 0.198242) 4289 8449 2
(0.122935 0.434907 0.0795831 0.362575) 4846 9687 1
(0.116739 0.439103 0.140829 0.303329) 4700 9397 1
(0.738931 0.129817 0.0774952 0.0537571) 4706 9274 1
(0.288445 0.356229 0.167863 0.187463) 4885 9631 1
(0.780011 0.00585806 0.109982 0.10415) 4722 9309 2
(0.100246 0.264535 0.449412 0.185807) 4644 9154 2
(0.146653 0.419916 0.00729076 0.42614) 4577 9019 2
(0.233613 0.0670953 0.31505 0.384242) 4591 9046 2
(0.236802 0.149823 0.229573 0.383802) 4521 8907 2
(0.435786 0.280436 0.0966761 0.187101) 4364 8730 1
(0.726185 0.136901 0.0838188 0.0530952) 4394 8658 1
(0.054898 0.381447 0.476291 0.0873642) 4232 8468 2
(0.940257 0.0268764 0.00269644 0.0301701) 4170 8210 2
(0.0564897 0.468838 0.145836 0.328836) 4123 8117 1
(0.271656 0.358501 0.108969 0.260874) 4125 8256 1
(0.298272 0.350156 0.0962978 0.255274) 3196 6277 1
(0.412219 0.140191 0.295643 0.151947) 3903 7815 2
(0.490525 0.192421 0.256624 0.0604304) 3824 7658 2
(0.0921825 0.452678 0.127604 0.327535) 3752 7383 1
(0.0588 0.469172 0.372073 0.0999547) 3705 7422 1
(0.168708 0.415227 0.0834852 0.33258) 3545 6970 1
(0.15313 0.221738 0.430364 0.194768) 3655 7323 2
(0.363773 0.315466 0.0665824 0.254179) 3488 6991 1
(0.203006 0.383045 0.0122601 0.401689) 3407 6695 2
(0.0711897 0.463039 0.268123 0.197647) 3337 6557 1
(0.0456827 0.475257 0.0970148 0.382045) 3267 6420 1
(0.160035 0.418704 0.250862 0.170398) 3353 6589 1
(0.405113 0.296312 0.227362 0.0712133) 3290 6464 1
(0.680079 0.159195 0.158134 0.00259192) 3256 6397 1
(0.693659 0.109365 0.0432846 0.153691) 3156 6198 2
(0.921987 0.0388196 0.0205007 0.0186928) 3078 6177 1
(0.0439115 0.427854 0.0482701 0.479965) 2997 5882 2
(0.0560679 0.186778 0.284324 0.472831) 3105 6097 2
(0.307978 0.0491097 0.296024 0.346888) 2963 5814 2
(0.0654262 0.461919 0.246943 0.225712) 23043 45587 1
(0.405057 0.297471 0.195893 0.101579) 22174 43855 1
(0.588258 0.193039 0.0128314 0.205871) 21089 41687 2
(0.487395 0.256303 0.121319 0.134984) 19660 38834 1
(0.469654 0.174054 0.266673 0.0896185) 8373 37717 2
(0.00703961 0.323744 0.174129 0.495087) 8312 16434 2
(0.265823 0.366132 0.0631458 0.3049) 8195 16201 1
(0.581899 0.205053 0.109116 0.103933) 8283 16511 1
(0.0752083 0.461481 0.380963 0.0823474) 7979 15907 1
(0.711859 0.00248984 0.144059 0.141592) 7833 15485 2
(0.296526 0.268612 0.08014 0.354721) 7570 14960 2
(0.082535 0.113234 0.344469 0.459762) 7492 14805 2
(0.0167867 0.492085 0.395786 0.0953422) 7305 14437 1
(0.577287 0.209464 0.0277463 0.185503) 7227 14414 1
(0.641595 0.177933 0.0560808 0.124391) 7023 14009 1
(0.345008 0.328206 0.190296 0.13649) 6963 13758 1
(0.36047 0.198014 0.117036 0.32448) 6846 13523 2
(0.244047 0.379106 0.213962 0.162884) 6758 13349 1
(0.445053 0.278768 0.245192 0.0309865) 6764 13361 1
(0.0173722 0.0578037 0.491011 0.433813) 6671 13178 2
(0.115972 0.0244952 0.441885 0.417648) 6635 13107 2
(0.00659326 0.0148922 0.481811 0.496703) 31695 62861 2
(0.66653 0.166735 0.0494902 0.117245) 31379 62232 1
(0.0783613 0.460819 0.0252191 0.4356) 31391 62256 1
(0.561419 0.0781875 0.21929 0.141103) 29979 59437 2
(0.625884 0.187058 0.0730166 0.114041) 31122 61719 1
(0.331814 0.226197 0.107896 0.334093) 30556 60587 2
(0.167217 0.264123 0.152268 0.416392) 30263 60002 2
(0.0512813 0.473241 0.428512 0.0469659) 28904 57845 1
(0.0917588 0.454121 0.399365 0.0547553) 28635 56752 1
(0.0196024 0.0938155 0.395588 0.490994) 27470 54425 2
(0.18659 0.404747 0.184013 0.224649) 26925 53337 1
(0.556061 0.221969 0.0267377 0.195232) 26363 52216 1
(0.523536 0.174522 0.238232 0.0637095) 23575 46652 2
(0.770124 0.0690857 0.114938 0.0458521) 43096 85624 2
(0.858418 0.0707909 0.0035084 0.0672825) 43125 85680 1
(0.391433 0.300527 0.0300623 0.277977) 41164 82321 1
(0.642086 0.178606 0.0371527 0.142155) 41148 81732 1
(0.768312 0.0447195 0.116448 0.0705203) 39768 79534 2
(0.344367 0.32553 0.214984 0.11512) 39759 78959 1
(0.099849 0.448851 0.314103 0.137197) 38913 77827 1
(0.347333 0.326334 0.0389643 0.287369) 37252 73955 1
(0.216796 0.0587171 0.393699 0.330788) 36443 72896 2
(0.890802 0.0545989 0.0485579 0.00604107) 36683 72821 1
(0.270688 0.162131 0.200682 0.366498) 36692 72836 2
(0.0920565 0.453972 0.18555 0.268421) 36430 72314 1
(0.17112 0.413593 0.0440592 0.371228) 35316 70089 1
(0.473019 0.0391334 0.223781 0.264066) 33633 66729 2
(0.0991057 0.450447 0.202328 0.248119) 52859 105115 1
(0.0332058 0.316775 0.483397 0.166622) 52034 103468 2
(0.391488 0.280113 0.016772 0.311627) 50946 101293 2
(0.705099 0.104172 0.0421461 0.148583) 50640 100682 2
(0.0400479 0.164788 0.479976 0.315188) 50671 100747 2
(0.529594 0.226228 0.0108285 0.233349) 50116 100193 1
(0.144822 0.211343 0.429546 0.214289) 48958 97881 2
(0.619342 0.0346386 0.155376 0.190644) 48120 95651 2
(0.707912 0.0953887 0.0506554 0.146044) 47291 93997 2
(0.262617 0.359422 0.0627935 0.315168) 47043 94058 1
(0.773441 0.113279 0.0158614 0.0974179) 46181 91783 1
(0.373219 0.00565039 0.31339 0.30774) 45650 90723 2
(0.531066 0.217946 0.236449 0.0145402) 45330 90638 2
(0.553847 0.223076 0.154745 0.0683314) 45052 89529 1
(0.230771 0.277089 0.104446 0.387693) 45061 89544 2
(0.0410148 0.479493 0.335845 0.143647) 43656 86740 1
(0.181225 0.193184 0.409388 0.216204) 43362 86155 2
(0 1.78318e-132 0.812813 0.187187) 59335 374528 2
(0.106272 0.444899 0.201186 0.247643) 62621 125158 1
(0.726202 0.10481 0.138771 0.0302172) 62655 125226 2
(0.0866157 0.456692 0.106745 0.349947) 61510 122384 1
(0.202079 0.39896 0.0907061 0.308254) 61819 123003 1
(0.139201 0.17453 0.253973 0.432297) 61800 122962 2
(0.199275 0.389454 0.00736819 0.403903) 60675 120716 2
(0.407262 0.296369 0.0497401 0.246629) 60680 120727 1
(0.587297 0.132066 0.0728507 0.207787) 60963 121291 2
(0.559189 0.218515 0.173971 0.0483259) 60406 120179 1
(0.592635 0.0345353 0.168736 0.204093) 60130 119628 2
(0.106212 0.435257 0.011637 0.446894) 59845 119060 2
(0.0919315 0.265176 0.454034 0.188858) 59568 118509 2
(0.882643 0.00684628 0.0586786 0.0518323) 59307 117988 2
(0.374704 0.217524 0.092017 0.315756) 59300 117971 2
(0.389653 0.254918 0.0502556 0.305173) 59014 117401 2
(0.680152 0.159924 0.0166583 0.143266) 57096 113572 1
(0.546509 0.225327 0.111864 0.1163) 57063 114062 1
(0.838627 0.0805825 0.00997995 0.0708104) 57056 113491 1
(0.171865 0.12576 0.414068 0.288308) 56776 112935 2
(0.090372 0.454814 0.249614 0.2052) 56530 112444 1
(0.126939 0.434167 0.255255 0.183639) 56492 112365 1
(0.87988 0.0299142 0.060683 0.0295224) 55963 111866 2
(0.499603 0.0761976 0.251559 0.17264) 55401 110744 2
(0.336607 0.329422 0.236559 0.0974123) 55099 109584 1
(0.383068 0.0805199 0.227071 0.309341) 53988 107366 2
(0.0358402 0.151931 0.483346 0.328883) 53416 106781 2
(0.481965 0.258589 0.0359512 0.223494) 53714 106819 1
(0.216079 0.39196 0.301724 0.090237) 53441 106277 1
(0.8853 0.0571807 0.0385809 0.018938) 53421 106791 1
(0.110388 0.180086 0.444806 0.26472) 53445 106285 2
(0.727754 0.091022 0.137157 0.0440667) 53153 106256 2
(0.0582868 0.467789 0.19169 0.282234) 72682 145244 1
(0.0318126 0.484094 0.346046 0.138048) 72137 143600 1
(0.384732 0.30745 0.0181031 0.289716) 71563 142453 1
(0.210154 0.26231 0.132613 0.394923) 71574 142476 2
(0.186504 0.402704 0.266867 0.143924) 71579 142485 1
(0.103112 0.230419 0.453052 0.213417) 71307 142499 2
(0.362205 0.174641 0.321909 0.141245) 71024 141934 2
(0.810754 0.0633969 0.0967362 0.0291129) 70201 140291 2
(0.611638 0.19269 0.00780304 0.187869) 68759 137412 1
(0.0442689 0.103839 0.374027 0.477866) 69039 137415 2
(0.418981 0.287044 0.0583107 0.235664) 69067 138027 1
(0.357255 0.321372 0.227592 0.0937801) 69076 137489 1
(0.122722 0.179756 0.456614 0.240907) 68816 137526 2
(0.00554218 0.497217 0.495971 0.00126942) 68211 136318 1
(0.852002 0.0739992 0.0633769 0.0106223) 68528 136397 1
(0.147579 0.426211 0.174768 0.251443) 67931 135205 1
(0.075921 0.46204 0.00144985 0.46059) 68235 135810 1
(0.16476 0.41762 0.0355693 0.382051) 66830 133005 1
(0.0915182 0.391599 0.458407 0.0584761) 66542 132986 2
(0.298221 0.0515919 0.299298 0.35089) 66833 133011 2
(0.788057 0.0191325 0.105971 0.086839) 66543 132434 2
(0.269145 0.0930198 0.366289 0.271547) 65977 131858 2
(0.650282 0.128055 0.0452422 0.17642) 65990 131327 2
(0.555694 0.222153 0.00626629 0.215887) 65731 130811 1
(0.362705 0.142931 0.173836 0.320528) 65714 130776 2
(0.187872 0.406064 0.308633 0.0974311) 65134 129619 1
(0.480102 0.0301599 0.259949 0.229789) 65133 129619 2
(0.387873 0.149139 0.155268 0.307721) 65428 130205 2
(0.858948 0.0704711 0.0668639 0.00371647) 65161 130229 1
(0.844768 0.0766167 0.0499756 0.0286401) 65170 129690 1
(0.441948 0.0530421 0.279026 0.225984) 64303 127962 2
(0.202319 0.396911 0.238701 0.162069) 64037 127985 1
(0.038171 0.480915 0.337145 0.143769) 64058 127473 1
(0.276352 0.139374 0.22245 0.361824) 63443 126243 2
(0.543464 0.228208 0.0060104 0.222318) 63192 125741 1
(0.569646 0.00828827 0.215177 0.206889) 62912 125185 2
(0 0.9397 0.0602998 3.3588e-155) 78865 551450 1
(0 0 0.99672 0.00328016) 82213 397406 2
(0 0.485709 0.514291 2.6637e-154) 78307 550892 1
(0 0.88875 0.11125 0) 82492 555077 1
(0 0 0.303336 0.696664) 77749 392942 2
(0 1.70372e-51 0.731173 0.268827) 76354 391547 2
(0 2.79016e-155 0.536822 0.463178) 79702 394895 2
(0 2.57758e-136 0.00526851 0.994731) 76633 391826 2
(0 0.396361 0.603639 5.39169e-51) 78307 550892 1
(0 0.0566748 0.943325 6.83488e-154) 76075 548660 1
(0 0.508655 0.491345 1.00896e-42) 80260 552845 1
(0 0 0.495939 0.504061) 80539 395732 2
(0.548525 0.134556 0.0900967 0.226823) 81872 163034 2
(0.287717 0.355074 0.269675 0.0875333) 82452 164749 1
(0.666666 0.00297348 0.16366 0.166701) 82448 164184 2
(0.0473118 0.476344 0.428157 0.0481868) 82472 164235 1
(0.474389 0.249434 0.0133719 0.262806) 82179 163648 2
(0.277785 0.30467 0.208773 0.208773) 82213 164272 1
(0.3652 0.3174 0.199098 0.118301) 82194 163678 1
(0.223014 0.37899 0.228081 0.169916) 82202 163693 1
(0.177307 0.411346 0.283942 0.127404) 82189 163668 1
(0.0672179 0.462481 0.149662 0.32064) 81894 163635 1
(0.801196 0.098569 0.0866345 0.0136006) 81604 162499 1
(0.532213 0.197263 0.233893 0.03663) 81907 163107 2
(0.189251 0.356384 0.0408904 0.413474) 81633 162557 2
(0.0613367 0.0610633 0.404876 0.472724) 81367 162026 2
(0.513437 0.0777318 0.243281 0.16555) 81350 161995 2
(0.308888 0.341863 0.00207619 0.347173) 80772 161395 1
(0.513439 0.241544 0.0748663 0.170151) 80770 161391 1
(0.534521 0.231691 0.0985968 0.135192) 80493 160281 1
(0.112643 0.345847 0.448764 0.0927451) 80505 160862 2
(0.206216 0.396892 0.0967989 0.300093) 80502 160302 1
(0.91998 0.000811217 0.0400195 0.0391889) 80218 160289 2
(0.416185 0.00741339 0.284394 0.292008) 80223 159742 2
(0.0309649 0.484518 0.0161305 0.468387) 79957 159214 1
(0.533394 0.231604 0.0820434 0.152959) 79658 159171 1
(0.0562854 0.285326 0.186531 0.471857) 79678 158655 2
(0.367177 0.132234 0.319891 0.180698) 79125 158107 2
(0.750334 0.124291 0.0553259 0.0700496) 78815 156931 1
(0.186081 0.40696 0.018897 0.388063) 78823 156948 1
(0.414793 0.291785 0.206644 0.086778) 78255 156370 1
(0.0106275 0.15192 0.341115 0.496338) 77703 154711 2
(0.466739 0.26663 0.0290917 0.237539) 77420 154149 1
(0.0347205 0.124823 0.483698 0.356759) 76853 153571 2
(0.272192 0.363904 0.0950762 0.268828) 77165 153638 1
(0.202916 0.38738 0.398542 0.011162) 77169 153648 2
(0.302078 0.0741716 0.267372 0.356378) 76907 153122 2
(0.2905 0.353099 0.175036 0.181365) 76860 153028 1
(0.338995 0.330503 0.258681 0.071822) 76292 151897 1
(0.630746 0.113742 0.0688541 0.186658) 76884 153076 2
(0.535817 0.13939 0.0892168 0.235576) 76892 153092 2
(0.2968 0.149026 0.202574 0.3516) 76585 152480 2
(0.4257 0.28715 0.255057 0.0320934) 76344 152001 1
(0.140331 0.429835 0.225003 0.204831) 76330 151973 1
(0.0858753 0.454248 0.105295 0.354581) 75455 150780 1
(0.358851 0.236641 0.325125 0.0793826) 75491 150852 2
(0.193104 0.0427898 0.403448 0.360658) 75470 150256 2
(0.12848 0.43576 0.156554 0.279206) 75482 150280 1
(0.23088 0.277394 0.107166 0.38456) 75480 150274 2
(0.394453 0.138058 0.163461 0.304029) 75183 149680 2
(0.420863 0.288258 0.138806 0.152074) 74623 149119 1
(0.464345 0.0640316 0.202462 0.269161) 74935 149185 2
(0.0611942 0.469403 0.361832 0.107571) 74642 148603 1
(0.368004 0.0809368 0.315998 0.235061) 74627 148573 2
(0.313449 0.343275 0.249634 0.0936419) 74388 148094 1
(0.249609 0.252776 0.11973 0.377885) 74633 148582 2
(0.259827 0.200429 0.370086 0.169658) 74340 148000 2
(0.120703 0.0511278 0.439649 0.388521) 74661 148641 2
(0.510195 0.242732 0.21708 0.0299929) 74352 148021 1
(0.47728 0.26136 0.104108 0.157252) 73530 146383 1
(0.821325 0.0890106 0.0235403 0.0661242) 73529 146378 1
(0.0608703 0.245716 0.221056 0.472357) 73520 146360 2
(0.537137 0.0905413 0.231432 0.14089) 73222 145768 2
(0.0388631 0.480568 0.0182866 0.462282) 72994 145313 1
(0.467045 0.131504 0.134974 0.266477) 73263 145848 2
(0.316282 0.00866744 0.342087 0.332964) 72987 145853 2
(0 3.38289e-153 0.48555 0.51445) 90862 406055 2
(0 9.6509e-68 0.0654037 0.934596) 89746 404939 2
(0 8.04899e-68 0.0623559 0.937644) 91978 407171 2
(0 0.231458 0.768542 7.56918e-155) 91420 564005 1
(0 2.24017e-154 0.0193677 0.980632) 90862 406055 2
(0 0.123389 0.876611 6.78786e-146) 86398 558983 1
(0 8.0667e-118 0.54555 0.45445) 88909 404102 2
(0 0.79964 0.20036 4.27832e-154) 84724 557309 1
(0 8.05765e-99 0.109811 0.890189) 90862 406055 2
(0 0.995678 0.00432162 3.63684e-19) 91141 563726 1
(0 3.01238e-116 0.0364837 0.963516) 83608 398801 2
(0 0.149837 0.850163 5.84373e-84) 88351 560936 1
(0.433189 0.112016 0.283405 0.17139) 91884 183025 2
(0 0.706832 0.293168 2.70839e-155) 87793 560378 1
(0.152365 0.196055 0.227762 0.423817) 92200 183654 2
(0.343543 0.328228 0.044297 0.283931) 91923 183103 1
(0.643298 0.0992607 0.0777489 0.179692) 91941 183136 2
(0.158474 0.164669 0.421768 0.255088) 90780 181375 2
(0.471463 0.264268 0.0197745 0.244494) 91976 183207 1
(0.0994116 0.450294 0.186715 0.26358) 90796 180853 1
(0.246611 0.376694 0.254368 0.122326) 91690 182638 1
(0.109579 0.177915 0.265015 0.447492) 90823 180904 2
(0.890184 0.0549079 0.0516544 0.00325347) 91126 181512 1
(0.505527 0.236697 0.210787 0.046989) 91132 181521 1
(0.00575068 0.199928 0.497125 0.297197) 90257 179777 2
(0.0407788 0.479583 0.476923 0.00271486) 89977 179772 1
(0.222008 0.381852 0.00324773 0.392893) 90255 179770 2
(0.109195 0.33503 0.473321 0.0824532) 91135 182084 2
(0.44585 0.142195 0.13488 0.277075) 90834 180927 2
(0.0196582 0.458457 0.490171 0.031714) 89977 179218 2
(0.218418 0.390791 0.0992644 0.291527) 90270 179801 1
(0.303108 0.0654759 0.348446 0.28297) 89980 179224 2
(0.856151 0.0384375 0.0721812 0.0332306) 89113 178047 2
(0.0433174 0.477841 0.428795 0.0500471) 89418 178656 1
(0.463782 0.265924 0.161717 0.108577) 89989 179239 1
(0.872851 0.0635744 0.0389113 0.0246631) 89116 177499 1
(0.0579949 0.458247 0.10108 0.382679) 90011 179840 1
(0.27462 0.302855 0.36269 0.0598352) 89138 177543 2
(0.0766024 0.271696 0.190003 0.461699) 89424 178112 2
(0.26343 0.101447 0.266838 0.368285) 89142 177549 2
(0.267249 0.354112 0.318865 0.0597752) 89455 178173 1
(0.693073 0.0650901 0.154343 0.0874936) 89151 178123 2
(0.383671 0.308165 0.212259 0.0959057) 89176 177619 1
(0.603313 0.088441 0.198753 0.109493) 87406 174639 2
(0.245566 0.162851 0.214366 0.377217) 89158 177581 2
(0.302853 0.346043 0.344233 0.00687205) 88284 175835 1
(0.0422847 0.475057 0.380053 0.102605) 88581 176428 1
(0.118375 0.440812 0.144311 0.296501) 88301 175872 1
(0.263952 0.265914 0.10211 0.368024) 87714 174698 2
(0.0180768 0.0279441 0.490962 0.463018) 88893 177054 2
(0.4628 0.266352 0.139363 0.131485) 88321 175909 1
(0.653056 0.172567 0.0506995 0.123678) 87766 174801 1
(0.500037 0.129383 0.251078 0.119502) 86897 173623 2
(0.232504 0.149369 0.234379 0.383748) 87479 174229 2
(0.277272 0.0631515 0.298213 0.361364) 86894 173061 2
(0.70766 0.0341463 0.146441 0.111753) 86614 173058 2
(0.663755 0.168122 0.114302 0.0538207) 87206 173686 1
(0.107677 0.39659 0.446161 0.0495716) 86909 173093 2
(0.22374 0.10475 0.38813 0.28338) 86907 173089 2
(0.620772 0.0445006 0.144543 0.190184) 86917 173106 2
(0.0983179 0.450841 0.198662 0.252179) 86933 173141 1
(0.585324 0.207338 0.177402 0.0299362) 86923 173119 1
(0.421146 0.289427 0.139493 0.149934) 86635 172546 1
(0.553734 0.210838 0.0047657 0.230663) 86663 172599 2
(0.432117 0.283941 0.107104 0.176837) 86358 171993 1
(0.87235 0.00966155 0.063825 0.0541635) 86063 171404 2
(0.459801 0.213859 0.272586 0.0537537) 86076 171984 2
(0.0336415 0.0217451 0.483179 0.461434) 86070 171418 2
(0.0146282 0.492686 0.337075 0.155611) 85789 170855 1
(0.904734 0.0310175 0.0481335 0.0161155) 86088 172008 2
(0.612661 0.15236 0.196982 0.0379978) 86096 172024 2
(0.779243 0.0691341 0.0412445 0.110379) 86107 171490 2
(0.0388815 0.00997765 0.480559 0.470582) 86100 171478 2
(0.469109 0.261621 0.0397877 0.229482) 85811 171455 1
(0.494568 0.243254 0.227074 0.0351031) 85829 170934 1
(0.202864 0.397536 0.327403 0.0721964) 85527 170888 1
(0.0990957 0.0270208 0.423431 0.450452) 85536 170350 2
(0.3176 0.053926 0.285589 0.342885) 85545 170367 2
(0.088498 0.455339 0.430602 0.0255612) 84694 169225 1
(0.289654 0.09438 0.355173 0.260793) 84404 168092 2
(0.208251 0.395875 0.236495 0.159379) 84133 167551 1
(0.231054 0.193558 0.387497 0.18789) 83855 167550 2
(0.567082 0.165605 0.216459 0.0508542) 83832 166950 2
(0.69306 0.15218 0.11355 0.0412103) 83844 166971 1
(0.70125 0.090472 0.0589029 0.149375) 83879 167042 2
(0.663975 0.117684 0.168012 0.0503282) 83863 167012 2
(0.301158 0.0344057 0.314155 0.350281) 83867 167017 2
(0.0992405 0.036964 0.452433 0.411362) 83599 167039 2
(0.672065 0.163967 0.106084 0.0578837) 83310 165908 1
(0.17427 0.115776 0.412865 0.297089) 83314 165916 2
(0.0103102 0.48955 0.412968 0.0871714) 83012 165310 1
(0.414149 0.292925 0.17461 0.118315) 82717 164724 1
(0.585803 0.207099 0.120561 0.0865373) 82747 164782 1
(0 1.20766e-154 0.395116 0.604884) 98116 413309 2
(0 0.315946 0.684054 9.00049e-154) 98395 570980 1
(0 1.08486e-100 0.581316 0.418684) 96721 411914 2
(0 2.97789e-60 0.542434 0.457566) 97279 412472 2
(0 0.558242 0.441758 2.56536e-152) 100906 573491 1
(0 1.66477e-129 0.892727 0.107273) 97279 412472 2
(0 3.60051e-29 0.126921 0.873079) 97558 412751 2
(0 0.0209778 0.979022 3.14244e-152) 95326 567911 1
(0 7.08717e-113 0.223494 0.776506) 102022 417215 2
(0 2.12229e-99 0.604672 0.395328) 95326 410519 2
(0 0.246468 0.753532 5.68842e-118) 98395 570980 1
(0 5.08721e-68 0.394524 0.605476) 94768 409961 2
(0 2.46182e-154 0.590889 0.409111) 95047 410240 2
(0 0.816186 0.183814 1.76745e-154) 102022 574607 1
(0 2.52927e-125 0.930058 0.0699416) 94489 409682 2
(0 2.28008e-55 0.679519 0.320481) 101185 416378 2
(0 0.388522 0.611478 2.45822e-133) 94489 567074 1
(0 0.993607 0.00639258 3.69847e-154) 94489 567074 1
(0 2.0029e-119 0.561987 0.438013) 94489 409682 2
(0 0.612335 0.387665 1.9202e-154) 94210 566795 1
(0 2.40443e-154 0.516704 0.483296) 98395 413588 2
(0 1.4071e-30 0.198301 0.801699) 97837 413030 2
(0 2.82286e-155 0.0223891 0.977611) 94210 409403 2
(0 0.717421 0.282579 2.85654e-154) 97000 569585 1
(0 0.678207 0.321793 2.86418e-154) 95047 567632 1
(0 0.819756 0.180244 2.0202e-153) 95605 568190 1
(0 7.92767e-100 0.856538 0.143462) 101743 416936 2
(0 0.0244055 0.975595 0) 93094 565679 1
(0 6.13163e-154 0.730679 0.269321) 100627 415820 2
(0 1.69629e-28 0.963895 0.0361048) 100906 416099 2
(0.465072 0.267464 0.133003 0.134461) 101668 202556 1
(0.514688 0.0176363 0.242656 0.22502) 101704 202630 2
(0.293897 0.353051 0.297848 0.0552034) 101132 201488 1
(0.114629 0.265404 0.447425 0.172542) 101715 203206 2
(0.433304 0.233837 0.283348 0.0495111) 101724 202670 2
(0.115285 0.441078 0.371975 0.0716627) 101158 202094 1
(0.404882 0.0269068 0.297559 0.270652) 101161 201546 2
(0 4.58682e-129 0.0352392 0.964761) 98953 414146 2
(0.214079 0.392961 0.0546726 0.338288) 99728 198685 1
(0.834055 0.00638967 0.076583 0.0829727) 100017 199260 2
(0.887187 0.0393565 0.0566589 0.0167972) 99433 198650 2
(0.33841 0.328011 0.166548 0.16703) 100598 200976 1
(0.176961 0.407434 0.0969227 0.318683) 99752 199287 1
(0.198687 0.398383 0.254623 0.148307) 99456 198139 1
(0.468224 0.117923 0.147965 0.265888) 100045 199316 2
(0.171267 0.410152 0.0011071 0.417474) 99166 197560 2
(0.0502403 0.18652 0.476214 0.287025) 98883 197552 2
(0.484834 0.257583 0.244344 0.0132386) 98902 197036 1
(0.460897 0.269551 0.0213845 0.248167) 98899 197028 1
(0.354678 0.0725002 0.322661 0.250161) 99769 198767 2
(0.197979 0.39989 0.313492 0.088639) 96861 192958 1
(0.944703 0.0274707 0.0195781 0.00824852) 98620 196470 1
(0.109959 0.0928416 0.445021 0.352179) 98913 197058 2
(0.00553423 0.49625 0.403854 0.0943619) 98348 196484 1
(0.732582 0.0664509 0.133709 0.0672582) 98624 196481 2
(0.596392 0.00331242 0.19846 0.201836) 98064 195360 2
(0.409294 0.295353 0.207508 0.0878448) 97778 194790 1
(0.371622 0.312816 0.208494 0.107068) 98078 195945 1
(0.572853 0.212394 0.125116 0.0896372) 98079 195947 1
(0.267257 0.0919064 0.273598 0.367238) 97784 194801 2
(0.787628 0.0867803 0.107736 0.0178561) 98088 195965 2
(0.938289 0.0307111 0.0180218 0.0129777) 97793 195376 1
(0.511095 0.244452 0.0510564 0.193396) 98092 195419 1
(0.484548 0.182858 0.257726 0.0748679) 97799 194834 2
(0.203494 0.255348 0.412439 0.128719) 97828 195446 2
(0.314566 0.139407 0.20331 0.342717) 96658 192554 2
(0.148376 0.421314 0.00449806 0.425812) 97536 194307 2
(0.154272 0.422864 0.0494896 0.373374) 96958 193153 1
(0.415203 0.292398 0.181711 0.110687) 96958 193153 1
(0.419895 0.27372 0.0144549 0.29193) 96369 191976 2
(0.523197 0.18977 0.0486311 0.238401) 96668 192574 2
(0.847957 0.0323032 0.0437184 0.0760216) 96380 191999 2
(0.49681 0.0313816 0.251848 0.21996) 96380 192555 2
(0.00136128 0.0333715 0.49977 0.465497) 96405 192605 2
(0.464517 0.267741 0.202321 0.0654204) 96408 192055 1
(0.0182012 0.14882 0.493465 0.339514) 96413 192621 2
(0.345692 0.327154 0.0967662 0.230388) 96123 191486 1
(0.417169 0.240158 0.0476189 0.295054) 96130 191499 2
(0.444801 0.276537 0.144801 0.133861) 95543 190884 1
(0.0210499 0.483001 0.401382 0.0945666) 96133 191505 1
(0.553354 0.148479 0.074844 0.223323) 95852 190945 2
(0.0785553 0.460722 0.398703 0.0620197) 94691 188629 1
(0.0146946 0.445283 0.537181 0.00284107) 95321 190441 2
(0.522931 0.238534 0.0021476 0.236387) 94702 188651 1
(0.293532 0.293099 0.35642 0.0569494) 94722 189245 2
(0.229103 0.383259 0.210165 0.177472) 94721 188686 1
(0.312345 0.343827 0.117629 0.226198) 94766 188779 1
(0.0413713 0.209894 0.479314 0.26942) 94731 188709 2
(0.0878341 0.430467 0.460975 0.0207243) 94166 188135 2
(0.595098 0.138396 0.202451 0.0640551) 94469 188186 2
(0.238672 0.128788 0.24973 0.382811) 94459 188163 2
(0.0636991 0.0773756 0.390775 0.46815) 94158 187563 2
(0.339741 0.222953 0.330129 0.107176) 94187 187623 2
(0.234358 0.132331 0.38436 0.248951) 93888 187580 2
(0.637924 0.00440345 0.181038 0.176635) 93892 187034 2
(0.689964 0.15535 0.0773431 0.0773431) 93931 187666 1
(0.0675138 0.0267946 0.439191 0.466501) 93321 185891 2
(0.102372 0.0794447 0.369369 0.448814) 93360 185970 2
(0.609681 0.186416 0.0115477 0.192355) 93084 185975 1
(0.224835 0.342278 0.389672 0.0432146) 92733 185274 2
(0.217893 0.252269 0.393795 0.136043) 92490 184789 2
(0.940656 0.0296497 0.0255332 0.00416122) 92444 184697 1
(0.0427299 0.0372964 0.441339 0.478635) 92498 184249 2
(0 0.283265 0.716735 6.07023e-70) 110671 583256 1
(0 0.472005 0.527995 3.37156e-127) 110950 583535 1
(0 0.0269871 0.973013 1.47319e-83) 108718 581303 1
(0 0.339277 0.660723 1.15279e-136) 106486 579071 1
(0 1.18457e-23 0.294041 0.705959) 109555 424748 2
(0 0.879076 0.120924 4.00084e-154) 110113 582698 1
(0 1.31824e-69 0.671846 0.328154) 105370 420563 2
(0 1.11772e-111 0.914171 0.0858288) 111508 426701 2
(0 2.67528e-154 0.605835 0.394165) 107881 423074 2
(0 2.23506e-104 0.349576 0.650424) 109276 424469 2
(0 0.189946 0.810054 6.80222e-154) 105091 577676 1
(0 2.71438e-154 0.76057 0.23943) 107044 422237 2
(0 0.248868 0.751132 1.45752e-81) 105928 578513 1
(0 0.307868 0.692132 9.81236e-95) 105091 577676 1
(0 8.24917e-43 0.901291 0.0987091) 108439 423632 2
(0 0.0746349 0.925365 9.57191e-134) 109276 581861 1
(0 0.419311 0.580689 1.82483e-153) 108997 581582 1
(0 2.08685e-153 0.243657 0.756343) 109276 424469 2
(0 0.978493 0.0215075 1.30515e-67) 105091 577676 1
(0 0.0941485 0.905852 1.37509e-146) 107881 580466 1
(0 0.403621 0.596379 3.44702e-112) 106207 578792 1
(0 0.592586 0.407414 2.80771e-28) 104812 577397 1
(0 2.28821e-154 0.442962 0.557038) 108439 423632 2
(0 0.857898 0.142102 5.74443e-98) 108997 581582 1
(0 0.455741 0.544259 8.15416e-154) 106486 579071 1
(0 2.14964e-154 0.919572 0.0804285) 105928 421121 2
(0 5.84206e-154 0.0319674 0.968033) 104812 420005 2
(0 0.268089 0.731911 9.47252e-154) 110950 583535 1
(0 0.988724 0.0112758 8.99161e-108) 111787 584372 1
(0 0.0503167 0.949683 1.13514e-21) 105928 578513 1
(0 3.23142e-137 0.0605523 0.939448) 109834 425027 2
(0 3.08989e-118 0.325262 0.674738) 104533 419726 2
(0 0.970035 0.0299651 4.97893e-154) 109834 582419 1
(0 0.872201 0.127799 2.19984e-47) 109834 582419 1
(0 2.19104e-153 0.543845 0.456155) 111229 426422 2
(0 7.04541e-154 0.908473 0.0915273) 103975 419168 2
(0 3.50842e-155 0.700518 0.299482) 111229 426422 2
(0 8.10626e-146 0.977915 0.0220845) 111508 426701 2
(0 0.646335 0.353665 1.82346e-78) 108718 581303 1
(0 0.442569 0.557431 2.40422e-27) 110392 582977 1
(0 0.710395 0.289605 1.42789e-79) 110392 582977 1
(0 1.72825e-116 0.92013 0.0798698) 104533 419726 2
(0 2.24232e-134 0.807382 0.192618) 107323 422516 2
(0 1.75669e-153 0.755635 0.244365) 110671 425864 2
(0 2.95681e-147 0.670455 0.329545) 107044 422237 2
(0 0.665948 0.334052 3.5972e-22) 110392 582977 1
(0 0.537993 0.462007 6.06917e-155) 106486 579071 1