/*--------------------------------*- C++ -*----------------------------------*\
  =========                 |
  \\      /  F ield         | OpenFOAM: The Open Source CFD Toolbox
   \\    /   O peration     | Website:  https://openfoam.org
    \\  /    A nd           | Version:  7
     \\/     M anipulation  |
\*---------------------------------------------------------------------------*/
FoamFile
{
    version     2.0;
    format      ascii;
    class       scalarField;
    location    "0.7/lagrangian/reactingCloud1";
    object      pressure;
}
// * * * * * * * * * * * * * * * * * * * * * * * * * * * * * * * * * * * * * //


2453
(
592.427
590.92
590.739
589.224
587.398
580.991
588.421
583.614
585.987
577.939
580.621
586.664
584.223
585.086
582.785
583.725
584.255
585.069
583.816
582.98
582.031
583.623
581.929
582.902
582.22
582.209
582.84
583.489
582.641
583.118
582.873
582.865
582.912
583.045
582.978
582.98
583.036
583.116
583.071
583.084
583.116
583.117
601.893
601.907
605.399
595.435
593.444
589.863
589.733
585.137
594.773
583.808
589.421
599.841
597.147
600.741
603.329
593.089
604.269
601.412
603.887
596.546
603.152
601.493
599.905
603.294
596.528
605.419
599.595
604.5
599.633
602.562
599.116
602.76
602.268
602.851
603.945
603.159
599.027
601.165
602.262
602.02
600.502
600.61
602.361
599.561
601.769
601.029
598.812
598.67
601.572
599.607
600.762
601.122
598.025
600.957
596.479
598.437
600.783
600.958
601.17
597.248
596.063
594.047
594.722
594.964
596.304
593.451
592.562
466.533
464.589
488.534
489.747
502.768
510.937
522.296
520.874
531.302
538.841
551.173
555.943
561.535
565.576
572.704
573.559
575.514
579.683
578.82
585.114
581.495
381.376
348.865
381.258
189.065
384.848
388.675
362.642
406.291
409.395
338.389
422.049
426.676
453.852
256.131
334.99
337.123
331.969
339.453
339.385
313.794
346.34
350.179
340.834
348.391
349.982
355.601
365.447
186.415
330.121
332.1
331.379
332.175
332.321
289.546
275.887
332.378
333.119
333.485
333.557
288.52
306.61
333.809
295.548
8.54992
329.343
129.188
328.413
194.968
328.616
319.799
223.469
287.887
321.786
325.455
328.288
313.174
324.353
329.337
329.305
328.799
330.096
329.908
325.463
322.502
330.291
268.312
330.483
330.677
303.113
329.682
168.202
331.102
331.333
251.478
331.341
330.932
278.849
326.868
256.852
325.301
326.956
327.205
327.18
327.312
126.135
136.325
327.25
327.413
327.444
231.422
327.474
221.963
327.488
326.963
291.552
327.473
301.209
217.804
325.643
327.832
327.306
151.439
139.753
314.172
327.866
327.92
223.474
326.851
328.121
6.86188
287.087
276.87
326.792
326.694
326.813
326.687
326.836
326.9
326.764
326.886
326.813
326.913
326.746
326.738
118.684
265.871
238.401
326.546
306.544
326.694
326.605
326.688
326.17
268.929
193.667
325.3
326.504
326.713
325.941
231.911
217.606
233.125
314.465
297.505
263.648
299.068
326.539
251.698
326.57
326.757
210.199
271.053
196.859
245.643
215.227
145.491
326.703
326.825
326.873
201.248
121.952
326.572
326.858
234.552
326.9
326.846
122.426
326.858
247.736
323.935
319.696
181.43
165.728
326.941
318.558
199.955
327.006
251.59
131.716
326.985
235.494
326.048
325.528
283.184
114.676
327.095
327.068
327.093
326.562
326.576
326.543
326.553
326.562
326.618
326.585
326.644
326.562
326.557
326.665
326.594
10.5261
326.601
133.08
144.223
238.423
25.1934
326.538
88.3517
326.403
232.282
325.706
326.44
191.006
186.461
180.274
326.518
292.835
186.461
262.505
202.721
45.0635
182.648
252.568
58.7174
326.172
177.951
215.68
199.992
326.412
250.753
326.434
2.15199
290.839
85.5593
185.027
180.219
29.0603
326.085
295.335
312.892
132.15
270.753
114.932
109.42
306.47
201.606
189.893
249.38
324.083
285.738
232.462
326.509
245.898
150.917
228.729
192.42
181.247
301.884
324.814
326.58
326.169
313.03
326.601
287.512
323.662
326.501
313.688
248.95
301.446
308.398
161.407
238.574
326.655
325.618
326.405
326.659
326.527
326.635
276.324
170.404
326.024
326.213
326.176
326.354
326.306
325.593
326.306
326.278
326.442
325.081
326.442
326.176
326.467
326.454
325.081
326.477
325.488
326.477
326.477
326.477
326.488
326.176
326.247
326.488
326.331
326.454
326.427
325.238
326.52
325.689
325.593
51.3131
184.333
123.863
236.418
279.507
244.43
258.851
326.088
91.1322
132.159
43.4368
237.95
199.147
120.733
265.167
77.2602
64.1955
140.976
127.081
281.204
1.61166
128.041
193.595
162.321
146.795
139.44
107.847
207.192
212.051
135.7
256.017
179.267
275.704
208.472
324.812
92.6808
288.422
192.618
192.618
54.8923
139.704
97.6971
97.6971
219.58
234.431
259.399
205.957
240.685
99.5332
255.73
246.989
42.1647
326.317
82.6461
181.556
176.548
326.451
226.72
193.61
312.298
263.817
153.239
300.79
199.675
219.989
326.496
155.837
325.484
326.173
27.7857
189.196
12.8818
230.787
202.761
196.934
247.871
298.566
227.765
214.944
314.125
185.836
268.248
234.375
316.55
287.45
307.565
316.55
254.69
234.375
241.087
234.375
316.55
268.248
303.362
318.493
254.69
241.087
298.566
307.565
318.493
196.934
180.567
307.565
221.281
320.037
221.281
221.281
191.292
322.215
191.292
185.836
247.871
208.767
208.767
320.037
281.299
202.761
287.45
208.767
298.566
214.944
287.45
318.493
196.934
234.375
185.836
180.567
191.292
323.577
314.125
293.235
196.934
303.362
261.499
324.032
318.493
241.087
324.384
268.248
180.567
287.45
261.499
322.973
268.248
254.69
191.292
303.362
298.566
180.567
208.767
324.664
281.299
49.7943
46.4396
45.3677
65.3809
34.9538
28.2949
83.6243
119.25
140.245
145.968
99.3674
123.331
138.719
161.808
114.094
144.115
53.6369
152.249
173.668
63.9218
127.309
80.016
167.793
126.877
156.848
156.848
109.555
92.2436
159.334
152.458
179.517
11.1778
168.795
34.2529
123.978
76.5897
178.017
63.3494
71.8057
149.484
118.767
140.446
158.036
216.949
84.1611
111.349
35.5138
221.231
133.102
126.327
144.086
6.22594
110.053
128.032
3.54351
234.093
162.629
223.091
172.328
69.7218
175.877
112.384
205.309
73.8208
238.671
47.2154
238.671
45.7625
176.447
135.5
176.447
23.5874
196.106
84.2265
70.7302
199.39
48.2589
271.675
246.239
182.155
166.469
169.021
21.1986
150.017
33.8603
42.9866
197.484
152.178
58.6116
180.972
123.759
64.7955
217.997
170.145
162.164
58.6079
132.049
238.438
229.299
172.695
84.4289
117.97
314.125
232.677
7.18216
119.349
232.677
102.742
97.4115
320.037
240.651
217.623
139.341
113.759
318.048
225.348
324.892
187.492
145.178
275.51
72.8589
280.184
199.202
84.3792
161.858
262.975
320.455
318.925
91.1702
232.785
166.245
144.63
226.024
221.314
154.971
142.08
122.875
126.907
153.858
105.981
127.54
121.517
79.0983
130.731
134.051
115.941
124.47
115.941
130.731
93.532
124.47
89.9359
134.051
130.731
134.051
89.9359
80.4983
113.309
124.47
95.4261
93.532
95.4261
110.775
93.532
101.529
105.981
141.094
79.0983
88.2285
105.981
105.981
127.54
101.529
115.941
99.4214
124.47
141.094
83.4381
80.4983
81.9443
113.309
86.5779
134.051
118.676
81.9443
110.775
115.941
88.2285
121.517
101.529
108.333
101.529
101.529
91.7029
86.5779
97.3882
134.051
83.4381
88.2285
124.47
144.829
127.54
80.4983
80.4983
115.941
115.941
80.4983
101.529
108.333
79.0983
81.9443
80.4983
137.503
89.9359
99.4214
89.9359
80.4983
118.676
93.532
152.755
97.3882
148.715
118.676
93.532
152.755
95.4261
152.755
80.4983
86.5779
115.941
130.731
121.517
99.4214
79.0983
130.731
118.676
103.714
124.47
97.3882
101.529
81.9443
137.503
99.4214
108.333
95.4261
148.715
115.941
97.3882
156.958
83.4381
113.309
156.958
152.755
86.5779
118.676
95.4261
144.829
118.676
84.9819
144.829
118.676
91.7029
161.327
118.676
101.529
137.503
121.517
89.9359
118.676
148.715
130.731
91.7029
110.775
124.47
105.981
93.532
144.829
161.327
141.094
161.327
148.715
130.731
95.4261
141.094
97.3882
156.958
84.9819
113.309
110.775
80.4983
113.309
105.981
165.869
103.714
108.333
97.3882
165.869
83.4381
84.9819
110.775
115.941
118.676
115.941
80.4983
80.4983
161.327
89.9359
121.517
170.586
89.9359
110.775
118.676
170.586
99.4214
137.503
118.676
152.755
170.586
103.714
86.5779
170.586
170.586
83.4381
161.327
81.9443
165.869
79.0983
127.54
86.5779
175.485
175.485
7.58479
124.47
127.54
20.3648
39.8742
29.4457
58.0837
74.9651
57.4736
0.938104
6.89065
60.4167
38.0789
77.8743
23.785
79.0983
37.8782
49.3294
73.8612
79.2205
68.4591
77.5919
34.6499
65.7229
54.9261
11.9119
72.7986
77.8886
69.4055
27.9031
53.2714
77.4016
73.877
60.4528
84.9883
26.7944
84.483
87.6361
49.0136
91.6793
32.9755
40.8648
77.9521
85.0929
34.1489
91.3534
121.517
82.5764
90.0407
63.7859
86.5828
81.8557
95.4261
27.0931
89.3941
90.5504
92.2673
67.8527
59.6121
175.485
52.5303
86.08
41.554
85.9415
93.4788
89.092
80.9231
96.9704
88.3228
42.9347
97.1373
104.25
108.216
89.4105
103.592
52.9531
98.842
175.485
83.1995
69.2319
97.1162
17.5406
102.993
118.676
6.38707
148.715
175.485
56.3172
83.1994
115.975
121.87
84.3104
18.1667
25.5143
33.9698
28.541
51.8529
124.176
24.3781
86.5692
113.65
104.932
110.003
49.2041
130.231
54.2683
137.436
135.395
65.4617
86.1012
57.479
134.803
122.981
104.488
130.913
110.708
127.343
142.413
131.488
111.167
118.808
55.9709
114.248
113.138
31.7726
78.3253
110.087
42.564
110.087
147.403
100.09
62.4798
63.7585
18.0897
140.738
106.525
110.123
132.818
99.0118
92.0197
138.447
159.226
111.85
26.6869
150.809
111.652
82.8577
54.7639
56.1601
57.6265
48.5828
63.4085
51.5304
57.6265
55.4537
55.4537
61.6439
52.1513
63.4085
59.1699
67.2493
61.6439
49.7332
66.2476
50.921
52.1513
59.9727
67.2493
59.9727
55.4537
62.514
52.7842
52.1513
67.2493
55.4537
49.1536
57.6265
57.6265
69.3422
52.1513
51.5304
64.3283
52.1513
53.43
59.1699
60.797
50.921
57.6265
52.1513
62.514
57.6265
51.5304
57.6265
63.4085
62.514
59.1699
54.7639
61.6439
56.8841
68.2805
54.7639
68.2805
57.6265
49.1536
50.921
56.1601
54.0896
51.5304
67.2493
70.4358
62.514
69.3422
71.5625
65.2743
56.1601
59.9727
50.921
49.7332
56.8841
49.1536
49.7332
59.1699
55.4537
54.0896
63.4085
65.2743
59.9727
62.514
71.5625
50.921
53.43
67.2493
56.1601
56.1601
55.4537
52.1513
64.3283
64.3283
49.7332
63.4085
51.5304
66.2476
72.7237
67.2493
60.797
48.5828
50.921
73.9207
72.7237
62.514
56.1601
57.6265
49.1536
49.1536
57.6265
52.7842
66.2476
56.8841
73.9207
73.9207
55.4537
51.5304
53.43
73.9207
62.514
68.2805
71.5625
52.7842
73.9207
55.4537
60.797
51.5304
66.2476
72.7237
73.9207
53.43
73.9207
75.1552
64.3283
48.5828
52.7842
62.514
73.9207
65.2743
75.1552
72.7237
54.7639
65.2743
75.1552
66.2476
75.1552
54.0896
69.3422
49.5195
75.1552
57.6265
72.7237
53.43
69.3422
50.3221
75.1552
75.1552
75.1552
75.1552
50.921
67.2493
52.7842
48.5828
62.514
48.5828
51.5304
61.6439
76.4284
52.1513
55.4537
50.3221
50.921
73.9207
61.6439
76.4284
75.1552
60.797
59.9727
56.8841
70.4358
76.4284
76.4284
65.2743
76.4284
62.514
68.2805
61.6439
75.1552
59.9727
62.514
69.3422
69.3422
75.1552
54.0896
76.4284
57.6265
52.1513
66.2476
54.0896
52.7842
77.7422
77.7422
60.797
77.7422
72.7237
50.3221
55.4537
50.3221
56.8841
58.3881
77.7422
77.7422
0.552596
8.74074
28.307
24.3224
19.0398
45.5789
41.3623
49.1485
43.4826
47.2399
42.1383
33.2355
49.6089
38.936
48.5289
8.39661
49.466
48.7734
49.7389
33.7933
50.4306
22.3582
47.4725
40.1503
22.9259
40.1664
39.5595
51.5119
40.7678
17.5033
41.7045
47.5813
49.0109
32.0879
32.5761
23.8213
31.1698
21.1579
52.4323
41.7697
46.0736
53.1864
52.2188
15.9103
26.3705
53.0377
33.8584
54.0821
48.7586
51.2424
56.0809
39.9392
56.8841
51.7683
56.8356
68.2805
56.7608
56.8841
8.08661
56.8356
42.05
39.4901
45.8164
56.9007
50.0829
45.6833
32.8561
37.8886
44.2261
58.301
65.2743
57.6338
35.646
60.7399
60.7692
58.5992
58.4899
61.5848
12.8895
52.7311
19.1888
60.4448
46.5568
57.472
58.3887
46.5408
58.9665
30.3999
58.0896
58.8275
57.784
54.0509
64.2626
28.8488
50.7204
50.8115
64.9497
62.4279
61.5799
64.7525
53.8807
66.5415
60.0862
61.4897
62.1482
25.8337
52.3643
58.084
61.6571
61.6534
69.1712
29.0312
62.0651
9.20194
70.0443
60.2424
32.5539
46.4188
67.7088
37.0722
70.6053
54.985
47.2953
42.166
66.5975
67.3439
63.7217
70.93
70.6969
71.3563
73.907
73.9207
37.8678
67.9485
66.3286
30.8432
44.7982
72.9599
48.5888
20.2978
76.4284
16.3422
67.3082
75.9494
75.0709
36.9044
32.1188
35.9753
34.1818
31.7356
33.7509
43.7649
37.3753
32.468
44.2773
40.761
33.7509
36.9044
43.2565
44.7944
37.8498
34.6204
39.78
37.3753
37.3753
35.066
38.3278
36.4377
35.9753
33.3285
32.9155
36.9044
44.7944
43.7649
35.9753
38.3278
31.7356
31.7356
36.4377
43.2565
40.761
42.7518
41.7513
33.7509
40.761
38.8091
32.1188
34.6204
37.8498
44.7944
42.2501
43.7649
42.2501
39.78
33.7509
37.3753
39.2931
45.3165
36.9044
34.1818
33.3285
35.066
41.255
45.8443
36.9044
33.7509
34.1818
37.3753
36.4377
37.8498
35.066
43.7649
32.5121
45.8443
36.4377
45.8443
41.7513
42.7518
42.2501
46.3781
32.9155
43.2565
35.066
45.8443
40.2693
45.8443
35.066
43.2565
40.2693
38.8091
43.7649
44.2773
44.2773
44.7944
41.255
38.8091
30.4286
46.3781
42.7518
35.9753
44.2773
39.78
34.6204
32.1188
39.2931
40.2693
37.8498
44.7944
34.6204
35.9753
46.9184
32.1188
40.2693
32.9155
46.9184
44.7944
33.3285
34.6204
31.7356
34.1818
31.7356
42.2501
34.6204
32.1188
32.1188
46.9184
45.3165
41.255
35.066
38.8091
32.9155
45.8443
32.5121
47.4657
31.7356
42.7518
46.9184
33.3285
47.4657
44.2773
37.3753
37.8498
33.3285
34.6204
47.4657
47.4657
46.3781
47.4657
43.2565
43.2565
46.3781
34.6204
32.5121
33.7509
47.4657
31.7356
47.4657
32.5121
34.6204
44.7944
32.1188
43.7649
32.9155
32.1188
47.4657
36.9044
40.2693
40.761
36.4377
42.2501
37.3753
38.3278
41.255
34.6204
47.4657
43.7649
36.9044
40.761
48.0203
41.7513
32.1188
43.7649
36.4377
39.78
47.4657
8.78179
31.7356
33.7509
13.5512
5.526
36.4377
21.6907
19.0412
15.6185
24.6437
24.0165
15.4665
26.0281
1.33316
20.522
28.0831
23.7593
13.4382
23.7443
26.3664
31.5815
34.6204
30.832
22.3397
30.7626
17.9833
10.667
6.87076
21.726
27.3335
32.2595
15.0685
29.7904
32.506
31.3522
30.6729
24.0738
32.9854
24.6585
30.4223
14.3484
43.2565
31.9835
27.4479
32.0234
25.8652
32.235
20.6427
23.6321
33.3064
22.1801
27.6684
19.6051
27.9657
17.0625
33.728
34.1316
29.0341
18.533
30.2377
24.5837
28.023
10.8455
35.0587
32.959
24.8875
33.5044
34.8921
21.4134
9.22246
28.1219
34.9512
17.4612
26.0979
31.7863
35.9594
24.0765
28.055
29.1504
17.8256
34.538
21.6133
30.4649
32.2059
8.65561
31.2327
45.3165
35.7636
34.9652
46.9184
35.3965
35.9729
34.9092
10.2847
28.4414
21.1688
36.243
35.8535
22.1712
45.3165
13.4426
34.4677
37.2415
36.4937
37.3131
35.8797
37.6812
37.3825
19.2142
37.6044
37.8471
37.8995
25.7421
34.8588
37.7313
36.5441
37.6044
26.508
22.7683
33.7831
37.6044
30.954
23.067
38.3132
37.8464
37.3322
37.0385
39.2736
28.0256
35.3397
32.1197
38.595
17.4717
35.4163
39.0613
39.1933
34.1381
8.50692
36.9648
22.0375
38.2291
35.7852
38.3411
24.7131
32.0473
18.4677
11.9846
6.02765
36.624
33.8661
29.4664
17.1062
41.0482
32.7861
41.233
41.2883
41.7287
41.5772
40.4189
23.4051
36.5525
47.4657
41.255
13.3933
19.9621
25.6176
21.4499
35.9567
42.1968
41.2371
37.4465
48.0203
39.2015
43.1937
42.2743
42.3797
35.3639
30.0034
35.6594
44.1526
34.0705
40.9872
33.6609
25.8077
44.7675
35.5632
35.5632
44.2388
45.0049
25.4197
44.0337
48.0203
43.4503
41.9291
45.1865
41.9291
38.3485
46.2383
45.8545
26.0854
44.5365
40.7944
30.8045
40.1468
45.3794
43.7718
2.1616
47.4611
44.9379
16.0337
27.5572
46.9958
29.2608
43.0594
45.0985
28.4601
42.435
30.2953
27.6092
19.8604
24.4727
25.175
25.8784
26.2287
20.8109
24.8233
29.9535
22.7471
30.2953
27.6092
24.1234
25.5269
24.1234
19.8604
19.8604
23.0872
29.2819
21.7551
26.2287
20.8109
27.9475
28.6167
19.8604
28.9492
24.4727
26.9239
22.4112
21.4351
26.9239
28.6167
22.4112
26.5774
25.175
25.8784
24.4727
25.8784
27.9475
29.2819
29.2819
29.2819
27.9475
25.5269
19.0977
28.2831
23.7759
27.6092
21.1205
25.5269
22.0804
19.8604
20.8109
21.1205
22.4112
23.7759
25.175
21.7551
22.7471
25.5269
19.8604
23.4304
22.0804
24.4727
20.19
23.0872
20.8109
26.5774
29.2819
19.5039
25.175
29.2819
28.9492
22.7471
27.6092
25.175
25.5269
20.8109
29.2819
24.1234
28.9492
29.6162
22.4112
30.6432
30.2953
30.6432
25.8784
24.1234
20.8109
29.9535
30.2953
27.9475
26.9239
25.175
21.4351
30.2953
25.5269
22.0804
29.9535
26.5774
23.0872
28.9492
30.6432
25.5269
21.4351
19.8604
23.0872
29.6162
30.9984
22.7471
22.0804
22.7471
19.8604
27.268
19.8604
19.5039
24.8233
22.4112
27.9475
25.8784
20.5031
22.0804
21.7551
27.6092
25.5269
21.1205
21.4351
19.8604
23.4304
20.5031
22.7471
23.0872
25.8784
23.7759
26.2287
29.2819
27.9475
27.9475
29.9535
26.5774
23.4304
30.9984
25.8784
25.5269
26.2287
29.6162
25.8784
21.4351
22.0804
30.2953
27.6092
26.5774
30.2953
28.2831
21.4351
20.19
19.8604
30.9984
30.2953
23.7759
24.1234
26.9239
19.5039
26.2287
29.9535
27.268
25.8784
26.5774
21.1205
24.1234
23.7759
21.1205
30.6432
29.6162
22.7471
23.7759
27.9475
23.0872
30.6432
25.175
23.7759
23.7759
28.2831
30.9984
23.7759
25.5269
19.8604
21.7551
31.3623
19.5039
31.3623
29.9535
25.5269
22.4112
29.9535
24.1234
31.3623
22.0804
26.9239
21.4351
21.7551
4.48624
22.4112
30.2953
4.48624
1.52784
9.11367
6.49046
28.2831
8.77854
8.04851
20.8109
13.9556
18.159
18.8955
30.2953
13.2716
3.79082
7.39703
0.99182
13.224
14.7702
18.8955
16.4369
16.9617
18.6692
19.5004
12.7558
12.9549
23.7759
19.3904
4.63114
12.9494
19.6605
24.1234
19.2594
19.4963
19.5369
16.2259
20.155
17.609
16.0008
19.2018
13.2286
19.7433
10.4253
21.4351
8.73791
19.1329
19.8382
15.5108
17.5671
16.9022
20.1894
18.3499
18.2447
17.9159
18.7219
19.8037
18.5523
19.8037
20.306
23.0872
17.7936
12.121
24.4727
18.677
14.4162
6.28509
18.9394
22.7471
7.26825
0.552604
20.3649
20.306
14.3963
18.2269
13.832
20.5354
19.669
19.4471
11.2464
19.8601
0.974805
20.5542
14.3636
20.8042
8.67852
20.7967
6.93979
0.55101
30.6432
20.892
21.4351
18.8768
11.0999
25.5269
20.5724
20.3781
19.4051
19.669
19.6049
20.9095
30.6432
21.0126
21.0817
18.3979
20.3725
19.874
19.669
19.9134
17.7308
23.7759
20.0281
17.793
18.6669
9.23576
21.0526
2.12168
20.344
21.3475
18.4523
14.8178
16.0723
16.2941
18.9009
19.7228
22.0804
21.7393
20.1872
29.9535
20.9542
17.2361
21.6643
21.3345
19.0144
28.6167
12.735
20.0804
21.6961
21.8459
20.344
20.8857
21.7638
17.5849
21.9863
21.6897
11.7061
21.285
5.41576
18.5162
17.0413
22.1874
14.3397
22.7471
21.6897
31.3623
0.550989
20.8421
21.1138
6.40654
22.1055
11.2478
17.5068
22.2789
22.3942
19.9086
1.6996
21.8933
17.2046
21.8187
22.1927
22.3061
22.4527
22.4303
31.3623
16.3293
22.7237
1.17882
22.0862
23.7759
29.2819
18.6534
22.2031
21.5545
3.72936
20.6404
23.0192
14.7107
20.3395
22.4752
12.5597
29.9535
23.1376
0.550919
23.0872
19.0739
18.6247
20.3959
23.4278
20.3306
25.8784
23.0872
19.1227
22.8355
20.1984
23.2553
20.4343
22.7023
23.7564
22.9279
21.5852
20.9023
19.8604
23.7244
23.1596
8.37836
16.0925
23.4234
24.0797
31.3623
25.5269
24.1139
22.2598
22.529
26.5774
22.3693
0.550918
17.1515
15.9231
30.6432
23.7756
22.929
24.3007
19.0168
28.2831
23.6227
6.76318
23.5411
17.7285
28.9492
24.0381
23.5823
23.6227
23.1723
22.7702
17.6905
23.585
8.27439
22.3969
19.1093
9.42657
17.2331
7.02487
24.5603
23.7929
27.268
21.8977
24.5119
19.8944
3.32478
21.4463
25.0768
25.0908
25.0908
24.6116
24.5863
12.3468
23.9347
24.0985
23.5232
25.3152
21.1111
22.7292
24.2544
23.5845
12.3468
19.7261
13.6376
25.8784
18.3825
25.5159
25.312
21.914
21.4943
25.7215
25.8774
31.3623
20.5378
21.2392
25.8462
12.6974
25.8612
25.5053
12.6974
25.2761
19.2065
25.3166
4.43431
16.3774
18.9492
11.6001
25.8431
26.2038
25.9788
14.1397
25.8431
17.7162
26.2038
20.3555
25.5885
15.3435
30.6432
17.913
24.8852
20.6265
23.0143
19.0504
26.9239
24.2183
23.184
24.3657
27.6092
14.0389
25.2711
31.3623
28.2831
26.6572
26.81
26.3616
25.066
27.268
27.6092
0.550924
23.6726
27.2405
26.8595
27.2089
22.5307
17.3721
21.2688
14.8053
27.2367
8.08249
9.32576
27.1713
11.9151
18.7842
0.550923
22.5307
27.9267
26.3621
27.1745
16.6129
3.31917
24.4962
28.0627
27.5321
25.7213
23.7033
7.59026
28.9492
26.4509
11.6836
14.8485
27.0641
27.4861
18.6096
28.5184
12.8149
17.7821
18.6096
19.3128
25.8098
28.4151
28.8295
28.0522
28.9492
26.1396
25.9608
29.0669
28.7716
10.4535
29.2819
29.2663
28.9507
25.6852
26.1396
24.1056
28.9507
29.5265
26.472
28.915
28.5526
27.3381
29.6345
14.8706
8.06326
9.3572
22.9767
30.113
29.1036
24.9039
29.1645
14.031
25.7436
27.6009
30.2782
30.2681
16.4805
29.3497
28.7066
25.5241
23.6436
30.1506
30.9931
28.0435
24.6646
29.3102
20.9488
28.3161
24.298
31.3623
0.55093
26.2949
30.8816
31.2361
28.0211
31.3606
)


// ************************************************************************* //
