/*--------------------------------*- C++ -*----------------------------------*\
  =========                 |
  \\      /  F ield         | OpenFOAM: The Open Source CFD Toolbox
   \\    /   O peration     | Website:  https://openfoam.org
    \\  /    A nd           | Version:  7
     \\/     M anipulation  |
\*---------------------------------------------------------------------------*/
FoamFile
{
    version     2.0;
    format      ascii;
    class       scalarField;
    location    "0.7/lagrangian/reactingCloud1";
    object      T;
}
// * * * * * * * * * * * * * * * * * * * * * * * * * * * * * * * * * * * * * //


2453
(
591.1
590.666
590.628
590.669
589.727
588.064
589.969
588.769
589.295
589.605
588.057
589.479
588.798
589.039
588.397
588.659
588.807
589.034
588.685
588.452
588.191
588.631
588.401
588.431
588.448
588.759
588.414
588.595
588.731
588.491
588.423
588.421
588.434
588.471
588.452
588.474
588.468
588.491
588.478
588.481
588.491
588.489
597.985
598.099
597.612
594.04
592.895
591.084
590.507
589.192
591.842
588.804
590.343
593.533
592.484
593.789
595.324
591.313
595.964
593.65
595.085
592.245
594.172
593.618
593.163
594.165
592.225
596.91
593.068
594.692
593.075
593.909
592.929
593.973
597.473
594.009
595.469
594.176
592.902
593.502
593.836
593.763
593.315
593.347
594.105
593.053
593.761
593.487
592.847
592.808
597.873
593.081
593.469
593.678
592.638
593.751
592.203
592.774
593.818
594.141
594.888
592.44
592.103
591.531
591.728
591.811
592.629
591.368
591.123
554.99
555.015
561.799
562.9
566.738
568.718
571.822
571.288
574.46
576.709
580.011
581.486
582.824
583.975
585.907
586.1
586.571
587.755
587.502
590.12
588.203
526.002
505.424
526.363
389.533
527.485
529.01
512.03
534.958
535.903
489.128
540.782
542.495
551.319
451.167
508.066
509.072
506.196
510.049
510.238
492.743
512.949
514.026
509.219
513.826
514.146
516.329
520.256
392.007
506.261
506.726
506.839
506.702
506.724
478.887
468.172
507.269
507.109
507.658
507.263
477.365
490.497
507.886
482.118
236.221
505.44
340.091
505.298
399.941
505.369
501.168
425.3
479.009
502.268
504.206
505.502
496.976
503.608
505.688
505.789
505.716
505.764
506.142
504.086
502.437
505.915
463.111
506.115
506.254
489.673
506.098
375.662
506.664
506.64
448.855
506.578
506.642
472.372
504.743
454.416
504.161
504.777
504.757
504.808
504.687
337.168
346.511
504.907
504.826
504.685
432.552
504.742
424.23
504.914
504.888
482.091
505.033
489.166
420.501
504.349
504.959
505.028
360.392
349.695
497.882
505.154
505.035
425.465
504.884
505.067
231.494
478.564
470.554
504.456
504.434
504.462
504.433
504.468
504.488
504.449
504.484
504.462
504.492
504.445
504.443
330.415
462.001
438.881
504.47
492.886
504.434
504.48
504.454
504.371
464.483
399.192
504.036
504.473
504.452
504.3
433.211
420.629
434.262
498.07
486.548
460.153
487.677
504.506
450.182
504.516
504.524
413.981
466.177
401.977
445.007
418.431
354.971
504.587
504.577
504.484
405.902
333.295
504.568
504.566
435.425
504.508
504.609
333.725
504.641
446.761
503.487
501.237
387.9
373.533
504.643
500.59
404.689
504.559
450.022
342.264
504.601
436.206
504.449
504.238
475.776
326.611
504.585
504.665
504.641
504.43
504.429
504.43
504.43
504.43
504.427
504.428
504.428
504.43
504.43
504.429
504.428
239.645
504.427
345.418
355.36
439.345
251.932
504.429
305.035
504.395
433.971
504.143
504.405
397.364
393.228
387.667
504.424
483.185
393.228
459.45
407.852
267.251
389.71
451.207
278.628
504.321
385.414
419.332
405.328
504.398
449.645
504.404
231.184
481.676
301.452
391.777
387.384
253.662
504.292
484.979
497.027
343.229
466.051
327.481
322.408
492.816
406.61
396.046
448.398
503.434
477.794
433.887
504.429
445.427
360.369
430.611
398.277
388.118
489.653
503.781
504.44
504.335
497.12
504.44
479.13
503.241
504.434
497.54
447.954
489.345
494.118
369.848
439.07
504.439
504.145
504.424
504.442
504.457
504.462
470.421
378.044
504.314
504.35
504.339
504.392
504.378
504.136
504.378
504.37
504.414
503.94
504.414
504.339
504.419
504.416
503.94
504.421
504.097
504.421
504.421
504.421
504.423
504.339
504.361
504.423
504.385
504.416
504.41
504.002
504.428
504.171
504.136
276.58
394.939
341.476
439.414
473.911
445.891
457.641
504.311
311.803
348.278
269.165
440.362
406.969
337.897
462.482
299.284
287.609
355.512
343.233
474.937
222.505
343.942
401.813
374.093
360.515
353.739
325.691
413.375
417.593
350.292
454.787
388.802
470.527
414.404
503.77
311.8
480.171
400.262
400.262
278.676
353.288
316.067
316.067
423.696
436.468
457.336
411.748
441.734
317.257
454.297
447.002
267.191
504.375
302.074
389.766
385.296
504.414
429.576
400.367
496.686
460.756
364.246
488.979
405.698
423.601
504.424
366.281
504.05
504.321
254.543
396.076
241.742
432.822
421.013
416.415
455.18
489.553
440.279
430.496
498.563
407.546
469.651
445.239
499.851
482.54
494.903
499.851
460.1
445.239
450.216
445.239
499.851
469.651
492.446
500.853
460.1
450.216
489.553
494.903
500.853
416.415
403.285
494.903
435.358
501.627
435.358
435.358
411.924
502.68
411.924
407.546
455.18
425.71
425.71
501.627
478.505
421.013
482.54
425.71
489.553
430.496
482.54
500.853
416.415
445.239
407.546
403.285
411.924
503.305
498.563
486.238
416.415
492.446
464.938
503.505
500.853
450.216
503.656
469.651
403.285
482.54
464.938
503.031
469.651
460.1
411.924
492.446
489.553
403.285
425.71
503.772
478.505
275.597
272.096
270.967
291.565
259.973
252.684
309.947
344.593
365.204
369.805
324.898
348.218
363.313
383.789
339.09
367.635
279.467
374.455
396.694
289.751
351.41
305.77
390.478
350.718
379.162
379.162
334.093
317.525
381.482
374.262
399.1
233.349
389.293
259.569
347.017
302.046
397.222
288.904
297.246
370.833
342.159
362.242
378.304
431.511
309.046
334.849
261.041
434.551
354.997
348.548
364.787
226.517
333.467
349.908
221.493
443.588
381.213
433.748
389.536
294.836
392.664
334.958
418.213
298.744
446.276
272.979
446.276
271.541
392.072
355.471
392.072
248.969
409.094
308.277
295.519
411.636
274.008
470.351
450.489
396.54
382.832
384.837
246.584
368.048
259.811
268.885
409.498
369.747
283.93
395.268
344.285
289.729
426.597
385.355
378.349
283.844
351.167
443.007
435.522
387.351
307.915
338.506
498.563
438.091
229.897
339.568
438.091
324.54
319.54
501.627
444.408
425.382
357.268
334.35
500.605
431.624
503.865
399.28
362.24
471.523
296.839
475.027
409.127
307.265
376.511
461.624
501.73
500.896
313.297
437.075
379.95
360.93
431.294
427.34
369.868
358.493
341.286
344.872
368.555
339.155
358.501
353.173
313.727
361.302
364.199
348.19
355.792
348.19
361.302
327.591
355.792
324.187
364.199
361.302
364.199
324.187
315.097
345.819
355.792
329.371
327.591
329.371
343.525
327.591
335.056
339.155
370.296
313.727
322.559
339.155
339.155
358.501
335.056
348.19
333.102
355.792
370.296
317.954
315.097
316.505
345.819
320.979
364.199
350.64
316.505
343.525
348.19
322.559
353.173
335.056
341.304
335.056
335.056
325.863
320.979
331.208
364.199
317.954
322.559
355.792
373.502
358.501
315.097
315.097
348.19
348.19
315.097
335.056
341.304
313.727
316.505
315.097
367.196
324.187
333.102
324.187
315.097
350.64
327.591
380.244
331.208
376.817
350.64
327.591
380.244
329.371
380.244
315.097
320.979
348.19
361.302
353.173
333.102
313.727
361.302
350.64
337.073
355.792
331.208
335.056
316.505
367.196
333.102
341.304
329.371
376.817
348.19
331.208
383.786
317.954
345.819
383.786
380.244
320.979
350.64
329.371
373.502
350.64
319.445
373.502
350.64
325.863
387.445
350.64
335.056
367.196
353.173
324.187
350.64
376.817
361.302
325.863
343.525
355.792
339.155
327.591
373.502
387.445
370.296
387.445
376.817
361.302
329.371
370.296
331.208
383.786
319.445
345.819
343.525
315.097
345.819
339.155
391.224
337.073
341.304
331.208
391.224
317.954
319.445
343.525
348.19
350.64
348.19
315.097
315.097
387.445
324.187
353.173
395.123
324.187
343.525
350.64
395.123
333.102
367.196
350.64
380.244
395.123
337.073
320.979
395.123
395.123
317.954
387.445
316.505
391.224
313.727
358.501
320.979
399.144
399.144
223.282
355.792
358.501
241.233
265.726
252.799
287.948
308.677
287.21
213.31
222.658
290.964
263.335
312.23
245.7
313.727
263.18
277.218
306.75
313.543
300.249
311.564
259.18
296.735
283.386
230.155
304.923
311.291
301.136
250.88
281.306
310.099
305.931
289.72
318.734
249.524
318.49
321.486
276.101
325.835
257.084
266.526
309.862
317.818
258.488
325.063
353.173
314.912
323.168
292.876
319.195
313.77
329.371
250.053
322.062
323.755
325.345
297.315
287.674
399.144
279.77
317.95
267.042
317.471
326.342
321.017
311.826
329.901
320.151
268.663
329.686
337.219
341.173
320.369
336.045
279.872
330.787
399.144
312.709
297.554
327.766
238.526
334.129
350.64
223.092
376.817
399.144
283.146
312.206
347.227
353.019
313.146
239.556
248.597
258.383
252.15
278.163
354.938
247.246
315.044
343.386
334.267
339.57
275.205
360.212
280.651
367.125
365.01
292.534
314.091
284.079
364.397
352.66
333.1
360.371
339.137
356.174
371.033
359.901
339.24
347.008
282.288
342.372
340.875
256.07
305.348
337.459
267.965
337.459
374.864
327.407
288.956
290.278
240.156
367.113
333.294
336.865
358.86
325.585
318.636
364.371
384.709
338.272
250.526
375.911
337.785
309.328
288.761
290.267
291.837
281.95
297.921
285.227
291.837
289.507
289.507
296.08
285.911
297.921
293.476
301.878
296.08
283.235
300.852
284.553
285.911
294.324
301.878
294.324
289.507
296.99
286.605
285.911
301.878
289.507
282.588
291.837
291.837
304.008
285.911
285.227
298.874
285.911
287.311
293.476
295.192
284.553
291.837
285.911
296.99
291.837
285.227
291.837
297.921
296.99
293.476
288.761
296.08
291.044
302.93
288.761
302.93
291.837
282.588
284.553
290.267
288.03
285.227
301.878
305.114
296.99
304.008
306.249
299.851
290.267
294.324
284.553
283.235
291.044
282.588
283.235
293.476
289.507
288.03
297.921
299.851
294.324
296.99
306.249
284.553
287.311
301.878
290.267
290.267
289.507
285.911
298.874
298.874
283.235
297.921
285.227
300.852
307.414
301.878
295.192
281.95
284.553
308.61
307.414
296.99
290.267
291.837
282.588
282.588
291.837
286.605
300.852
291.044
308.61
308.61
289.507
285.227
287.311
308.61
296.99
302.93
306.249
286.605
308.61
289.507
295.192
285.227
300.852
307.414
308.61
287.311
308.61
309.838
298.874
281.95
286.605
296.99
308.61
299.851
309.838
307.414
288.761
299.851
309.838
300.852
309.838
288.03
304.008
282.926
309.838
291.837
307.414
287.311
304.008
283.89
309.838
309.838
309.838
309.838
284.553
301.878
286.605
281.95
296.99
281.95
285.227
296.08
311.099
285.911
289.507
283.89
284.553
308.61
296.08
311.099
309.838
295.192
294.324
291.044
305.114
311.099
311.099
299.851
311.099
296.99
302.93
296.08
309.838
294.324
296.99
304.008
304.008
309.838
288.03
311.099
291.837
285.911
300.852
288.03
286.605
312.395
312.395
295.192
312.395
307.414
283.89
289.507
283.89
291.044
292.647
312.395
312.395
213.577
223.609
252.543
246.745
238.974
277.577
271.051
282.581
274.379
279.637
272.16
259.437
283.055
267.583
281.313
223.364
282.849
281.483
282.862
259.996
283.852
243.748
279.456
268.96
244.507
268.868
268.016
285.2
269.711
236.776
270.902
279.277
281.114
257.396
258.143
245.735
255.944
241.984
285.714
270.628
276.704
286.369
285.031
234.549
249.23
285.968
259.506
287.203
280.09
283.318
290.158
267.784
291.044
284.037
290.977
302.93
290.874
291.044
223.089
290.977
270.533
267.071
275.91
290.627
281.561
275.303
257.946
264.81
273.343
292.529
299.851
291.399
261.63
295.115
295.155
292.251
291.882
296.001
230.382
284.055
239.272
294.483
275.912
290.104
291.309
275.621
292.069
254.372
290.916
291.667
290.514
285.61
298.788
252.315
281.077
281.035
299.427
296.138
295.27
299.169
284.841
300.695
292.642
294.449
295.297
248.246
282.549
289.861
294.204
293.974
303.506
252.402
294.495
225.286
304.616
291.974
256.913
274.576
301.38
262.734
305.038
285.361
275.557
269.11
299.721
300.657
296.118
305.158
304.866
305.694
308.592
308.61
263.614
301.151
299.132
254.665
272.212
307.108
276.922
240.968
311.099
235.635
299.843
310.506
309.111
268.611
262.669
267.52
265.353
262.137
264.813
276.488
269.159
263.128
277.074
273.049
264.813
268.611
275.906
277.665
269.709
265.892
271.927
269.159
269.159
266.434
270.26
268.064
267.52
264.276
263.739
268.611
277.665
276.488
267.52
270.26
262.137
262.137
268.064
275.906
273.049
275.328
274.182
264.813
273.049
270.814
262.669
265.892
269.709
277.665
274.753
276.488
274.753
271.927
264.813
269.159
271.369
278.26
268.611
265.353
264.276
266.434
273.614
278.861
268.611
264.813
265.353
269.159
268.064
269.709
266.434
276.488
263.204
278.861
268.064
278.861
274.182
275.328
274.753
279.466
263.739
275.906
266.434
278.861
272.486
278.861
266.434
275.906
272.486
270.814
276.488
277.074
277.074
277.665
273.614
270.814
259.199
279.466
275.328
267.52
277.074
271.927
265.892
262.669
271.369
272.486
269.709
277.665
265.892
267.52
280.077
262.669
272.486
263.739
280.077
277.665
264.276
265.892
262.137
265.353
262.137
274.753
265.892
262.669
262.669
280.077
278.26
273.614
266.434
270.814
263.739
278.861
263.204
280.695
262.137
275.328
280.077
264.276
280.695
277.074
269.159
269.709
264.276
265.892
280.695
280.695
279.466
280.695
275.906
275.906
279.466
265.892
263.204
264.813
280.695
262.137
280.695
263.204
265.892
277.665
262.669
276.488
263.739
262.669
280.695
268.611
272.486
273.049
268.064
274.753
269.159
270.26
273.614
265.892
280.695
276.488
268.611
273.049
281.319
274.182
262.669
276.488
268.064
271.927
280.695
223.256
262.137
264.813
231.035
218.322
268.064
244.784
240.275
234.51
249.844
248.714
234.247
252.228
213.518
242.768
255.781
248.22
230.897
248.249
252.737
261.868
265.892
260.56
245.814
260.189
238.47
226.399
220.416
244.731
254.21
262.768
233.598
258.392
263.194
261.06
259.899
248.618
263.691
249.601
259.334
232.416
275.906
262.141
254.3
262.053
251.535
262.413
242.77
247.803
264.239
245.243
254.438
241.006
255.056
236.834
264.774
265.268
256.718
239.201
258.579
249.111
254.77
226.728
266.422
262.932
249.711
263.837
265.738
243.84
224.154
254.799
266.243
237.37
251.37
260.988
267.494
248.086
254.555
256.341
237.913
265.355
244.014
258.643
261.159
223.286
259.577
278.26
267.171
265.858
280.077
266.361
267.516
265.565
225.835
254.78
243.084
267.535
267.109
244.755
278.26
230.803
264.461
268.942
267.732
269.058
266.541
269.437
268.956
239.923
269.102
269.704
269.574
250.142
264.717
269.305
267.608
269.102
251.348
245.38
262.831
269.102
258.358
245.767
270.024
269.489
268.462
267.996
271.338
253.739
265.117
260.046
270.262
236.992
265.061
270.793
271.001
262.895
223.055
267.308
244.019
269.287
265.465
269.462
248.156
259.498
238.449
228.422
219.301
266.599
262.168
255.388
236.346
273.292
260.368
273.58
273.465
274.147
273.912
272.12
245.86
266
280.695
273.22
230.574
240.617
249.224
242.884
264.942
274.477
273.006
267.213
281.319
269.728
275.81
274.224
274.568
263.773
255.696
264.092
276.886
261.823
272.106
261.092
249.256
277.624
263.707
263.707
276.646
277.793
248.623
276.339
281.319
275.466
273.031
277.879
273.031
267.718
279.258
278.689
249.508
276.734
271.052
256.391
270.1
277.628
275.27
214.178
280.688
276.98
234.558
251.565
279.819
253.992
274.07
277.046
252.825
273.16
260.016
255.878
245.056
251.201
252.285
253.333
253.856
246.264
251.758
259.488
248.67
260.016
255.878
250.68
252.824
250.68
245.056
245.056
249.121
258.439
247.369
253.856
246.264
256.375
257.397
245.056
257.92
251.201
254.87
248.198
247.019
254.87
257.397
248.198
254.356
252.285
253.333
251.201
253.333
256.375
258.439
258.439
258.439
256.375
252.824
243.361
256.887
250.135
255.878
246.599
252.824
247.804
245.056
246.264
246.599
248.198
250.135
252.285
247.369
248.67
252.824
245.056
249.638
247.804
251.201
245.5
249.121
246.264
254.356
258.439
244.76
252.285
258.439
257.92
248.67
255.878
252.285
252.824
246.264
258.439
250.68
257.92
258.966
248.198
260.542
260.016
260.542
253.333
250.68
246.264
259.488
260.016
256.375
254.87
252.285
247.019
260.016
252.824
247.804
259.488
254.356
249.121
257.92
260.542
252.824
247.019
245.056
249.121
258.966
261.074
248.67
247.804
248.67
245.056
255.367
245.056
244.76
251.758
248.198
256.375
253.333
245.832
247.804
247.369
255.878
252.824
246.599
247.019
245.056
249.638
245.832
248.67
249.121
253.333
250.135
253.856
258.439
256.375
256.375
259.488
254.356
249.638
261.074
253.333
252.824
253.856
258.966
253.333
247.019
247.804
260.016
255.878
254.356
260.016
256.887
247.019
245.5
245.056
261.074
260.016
250.135
250.68
254.87
244.76
253.856
259.488
255.367
253.333
254.356
246.599
250.68
250.135
246.599
260.542
258.966
248.67
250.135
256.375
249.121
260.542
252.285
250.135
250.135
256.887
261.074
250.135
252.824
245.056
247.369
261.603
244.76
261.603
259.488
252.824
248.198
259.488
250.68
261.603
247.804
254.87
247.019
247.369
216.733
248.198
260.016
216.733
213.313
224.817
220.117
256.887
224.205
222.846
246.264
233.936
242.11
243.559
260.016
232.377
216.171
221.707
213.266
232.14
235.212
243.559
238.741
239.414
243.113
244.753
231.27
232.018
250.135
244.536
217.229
231.629
244.664
250.68
243.879
244.343
244.422
238.33
245.431
240.666
237.381
243.564
232.006
244.827
227.01
247.019
223.983
243.43
245.013
236.447
240.389
238.891
245.499
241.66
241.701
241.064
242.377
244.47
242.299
244.47
245.447
249.121
240.593
230.097
251.201
242.29
234.207
219.857
242.796
248.67
221.466
213.151
245.562
245.447
234.046
241.271
233.121
245.727
243.799
243.618
228.19
244.417
213.401
245.764
233.818
246.251
223.672
246.236
220.832
213.119
260.542
246.156
247.019
242.519
227.932
252.824
245.799
245.588
243.293
243.799
243.923
246.19
260.542
246.39
246.524
241.37
245.153
244.193
243.799
244.268
239.94
250.135
244.489
240.057
241.882
224.459
246.28
214.261
244.915
246.849
241.304
234.354
236.834
237.064
242.156
243.486
247.804
247.339
244.614
259.488
245.832
238.669
247.194
246.561
241.987
257.397
230.499
243.996
247.256
247.355
244.915
245.701
247.198
239.316
247.624
246.826
228.505
246.283
218.329
241.053
238.145
247.772
233.242
248.67
246.826
261.603
213.162
245.223
245.736
219.751
247.616
227.633
238.877
247.781
248.165
243.323
213.842
247.051
238.324
246.91
247.618
247.833
248.111
248.068
261.603
236.601
248.625
213.506
247.232
250.135
258.439
240.843
247.452
246.233
215.956
244.524
248.992
233.617
243.963
247.839
229.776
259.488
249.086
213.052
249.121
241.516
240.691
243.958
249.633
243.837
253.333
249.121
241.495
248.517
243.592
249.157
243.906
248.121
250.098
248.691
246.172
244.771
242.771
250.038
248.978
222.707
235.949
249.473
250.598
261.603
252.824
250.662
247.2
247.7
254.356
247.289
213.089
237.849
235.585
260.542
249.9
248.326
250.88
241.144
256.887
249.616
220.135
249.463
238.815
257.92
250.39
249.54
249.616
248.69
247.947
238.691
249.455
222.493
247.258
241.25
224.356
237.871
220.535
251.268
249.722
255.367
246.236
251.178
242.587
215.396
245.41
252.102
252.128
252.128
251.238
251.083
229.179
249.881
250.183
249.124
252.432
244.715
247.667
250.47
249.236
229.179
242.208
231.388
253.333
239.714
252.804
252.287
246.177
245.307
253.043
253.331
261.603
243.578
244.845
253.273
229.744
253.301
252.644
229.744
252.221
241.113
252.178
216.746
236.108
240.574
227.859
253.146
253.81
253.395
232.17
253.146
238.395
253.81
243.169
252.542
234.248
260.542
238.814
251.257
243.562
247.763
240.754
254.87
249.939
248.069
250.206
255.878
231.914
251.732
261.603
256.887
254.382
254.531
253.714
251.361
255.367
255.878
213.078
248.845
255.317
254.513
255.259
246.713
237.669
244.541
233.187
255.199
222.074
224.05
255.08
228.278
240.084
213.238
246.713
256.337
253.5
254.971
236.254
215.308
250.237
256.487
255.526
252.261
248.651
221.299
257.92
253.574
227.881
233.201
254.594
255.443
239.642
257.219
229.749
238.209
239.642
240.864
252.283
256.956
257.704
256.302
257.92
252.811
252.492
258.052
257.52
225.852
258.439
258.411
257.842
252.002
252.811
249.251
257.842
258.805
253.35
257.708
257.059
254.827
258.917
233.196
222.049
224.096
247.144
259.691
257.895
250.525
258.004
231.783
252.005
255.232
259.986
259.876
235.928
258.25
257.114
251.521
248.242
259.578
261.064
255.874
249.979
258.098
243.559
256.27
249.342
261.603
213.109
252.816
260.759
261.381
255.756
261.6
)


// ************************************************************************* //
