/*--------------------------------*- C++ -*----------------------------------*\
  =========                 |
  \\      /  F ield         | OpenFOAM: The Open Source CFD Toolbox
   \\    /   O peration     | Website:  https://openfoam.org
    \\  /    A nd           | Version:  7
     \\/     M anipulation  |
\*---------------------------------------------------------------------------*/
FoamFile
{
    version     2.0;
    format      ascii;
    class       scalarField;
    location    "0.7/lagrangian/reactingCloud1";
    object      tTurb;
}
// * * * * * * * * * * * * * * * * * * * * * * * * * * * * * * * * * * * * * //


2453
(
0.004115
0.00401
0.003905
0.0038
0.003695
0.001855
0.003485
0.00338
0.00337625
8.35e-05
0.0015335
0.003065
0.00296
0.002855
0.00275
0.002645
0.00254
0.002435
0.00233
0.002225
0.00212
0.002015
0.00191
0.001805
0.0017
0.000632
0.001595
0.00149
0.0003205
0.00128
0.001175
0.00107
0.000965
0.00086
0.000755
0.00065
0.000545
0.00044
0.000335
0.00023
0.000125
2e-05
0.0022905
0.0017655
9.2449e-05
0.0027635
0.001442
0.0011435
0.010315
0.010105
0.0099
0.01
0.0098
0.002055
0.0096
5.32455e-05
0.0004
0.0093
0.000605
0.0091
0.00345583
0.0089
0.0087
0.0086
0.0085
0.0083
0.0084
0.00125019
0.0081
0.0001205
0.0079
0.0078
0.0077
0.0075
0.00027
0.0074
0.0006455
0.0071
0.0072
0.007
0.0069
0.0068
0.0067
0.0066
0.00317312
0.0064
0.0063
0.0061
0.0059
0.006
5.35e-05
0.00569
0.005585
0.00548
0.005375
0.002397
0.00527
0.00506
0.002392
0.0016235
0.000615
0.00485
0.004745
0.00464
0.004535
0.00443
0.004325
0.00442625
0.00422
0.012205
0.000765
0.011995
0.0015
0.000870661
8.58912e-05
0.01168
0.011575
0.011785
1.5e-05
0.01147
0.0046855
0.011155
0.01126
0.01105
0.01084
0.01042
0.01063
0.010525
0.0004485
0.01021
0.013255
0.00147056
0.0015011
0.000647
0.01336
0.00139
0.001365
0.01294
0.012835
0.000277
0.00104
0.0018855
0.000795
0.0010405
0.01504
0.0020255
0.002715
0.00259756
0.00272648
0.00256306
0.00237018
0.013885
0.001055
0.00202849
0.01399
0.01378
0.013675
0.0017605
0.0014635
0.01648
0.002442
0.01638
0.01628
0.000847865
0.0001085
0.00401785
0.01567
0.000782
0.015355
0.00258775
0.000488081
0.00651
0.0005635
0.003147
6.06605e-05
0.0016255
0.01988
0.0033155
0.01958
0.00104
0.001112
0.0036685
0.0021585
0.0022155
0.003655
0.000628166
0.0004255
0.01878
0.006252
0.00696518
0.01798
0.00654232
0.00619533
0.00638734
0.01788
0.000102
0.01778
0.01768
0.001677
0.0015405
0.0024605
0.00546306
0.0007105
0.001615
0.01718
0.00532594
0.0039405
0.011132
0.0003185
0.01132
0.00358412
0.02334
0.000612
0.02271
0.0028685
0.000297
0.0011785
0.02229
0.02208
0.0025735
0.021975
0.0015105
0.008485
0.0093985
0.0005805
0.0038055
9.55e-05
0.001957
0.0048055
0.020925
0.0002835
0.0029685
0.0003405
0.00344595
0.001942
0.020715
0.0037685
0.0042605
0.020295
0.003717
0.00391655
0.0028435
0.00422615
0.00146249
0.00287881
0.00311444
0.00272609
0.000597341
0.00220491
0.00435754
0.00181001
0.00484509
0.00108939
0.000592675
0.0044585
0.0060805
0.007497
0.0013
0.0063185
0.00769279
0.0110705
0.02926
0.0034085
0.0040005
0.0031455
0.02324
0.003517
0.02866
0.003417
0.0027585
0.0052685
0.0065805
0.0069655
0.0030485
0.00306
0.0018785
0.001775
0.006345
0.0021885
0.02746
0.0020105
0.0045251
0.0044635
0.0015205
0.00496563
0.0011135
0.0022035
0.02626
0.02596
0.000485
0.002367
0.0029005
0.02606
0.006397
0.025755
0.02586
0.000382
0.000712
0.0024555
0.0090855
0.002337
0.00071
0.0056835
0.02502
0.000267466
0.0060955
0.024705
0.006155
0.0008885
0.02481
0.0024635
0.0129331
0.0097585
0.0009005
0.0020635
0.02397
0.02418
0.024075
0.00371793
0.00022978
0.00465434
0.00300885
0.00314081
0.00377122
0.00237123
0.00210657
0.0011826
0.000492397
0.00111665
0.000483646
0.00424125
0.000305153
0.0071055
0.0002235
0.0008255
0.0093785
0.003175
0.0071735
0.003742
6.2e-05
0.004332
0.0105555
0.0068785
0.0080455
0.00782
0.0169085
0.00934
0.0066405
0.00876336
0.0055055
0.005582
0.0001355
0.0066435
0.0109055
0.0039855
0.0061635
0.0099585
0.0071835
0.003072
0.0038435
0.0021685
0.0006005
0.0049835
0.0002235
0.0064705
0.0086505
0.009267
0.0038285
0.0007505
0.0022335
0.0060235
0.0003185
0.0045205
0.010287
0.001427
0.001025
0.00481
0.00843261
0.000672
0.009135
0.0070955
0.0014655
0.0090605
0.0010385
0.00605
0.0021185
0.0081105
0.001962
0.009647
0.0011855
0.002227
0.0017035
0.03185
0.0024755
0.006302
0.001807
0.0004455
0.0074205
0.00260822
0.000775274
0.0011055
0.00811134
0.0304812
0.005147
0.0015885
0.03038
0.0012735
0.030065
0.00288
0.0018485
0.0089255
0.00392886
0.00309374
0.0030552
0.00265803
0.00229353
0.00212495
0.00214101
0.0044462
0.00176788
0.00208909
0.00155908
0.00189059
0.0015279
0.00121445
0.00331387
0.00110098
0.00309918
0.00191194
0.00236695
0.00430913
0.000839665
0.000833821
0.000950664
0.000515761
0.000684036
0.000453145
0.00266957
0.0046244
0.000450043
0.00924515
0.011902
0.000192
0.0004305
0.0054885
0.00113
0.0055005
0.009877
2.09465e-05
0.013127
0.0022555
0.0097555
0.0014335
0.0058305
0.0111205
0.0030005
0.003777
0.0004435
0.0104755
0.0031305
0.004075
0.016775
0.0025835
0.0011355
0.0091435
0.006557
0.0086355
0.009082
0.006477
0.007175
0.0116555
0.012037
0.000805
0.001452
0.0030855
0.015337
0.0019135
0.00321715
0.0030635
0.005767
0.006002
0.0116935
0.0010935
0.008527
0.00705185
0.0004485
0.011485
0.0072585
0.000145
0.0027255
0.0066855
0.0092905
0.0013405
0.00853
0.002092
0.002107
0.0036905
0.00435
0.0057655
0.006617
0.01196
0.000287
0.009087
0.010867
0.0109705
0.006412
0.00935
0.0029305
0.0201535
0.0069185
0.013107
0.004557
0.010102
0.0092405
0.0023746
0.00381279
0.00913039
0.00365535
0.00349107
0.00568676
0.0036597
0.0121248
0.00330566
0.0032904
0.00405466
0.00315212
0.00317546
0.00360382
0.00521092
0.00296086
0.0029288
0.00277952
0.00281926
0.00276132
0.00280315
0.0012614
0.00269961
0.00589424
0.00165128
0.00262859
0.00412482
0.00246849
0.00240379
0.00243996
0.00842966
0.0020299
0.00015083
0.00188345
0.00184042
0.00338135
0.00194299
0.00181716
0.00185462
0.00180291
0.0145837
0.00181495
0.00171642
0.00165038
0.00167606
0.00162716
0.0015106
0.00220064
0.00138899
0.001413
0.00142707
0.00180085
0.00115572
0.00547685
0.00132252
0.00385462
0.00106379
0.00438363
0.000981367
0.00102295
0.00075661
0.000894295
0.000777348
0.00157723
0.00107545
0.000870017
0.000458885
0.000535379
0.000492809
0.00053932
0.00167092
0.000422239
0.00466044
0.00292148
0.000348527
0.000353877
0.000377587
0.00208839
0.000115834
0.0032655
0.004262
0.0201985
0.00681
0.0086435
0.0032185
5.55e-05
0.0017205
0.00793136
0.0098835
0.0059655
0.0041305
0.011732
0.0050355
0.0130985
0.0019985
0.0038405
0.005327
0.004768
0.0013785
0.0134405
0.012067
0.0117985
0.0146255
0.009017
0.0037905
0.0061605
0.013357
0.01321
0.0116805
0.013252
0.003822
0.0074155
0.018162
0.0025585
0.0151305
0.0143835
0.001702
0.01711
0.009875
0.0095605
0.0144585
0.0137405
0.0022855
0.0007585
0.0125005
0.0147935
0.00252531
0.0109735
0.012205
0.0055235
0.0089035
0.0066885
0.002362
0.0039535
0.00288666
0.009462
0.006402
0.0055605
0.0112706
0.00641
0.0125305
0.0113435
0.0105785
0.000995
0.0131185
0.00241044
0.0156985
0.010417
0.0041685
0.0140907
0.0023335
0.0080105
0.0137605
0.0107835
0.001625
0.004747
0.003532
0.0025735
0.013072
0.011042
0.0099685
0.011247
0.0030685
0.0125655
0.0166135
0.0069235
0.0054135
0.0024755
0.0067535
0.00259
0.0158155
0.0072185
0.010667
0.0067835
0.0126555
0.013547
0.0035305
0.0099835
0.000902
0.006947
0.0094155
0.0058585
0.0077855
0.0014435
0.002707
0.000631061
0.00448158
0.0139905
3e-06
0.006482
0.001572
0.0081335
0.0130985
0.000862
0.0081205
0.00230677
0.0064885
0.0107135
0.007672
0.0071005
0.00156
0.0009905
0.01042
0.0008555
0.0020155
0.005953
0.011722
0.0047635
0.0120532
0.005442
0.0101685
0.009667
0.0097035
0.0085585
0.004807
0.000792
0.00869
0.0118505
0.000255151
0.00395556
0.00394889
0.00799899
0.00151589
0.00392323
0.00288072
0.00390536
4.8e-05
0.0152356
0.00241626
0.0038508
0.00591742
0.00156016
0.00379658
0.00156019
0.00367777
0.0232941
0.00217684
0.000966448
0.00381692
0.00355538
0.00357632
0.00551908
0.000243096
0.000591255
0.00941379
0.00342243
0.00678561
0.00329447
0.00469007
0.00328889
0.00323949
0.000763433
0.00314231
0.00309146
0.00309666
0.00512248
0.00297394
0.00292504
0.00287903
0.00659121
0.00305776
0.00300696
0.00287932
0.00280553
0.00286972
0.00288414
0.00279559
0.00806377
0.00275635
0.00276703
0.00271034
0.00268261
0.00289274
0.00261947
0.00374539
0.00269671
0.00205447
0.00260287
0.00360431
0.00264666
0.002612
0.00248215
0.0113092
0.0012511
0.00248274
0.0023683
0.00240208
0.00295548
0.00241874
0.00233471
0.00233068
0.00238024
0.00228264
0.0148489
0.00221879
0.00219078
0.00300415
0.00215983
0.00245734
0.00211597
0.00338925
0.00213477
0.00205853
0.00755934
0.00301273
0.00370044
0.0019347
0.00104244
0.00273733
0.00447533
0.00210586
0.00195865
0.00191707
0.00199981
0.00443254
0.00192158
0.0133906
0.00182608
0.00181685
0.00175884
0.00185105
0.00175298
0.00179434
0.00168947
0.00232517
0.000786823
0.00159715
0.00323386
0.00150094
0.0050671
0.00195737
0.00154591
0.00140746
0.00146697
0.00160254
0.00144937
0.00141075
0.00133606
0.00143494
0.00139817
0.0230758
0.00335956
0.00138435
0.00132332
0.00133724
0.0017772
0.00995174
0.00431989
0.00259665
0.00120705
0.00111403
0.00114243
0.00144072
0.00111182
0.00106184
0.0011358
0.00788238
0.00108967
0.00197235
0.00200495
0.00102363
0.000955356
0.00102114
0.00199911
0.00456085
0.00082031
0.000861218
0.000797259
0.000705433
0.0127952
0.000756005
0.00261421
0.000726605
8.32571e-05
0.00065602
0.000570759
0.000595929
0.000615721
0.00065971
0.000661503
0.000671495
0.00983717
0.00106423
0.00356801
0.000662997
0.00917472
0.00572676
0.00108053
0.000497964
0.000571617
0.00264071
0.00102236
0.000508957
0.000558132
0.000562286
0.000531178
0.00106341
0.000435391
0.000360732
0.00158653
0.00186988
0.000271207
0.000400515
0.000272773
0.000304001
0.000154055
0.000252309
0.00011031
0.00357179
0.000579287
0.0217055
0.000200957
0.000900656
0.0178535
0.007047
0.006942
0.0103435
0.000362
0.003062
0.03407
0.000772
0.0021335
0.0125855
0.013737
0.0214855
0.0225135
0.004802
0.0160133
0.0184585
0.0083785
0.0073405
0.0250403
0.0137335
0.00946
0.0070735
0.0274105
0.0020985
0.0232235
0.001347
0.0248655
0.019225
0.0016785
0.0224735
0.0187535
0.008257
0.0106385
0.0013035
0.0120805
0.02243
0.0171035
0.0064935
0.000912
0.0088855
0.0189305
0.021576
0.0049385
0.00446447
0.004222
0.0142105
0.021812
0.0055735
0.0177035
0.0030385
0.004947
0.022237
0.0204235
0.0201485
0.0202155
0.0071305
0.000333863
0.0031635
0.0177605
0.0047555
0.008105
0.0199185
0.0161985
0.0109705
0.014062
0.0017455
0.012772
0.001487
0.01661
0.0117585
0.0132205
0.0103555
0.0190705
0.0052435
0.000598976
0.0061285
0.009525
0.0096255
0.017932
0.014982
0.009952
0.0161355
4.02273e-05
0.00331269
0.014437
0.004137
0.0165155
0.011772
0.00072
0.0005955
0.009822
0.0195435
0.01304
0.0101905
0.006132
0.01611
0.006037
0.01508
0.0141255
0.0102455
0.020517
0.013057
0.0135685
0.0019305
0.001892
0.0016385
0.0120305
0.0007085
0.0134353
0.013752
0.0141355
0.0024735
0.000977
0.0099255
0.0035135
0.0084635
0.0079805
0.008782
0.0189885
0.0139255
0.0067585
0.008672
0.014047
0.0113355
0.002252
0.0127155
0.007227
0.0151105
0.01406
0.00903
0.0128235
0.0030085
0.0007155
0.0053935
0.0074985
0.012142
0.016112
0.000152
0.00573
0.0087885
0.0042455
0.0164605
0.0052785
0.0024155
0.00374638
0.00374894
0.00376313
0.0354599
0.00378019
0.00171793
0.00498855
0.00694822
0.00366672
0.00375491
0.00361619
0.00367815
0.00362151
0.00355233
0.00357431
0.00338931
0.00345057
0.00331159
0.00331494
0.00328894
0.00331257
0.003263
0.00322324
0.0032612
0.00316376
0.00499975
0.003243
0.00973225
0.00381419
0.00303285
0.00291594
0.00349338
0.000580364
0.00282568
0.0250509
0.00282426
0.00430295
0.00281871
0.00280735
0.00273997
0.00275965
0.00266039
0.00274199
0.000455344
0.00263902
0.0174075
0.0026869
0.0026574
0.0060121
0.00260197
0.00263058
0.00921537
0.00263583
0.00275682
0.00254707
0.0159118
0.00239545
0.00239711
0.00245889
0.00244625
0.00237526
0.00242574
0.00134559
0.00248798
0.00238296
0.000764159
0.00944763
0.00215555
0.00224561
0.00418528
0.00216832
0.00215791
0.00208895
0.00207126
0.00213588
0.00257851
0.00206071
0.00212519
0.00212752
0.00207411
0.00221738
0.00305841
0.00193109
0.00228229
0.00197675
0.00190508
0.0276638
0.00147901
0.00185004
0.00187409
0.0078893
0.00172179
0.00341098
0.00173156
0.00429342
0.00324092
0.00175292
0.00105833
0.00160832
0.00160843
0.00378739
0.00393807
0.00168759
0.00678129
0.00164493
0.00155486
0.00154914
0.0054609
0.00154374
0.00312608
0.00451978
0.00744731
0.00334465
0.00443984
0.00289139
0.00144672
0.00212996
0.00148538
0.00151744
0.0160349
0.000999731
0.0178844
0.00134073
0.0306922
0.00128998
0.00136777
0.0013802
0.0176853
0.00296641
0.00134711
0.00435165
0.00120226
0.000516026
0.00107811
0.00114909
0.000297109
0.00115192
0.00124269
0.0011388
0.0010239
0.00108984
0.00248224
0.00107758
0.00961118
0.00668236
0.00109912
0.002355
0.00168429
0.00291332
0.00104806
0.000917567
0.00100714
0.000851405
0.00177517
0.00338546
0.00278315
0.00365266
0.00199363
0.000889109
0.000812893
0.0104088
0.00543673
0.00129207
0.000730073
0.000752252
0.00329579
0.00147794
0.00108148
0.0132507
0.00062658
0.000744761
0.000674892
0.00250255
0.000734799
0.000620415
0.000610454
0.0244405
0.00561166
0.00379934
0.00251463
0.0246189
0.00254156
0.000551322
0.00371989
0.000537584
0.000567807
0.000436863
0.028767
0.000472818
0.0090064
0.0263817
0.0213862
0.000634563
0.00320746
0.00492532
0.000432775
0.0319811
0.000273432
0.00170798
0.00323052
0.000279485
0.00407595
0.00704158
0.000167059
0.000192534
0.000136301
0.015335
0.000525748
0.0241642
0.0252984
0.0257335
0.0149335
0.0250655
0.0021835
0.029427
0.0074785
0.0296085
0.02549
0.0019635
0.0105805
0.0023055
0.0091235
0.0328455
0.001087
0.02198
0.008105
0.0183785
0.0183185
0.005342
0.0116105
0.0048005
0.0147285
0.0336705
0.025372
0.007072
0.009702
0.0273405
0.0179635
0.028322
0.008672
0.0020105
0.029932
0.013852
0.015192
0.0242355
0.021037
0.0025235
0.0040185
0.0069105
0.02304
0.0148605
0.027547
0.014442
0.011787
0.0016535
0.0299622
0.0309005
0.0055235
0.0199135
0.016102
0.0077635
0.0316419
0.0190997
0.01204
0.0037785
7.913e-05
0.000627
0.0006435
0.0192055
0.030893
0.0017855
0.0292985
0.025402
0.015042
0.0040285
0.0259355
0.0255005
0.02261
0.0226535
0.0124085
4.56206e-05
0.0017255
0.0069155
0.0113935
0.006517
0.0284835
0.0272755
0.023935
0.0014569
0.0285309
0.025862
0.0096535
0.0294355
0.0211105
0.0206885
0.0105835
0.0089985
0.0161935
0.0279055
0.0185235
0.025882
0.021155
0.003593
0.0143385
0.0062585
0.01457
0.0171135
0.01631
0.0250685
0.0059385
0.0168985
0.0046005
0.006025
0.0101085
0.0181785
0.0246185
0.0003385
0.0159655
0.0110535
0.003947
0.0238335
0.0149905
0.0220705
0.0122885
0.009837
0.0192985
0.003527
0.0031435
0.000495
0.0279305
0.007022
0.006357
0.002875
0.000312
0.0042555
0.0200935
0.0071405
0.007347
0.023262
0.0112335
0.0106335
7.35e-05
0.0079185
0.025547
0.0211305
0.013662
0.022542
0.0218505
0.0252235
0.022172
0.0206035
0.028445
0.0180035
0.002032
0.0237755
0.0071891
0.00300587
0.0201904
0.00919513
0.00343794
0.00343086
0.00361721
0.00347528
0.0115885
0.00354889
0.00341704
0.00457072
0.0033387
0.00346623
0.0173245
0.000910224
0.00322067
0.00328433
0.016345
0.00603737
0.0112786
0.0343963
0.0392972
0.00311128
0.00298195
0.00296174
0.00366992
0.00313046
0.00104489
0.000794383
0.00720853
0.0202777
0.00277478
0.000575041
0.00294072
0.00290176
0.00289481
0.00101767
0.00260756
0.0174598
0.00268575
0.0143887
0.00257327
0.00534622
0.00274257
0.00260706
0.0186839
0.00258573
0.00253902
0.0024426
0.0002106
0.000770267
0.0119689
0.00243594
0.00231401
0.00227293
0.00956267
0.0074065
0.00171325
0.00311667
0.00219922
0.0304733
0.00277303
0.0215749
0.00217387
0.0026395
0.0136605
0.00200525
0.0105154
0.00198137
0.0248644
0.0398293
0.00200618
0.00200947
0.00306568
0.0025988
0.0147825
0.00183389
0.00288766
0.0371126
0.00296389
0.0166685
0.00191489
0.0263319
0.0101349
0.00184911
0.0109488
0.0018596
0.00172215
0.00162288
0.00156889
0.0120685
0.00296587
0.00159887
0.00146968
0.00159129
0.00150823
0.0013952
0.00917585
0.00143421
0.0166135
0.00132988
0.00622669
0.00134991
0.0281682
0.0303106
0.00121672
0.00313934
0.00149471
0.037539
0.0200689
0.00876073
0.0389692
0.00107458
0.0247912
0.017098
0.00121767
0.0010843
0.000976834
0.0120933
0.00529348
0.00115811
0.00107917
0.000987204
0.000964824
0.000840918
0.00100477
0.000799031
0.00132576
0.000753533
0.000921057
0.0011201
0.00562988
0.00304704
0.000917288
0.000945747
0.00502882
0.000703139
0.00229098
0.00293568
0.00171827
0.0210611
0.00489238
0.00279672
0.00359493
0.000804091
0.00328721
0.00462381
0.000579927
0.00104541
0.000529226
0.00142343
0.00868464
0.000535407
0.000678648
0.000469255
0.000664284
0.00688111
0.000435475
0.00723856
0.00379591
0.0178491
0.0122117
0.000534873
0.000546292
0.000465
0.000487891
0.000488608
0.0124816
0.00139584
0.0176797
0.000339676
0.000352699
0.00312483
0.000345285
0.000191681
0.000385614
0.00714191
0.0160838
0.000380154
0.026607
8.9131e-05
0.00565052
0.0429955
0.012032
0.0127114
0.0040955
0.0064255
0.0246505
0.0272455
0.034867
0.021917
0.0041335
0.0494485
0.0357485
0.0035535
0.0294005
0.012752
0.008967
0.0181355
0.0503255
0.00598449
0.0337485
0.0467405
0.020307
0.0380135
0.000417
0.039685
0.0356605
0.0438285
0.03509
0.0141005
0.000592
0.0437435
0.0161005
0.002022
0.006075
0.0295885
0.0330685
0.044797
0.0285285
0.000207063
0.046677
0.0063685
0.0084905
0.0134305
0.033827
0.0352655
0.0154685
0.005897
0.04329
0.0091335
0.0475205
0.012397
0.0454835
0.0101385
0.0494805
0.017227
0.029832
0.0218355
0.0371285
0.0112135
0.032932
0.0042385
0.0186985
0.002882
0.0016635
0.015567
0.0149405
0.017707
0.028662
0.0323635
0.0330435
0.000762
0.0461555
0.0266855
0.006707
0.000697
0.029452
0.0298605
0.0334635
0.017952
0.0395877
0.04317
0.003257
0.001462
0.00800952
0.0170085
0.0151035
0.0111801
0.0427635
0.0158335
0.0378655
0.0294855
0.0187585
0.0166105
0.016842
0.017162
0.0103085
0.00211107
0.0352655
0.0060605
0.0018635
0.0114585
0.004105
0.0020285
0.005487
0.0103805
0.0172455
0.0117805
0.0134105
0.0375685
0.035002
0.014285
0.0048685
0.0191205
0.00443
0.0144435
0.035087
0.0434135
0.0229485
0.023837
0.0165235
0.0431055
0.0330435
0.0426055
0.0239535
0.0031035
0.0153705
0.020345
0.010492
0.0100435
0.0217605
0.015932
0.0181655
0.0323255
0.001562
0.0021
0.0011105
0.0034735
0.0167235
0.00146
0.0217335
0.0118985
0.0202385
0.0229755
0.016192
0.0374405
0.0169785
0.04141
0.0263205
0.0159385
0.02937
0.0007185
0.0024285
0.0234755
0.0219485
0.040522
0.0320985
0.0187485
0.0115285
5.74215e-05
0.0040005
0.025732
0.0108655
0.0288235
0.0021655
0.0075335
0.0065355
0.0401355
0.0138805
0.00148597
0.0246005
0.0184285
0.0127235
0.001132
0.0369205
0.027397
0.0276585
0.0337405
0.02603
0.0190035
0.000172
0.027388
0.0101735
0.030892
0.0323435
0.0293555
0.0238485
0.011977
0.020547
0.00263008
0.0158085
0.035147
0.005087
0.0079055
0.0029955
0.0140885
0.0026455
0.014472
0.0060435
0.0229885
0.018527
0.031017
0.0087155
0.0229985
0.01153
0.0328185
0.0244935
0.0018705
0.0063485
0.0002535
0.0105055
0.0029355
0.0293505
0.0166005
0.0116735
0.0034097
0.0151564
0.00565401
0.00308953
0.00315396
0.0120997
0.00316302
0.00384415
0.003119
0.0101346
0.00337221
0.00331337
0.0621614
0.00303421
0.00309414
0.00300439
0.00491283
0.0061213
0.00557928
0.00320146
0.00457186
0.00306378
0.00494881
0.00311337
0.0166823
0.00857324
0.00310297
0.00263295
0.00302315
0.00351471
0.00434049
0.00296448
0.00301092
0.0032152
0.00281058
0.00411701
0.0479232
0.00783688
0.00269772
0.00278809
0.00281242
0.0559933
0.00332557
0.0027124
0.0164123
0.0191335
0.00791215
0.0222015
0.00258478
0.00712326
0.00246336
0.00457428
0.00348278
0.00293109
0.024051
0.0029907
0.00231943
0.0601199
0.00409837
0.0027469
0.00297954
0.00374977
0.00229157
0.000256737
0.00227375
0.00359031
0.00228427
0.00294819
0.00228108
0.00909179
0.00325928
0.00901365
0.00861505
0.0328548
0.00270483
0.0289173
0.00209902
0.00250002
0.00304762
0.0182276
0.0227442
0.00218238
0.0538002
0.00255995
0.00226525
0.00232442
0.00215522
0.00719654
0.00459425
0.0301062
0.00827824
0.00202212
0.00191978
0.0199583
0.00223274
0.00323169
0.0159172
0.00169555
0.00710064
0.00188155
0.00171347
0.0238099
0.00180697
0.00184883
0.00164055
0.00220571
0.00658725
0.0485581
0.00177042
0.0262843
0.00477675
0.077677
0.0063052
0.085567
0.00272985
0.0115592
0.0282039
0.0015249
0.00201436
0.0374671
0.00155283
0.00974515
0.0126131
0.00177075
0.0291956
0.00788727
0.0197269
0.00237549
0.0314528
0.0157265
0.0171436
0.00175454
0.00157616
0.00133083
0.00119586
0.00420306
0.00140103
0.00137011
0.00616367
0.00142508
0.00718163
0.0046285
0.00306387
0.00439138
0.00129921
0.0601801
0.00133943
0.000433337
0.0195386
0.00137249
0.00727962
0.0256721
0.00112686
0.00976971
0.00119243
0.00119124
0.010556
0.0851096
0.00634934
0.0261535
0.028041
0.000963747
0.0115598
0.00131166
0.00100941
0.00476608
0.0618089
0.000973867
0.000988334
0.00440047
0.00965375
0.0363305
0.00846946
0.00117456
0.0310131
0.0640552
0.000721221
0.000904999
0.0553705
0.000998954
0.000756297
0.0648618
0.000717088
0.00966999
0.00218117
0.0192186
0.00669186
0.000480979
0.000867183
0.00311838
0.000438679
0.013155
0.000823567
0.00395362
0.0101732
0.0231005
0.000858826
0.00989213
0.000577361
0.00517487
0.00779358
0.000499647
0.0531311
0.000319274
0.0414564
0.01091
0.0684605
0.0176985
0.0014235
0.000540781
0.0283205
0.0405335
0.043056
0.022102
0.0703735
0.0699805
0.0188316
0.004237
0.0609359
0.0099805
0.068792
0.0336085
0.044065
0.0634135
0.0074635
0.0259585
0.037847
0.0693985
0.0319855
0.0349485
0.0402344
0.027495
0.006265
0.0143235
0.0364535
0.00100346
0.03713
0.047107
0.0556755
0.06242
0.0085835
0.0544915
0.0481555
0.08096
0.028137
0.0780085
0.0244755
0.000144353
0.0425405
0.05832
0.014922
0.0265505
0.03495
0.03783
0.003032
0.045592
0.0011855
0.0068185
0.010832
0.0729305
0.0518805
0.03372
0.0102085
0.061072
0.0178105
0.0596535
0.00167675
0.0568805
0.063507
0.0491205
0.0790455
0.00751074
0.052142
0.0947605
0.031717
0.0781885
0.022257
0.0166635
0.0365205
0.0564005
0.05125
0.0243955
0.053667
0.033655
0.079925
0.047167
0.0169135
0.017503
0.0378355
0.0741905
0.014985
0.05402
0.000477233
0.0362005
9.75128e-05
0.0396105
0.0570635
0.000412631
0.0095335
0.0234835
0.0058
0.0595885
0.0032005
0.0817635
0.000501679
0.0447735
0.0038605
0.0639685
0.01592
0.00525
0.06794
0.0253885
0.0604055
0.000181647
0.0535
0.0219585
0.068377
0.018025
0.016207
0.012685
0.0442155
0.072907
0.0659105
0.0193455
0.073448
0.0492685
0.0522555
0.030417
0.000109713
0.0036785
0.0044105
0.00227769
0.0533105
0.028272
0.0660705
0.0656105
0.0193605
0.00930506
0.009632
0.0026755
0.039805
0.03532
0.0365905
0.0143385
0.0573655
0.0480035
0.0744735
0.0011305
0.025665
0.070832
0.0189255
0.074482
0.044922
0.0402235
0.0208405
0.0342135
0.060887
0.00369087
0.09679
0.0694505
0.0288985
0.048482
0.048067
0.0561135
0.025512
0.0545
0.0614435
0.022932
0.002387
0.0208985
0.0008585
0.0181085
0.0740155
0.05497
0.0009455
0.0412985
0.00559126
0.0050455
0.0280555
0.0385355
0.0060485
4.24105e-05
0.0106853
0.070207
0.0190735
0.001122
0.0279583
0.0065385
0.0025805
0.0188805
0.0322205
0.041567
0.01601
0.0187998
0.0441185
0.102702
0.0088135
0.0068505
0.0087285
0.0120455
0.0125505
0.0025835
0.000123497
0.0041535
0.0141685
0.068957
0.0270164
0.0457285
0.020532
0.060825
0.0208185
0.0469085
0.0276885
0.0499855
0.0039585
0.026007
0.04913
0.0468561
0.0092635
0.0005805
0.0649755
0.00213986
0.016729
0.0528185
0.031537
0.0531679
0.0174352
0.0487935
0.0662635
0.003602
0.0237855
0.000313053
0.0333185
0.016077
0.0121135
0.06256
0.0433696
0.014887
0.048922
0.0076635
0.05915
0.0029139
0.0117335
0.053327
0.0382015
0.0334705
0.038167
0.025732
0.03124
0.0284405
0.0662685
0.019622
0.0262085
0.0023005
0.031182
0.045292
0.003212
0.000112046
0.0088585
0.0493505
0.0179785
0.001827
0.0081185
0.036682
0.012265
0.0553755
0.0521605
0.0013385
0.0030785
0.0646785
0.010012
0.042457
0.0543405
0.0443235
0.0416285
0.0294155
0.0390805
0.0626405
0.0035185
0.0080305
1.89411e-05
0.024817
0.0490835
0.0054185
0.0319035
0.0243455
0.0487685
0.032098
0.0126308
0.0161885
0.055302
0.0465585
0.018257
0.0469555
0.0113705
0.046362
0.006777
0.0187185
0.016557
0.0308812
0.0426185
0.0131105
0.039772
0.0555887
0.0139667
0.00603
0.0226555
0.0594385
0.0067135
0.0589185
0.0495205
0.0366185
0.0278185
0.00639007
0.0130235
0.0456635
0.0492405
0.0480285
0.0444535
0.0083585
0.0027755
0.0407085
0.0526635
3.22955e-05
0.031782
0.0356485
0.00777961
0.0435211
0.0528435
0.017042
0.056767
0.026372
0.037297
2.99075e-05
0.0833085
0.0508685
0.0275855
0.006282
0.012167
0.0447355
0.0174055
0.009927
0.0036205
0.0097285
0.0008735
0.01095
0.051615
0.0069755
0.00995641
0.0655955
0.0538155
0.021595
0.023487
0.0542585
0.018337
0.02658
0.0246785
0.0158905
0.03992
0.0037285
0.009022
0.0005085
2.31929e-05
0.0054035
0.0471235
0.018802
0.048257
0.0347935
9.05e-05
0.0122905
0.052672
0.055092
0.0318435
0.001412
0.0478335
0.0205885
0.017255
0.035467
0.0377785
0.0460555
0.011342
0.0034485
0.0355135
0.02596
0.00104725
0.0204905
0.01241
0.017277
0.0203435
0.015732
0.0409385
0.0248785
0.0503785
0.0244385
0.0453655
0.014957
0.021337
0.0297535
0.00028
0.0093785
0.0059305
0.0251485
0.0209485
0.047
0.0248435
0.026077
0.033765
0.048845
0.0476935
0.0303135
0.0200855
0.0186885
0.03361
0.0380535
0.03956
0.0255255
0.0155035
0.0363255
0.0189235
0.052022
0.0052305
0.0060055
0.026765
0.0394514
0.0630805
0.0309255
0.038082
0.034
0.0214835
0.0204235
)


// ************************************************************************* //
