/*--------------------------------*- C++ -*----------------------------------*\
  =========                 |
  \\      /  F ield         | OpenFOAM: The Open Source CFD Toolbox
   \\    /   O peration     | Website:  https://openfoam.org
    \\  /    A nd           | Version:  7
     \\/     M anipulation  |
\*---------------------------------------------------------------------------*/
FoamFile
{
    version     2.0;
    format      ascii;
    class       vectorField;
    location    "0.7/lagrangian/reactingCloud1";
    object      U;
}
// * * * * * * * * * * * * * * * * * * * * * * * * * * * * * * * * * * * * * //


2453
(
(133.8 14.1987 0)
(136.79 7.05684 0)
(137.769 14.1757 0)
(137.409 24.6301 0)
(142.269 18.6951 0)
(167.625 -2.37445 0)
(142.654 5.00569 0)
(150.24 18.2284 0)
(147.37 12.0205 0)
(145.198 7.10952 0)
(154.374 5.56307 0)
(145.944 2.55092 0)
(150.681 7.15428 0)
(149.286 4.61545 0)
(153.678 6.33555 0)
(151.916 4.77937 0)
(151.191 3.49746 0)
(149.634 1.003 0)
(151.809 2.72274 0)
(153.491 2.79097 0)
(155.427 1.76805 0)
(152.217 1.71864 0)
(154.927 0.130072 0)
(153.634 1.41617 0)
(154.071 -0.101351 0)
(160.16 -6.08085 0)
(153.789 0.93515 0)
(152.539 0.689924 0)
(145.637 -0.198134 0)
(153.25 0.634299 0)
(153.709 0.321455 0)
(153.71 0.183548 0)
(153.615 0.156409 0)
(153.379 0.287607 0)
(153.555 -0.131353 0)
(153.452 -0.257009 0)
(153.391 0.0451441 0)
(153.256 0.194503 0)
(153.331 -0.0246207 0)
(153.305 -0.111681 0)
(153.253 0.148095 0)
(153.262 -0.0703842 0)
(-0.124536 -6.34246 0)
(-7.5763 -7.55561 0)
(27.753 -12.8596 0)
(100.025 -30.0299 0)
(116.258 -28.3427 0)
(133.379 -34.2475 0)
(136.445 -26.9109 0)
(146.925 -17.486 0)
(126.948 -22.9379 0)
(150.712 -10.3686 0)
(137.889 -16.2367 0)
(111.242 -21.5681 0)
(120.81 -20.0321 0)
(112.431 -23.7104 0)
(96.0156 -15.0787 0)
(131.164 -10.8635 0)
(90.7909 -0.158781 0)
(112.21 -15.0282 0)
(97.4678 -10.9482 0)
(124.493 -9.3008 0)
(106.966 -11.0936 0)
(112.26 -10.2526 0)
(116.663 -8.6244 0)
(106.94 -7.74359 0)
(124.848 -1.47091 0)
(67.1672 6.21166 0)
(116.893 -5.43135 0)
(103.251 -4.54692 0)
(117.551 -3.95223 0)
(109.509 -3.98643 0)
(118.589 -2.51987 0)
(109.125 -1.98863 0)
(55.0252 3.67362 0)
(108.587 -1.02264 0)
(94.8995 2.94396 0)
(107.514 1.67464 0)
(118.855 -0.619408 0)
(113.413 -0.0893887 0)
(110.516 1.31621 0)
(110.818 1.78276 0)
(115.263 0.839629 0)
(114.963 1.42033 0)
(112.141 -2.93901 0)
(117.492 1.47705 0)
(111.082 4.44286 0)
(113.467 4.53018 0)
(119.491 2.88645 0)
(119.479 2.38593 0)
(12.3985 3.81271 0)
(116.954 5.75659 0)
(113.633 7.28526 0)
(112.435 8.01538 0)
(120.551 6.14922 0)
(116.022 1.5694 0)
(124.609 2.91184 0)
(119.202 10.0913 0)
(107.749 0.0157521 0)
(105.094 11.7562 0)
(100.719 7.99625 0)
(122.03 11.2272 0)
(125.208 10.22 0)
(130.513 1.63668 0)
(128.543 10.1384 0)
(127.363 14.2415 0)
(120.211 22.5134 0)
(132.021 5.30306 0)
(134.05 6.77887 0)
(305.333 -9.63143 0)
(308.022 -16.0294 0)
(282.425 -12.9614 0)
(277.843 -39.4146 0)
(262.268 -43.4806 0)
(250.228 -38.9266 0)
(239.812 -23.7306 0)
(245.383 -8.45897 0)
(230.123 -35.2465 0)
(224.496 -51.9074 0)
(199.046 -35.0987 0)
(189.869 -40.5534 0)
(188.047 -27.7814 0)
(179.249 -35.4113 0)
(167.656 -33.0916 0)
(167.642 -26.8118 0)
(164.431 -13.3362 0)
(156.581 -25.908 0)
(158.458 -22.0409 0)
(138.396 -34.641 0)
(153.219 -16.1081 0)
(392.946 -1.44575 0)
(387.562 -3.78629 0)
(393.86 -2.62674 0)
(320.629 -6.30499 0)
(390.231 -2.82858 0)
(378.85 -4.78864 0)
(375.465 -7.04509 0)
(370.631 -3.26604 0)
(366.821 -1.83289 0)
(335.659 -10.7903 0)
(351.588 -10.4464 0)
(347.331 -14.323 0)
(324.278 -31.4989 0)
(410.442 0.817104 0)
(439.234 0.65283 0)
(436.284 1.22665 0)
(433.228 0.952185 0)
(431.066 -5.5903 0)
(437.581 3.66731 0)
(422.183 2.89229 0)
(427.901 -2.41885 0)
(425.241 0.572459 0)
(419.057 0.667142 0)
(425.222 10.1176 0)
(424.759 1.14675 0)
(418.387 0.628626 0)
(408.575 -0.3007 0)
(386.605 3.54184 0)
(443.529 0.188154 0)
(442.402 -0.0370982 0)
(441.827 -4.23138 0)
(442.485 -0.0259956 0)
(442.467 -0.0183668 0)
(425.112 1.41373 0)
(419.8 -2.8859 0)
(437.949 3.76733 0)
(441.542 0.0526968 0)
(440.601 2.67287 0)
(441.131 0.123012 0)
(423.801 -2.05254 0)
(427.215 0.624107 0)
(438.881 -7.20865 0)
(423.861 3.86604 0)
(363.641 13.5028 0)
(445.283 -0.184806 0.0032258)
(343.16 16.7558 0)
(445.808 0.0527479 0)
(397.933 -0.0868849 0)
(445.65 0.0515343 0)
(443.018 0.226185 0)
(404.948 7.88306 0)
(430.668 -3.05624 0)
(443.358 -1.77024 0)
(446.462 -3.13509 0)
(444.125 1.54752 0)
(438.505 -0.380643 0)
(443.618 -0.0255714 0)
(444.874 0.0386147 0)
(444.627 -1.30034 0)
(445.708 -2.08497 0)
(444.815 0.00345988 0)
(447.245 -6.08896 0)
(448.353 2.94666 0)
(440.641 0.882044 0)
(444.405 0.00146901 0)
(418.363 -0.112961 0)
(443.874 -0.00825071 0)
(443.569 -0.0195711 0)
(432.612 -1.66891 0)
(438.637 2.0085 0)
(387.201 1.95504 0)
(444.008 -2.70095 0)
(443.56 -1.01164 0)
(413.586 -2.14598 0)
(442.764 -0.0601506 0)
(440.66 0.311829 0)
(424.088 0.306683 0)
(451.327 -1.90415 0)
(413.462 3.47217 0)
(444.309 -0.459769 0)
(446.558 0.199066 0)
(447.104 0.010509 0)
(447.88 -0.656457 0)
(447.312 0.00859657 0)
(385.07 -2.69553 0)
(381.605 2.95016 0)
(449.225 3.57305 0)
(446.917 0.0183819 0)
(447.43 0.00398843 0)
(408.077 -1.6169 0)
(447.187 0.012184 0)
(386.851 6.69223 0)
(448.79 -13.775 0)
(444.331 -0.585698 0)
(433.324 -0.495195 0)
(446.672 2.1546 0)
(436.47 -1.25291 0)
(413.871 -5.20145 0)
(445.748 -0.180688 0)
(446.614 0.0288741 0)
(445.904 -0.127941 0)
(382.695 8.00389 0)
(384.766 -12.6645 0)
(445.664 -4.7488 0)
(446.575 0.979836 0)
(446.421 0.036023 0)
(424.285 -3.87267 0)
(443.364 -1.16066 0)
(446.391 0.0315488 0)
(357.895 26.3861 0)
(437.146 -2.58282 0)
(431.204 5.08094 0)
(448.007 0.0822574 -0.0715053)
(447.957 0.00465156 0.011513)
(452.302 0.77428 -1.14792)
(450.359 2.75444 -0.289504)
(448.764 -1.0728 2.10549)
(450.559 -0.966049 0.0168625)
(448.165 0.0233944 0.0642755)
(445.616 -1.76861 0.0308712)
(449.966 -2.03627 -0.0355433)
(448.695 -0.860621 -0.774907)
(443.922 -3.3943 -0.0592478)
(440.711 -1.6554 0.807392)
(388.687 -6.96606 0)
(430.639 0.71444 0)
(422.193 3.95717 0)
(448.022 -0.989828 0)
(439.835 -12.6459 0)
(447.086 0.347277 0)
(441.282 -14.174 0)
(447.954 0.00257278 0)
(448.037 0.0178201 0)
(429.914 0.786661 0)
(400.723 6.63792 0)
(440.829 -6.51817 0)
(450.82 -3.9269 0)
(447.987 0.00226903 0)
(446.422 1.25105 0)
(419.711 2.17741 0)
(419.982 3.49132 0)
(426.539 -1.72293 0)
(444.493 -1.92843 0)
(444.296 4.38471 0)
(430.841 7.59762 0)
(442.777 0.42705 0)
(447.149 -0.13995 0)
(430.776 -0.824711 0)
(447.197 -0.484722 0)
(447.697 0.00466774 0)
(422.145 -2.05068 0)
(432.817 1.75881 0)
(405.615 0.24097 0)
(422.672 4.20851 0)
(420.062 5.26242 0)
(399.184 0.0447401 0)
(447.885 -0.546089 0)
(447.54 0.00696346 0)
(447.92 0.00175189 0)
(405.646 0.566256 0)
(383.885 -7.81219 0)
(447.148 -0.831133 0)
(447.578 0.00673878 0)
(418.335 2.17716 0)
(447.825 0.00315318 0)
(447.444 0.00684005 0)
(377.814 -17.4118 0)
(447.356 -0.809228 0)
(420.362 -2.20926 0)
(446.673 -0.31794 0)
(446.137 -8.20694 0)
(410.054 -0.759554 0)
(393.95 -0.764119 0)
(447.361 0.00856985 0)
(448.805 -1.93957 0)
(407.921 -3.80311 0)
(447.644 0.00476731 0)
(425.444 -0.614337 0)
(387.6 3.90904 0)
(447.507 0.00629362 0)
(421.659 -4.46036 0)
(440.845 -4.32166 0)
(447.874 0.708893 0)
(431.946 0.682688 0)
(390.32 -2.34623 0)
(447.607 0.00495771 0)
(447.312 0.00759882 0)
(447.415 0.00681727 0)
(447.983 -1.26056 0.110285)
(449.103 -1.66166 0.0290045)
(446.307 -2.03449 0.0355121)
(446.88 -0.204087 -0.339658)
(448.005 0.307819 0.40849)
(449.027 -1.03633 -0.0180892)
(448.116 -0.0992318 0.0017321)
(447.091 0.486402 -1.04309)
(448.048 -0.0683042 0.00119226)
(448.133 -0.294248 -0.00513611)
(450.416 -3.33332 0.0581833)
(444.767 -2.69094 -0.0469705)
(343.982 -0.863588 0)
(447.727 -0.0187998 -0.133768)
(391.469 5.82805 0)
(388.823 5.17026 0)
(432.931 -2.27083 0)
(370.403 8.81758 0)
(446.083 -5.632 0)
(379.639 15.4179 0)
(450.264 -0.0673991 0)
(422.609 1.62294 0)
(447.31 1.62151 0)
(449.176 -1.91987 0)
(408.312 -4.89145 0)
(406.139 -0.638489 0)
(406.752 0.392214 0)
(469.586 -12.996 0)
(443.899 2.14831 0)
(407.876 -2.38218 0)
(429.837 -0.294773 0)
(416.363 0.637838 0)
(367.766 11.8611 0)
(410.613 -3.41941 0)
(428.37 0.289231 0)
(384.005 6.36551 0)
(450.056 0.177047 0)
(402.688 -1.98247 0)
(415.32 -0.419019 0)
(413.734 0.709051 0)
(445.02 -1.7461 0)
(439.608 0.752177 0)
(444.792 3.1096 0)
(328.349 0.445187 0)
(438.328 -1.07792 0)
(374.328 -3.7557 0)
(406.929 0.129851 0)
(405.097 -1.85919 0)
(357.483 5.64993 0)
(447.913 -0.760393 0)
(438.455 -2.07364 0)
(443.453 -1.15756 0)
(390.656 5.39487 0)
(432.236 -4.67871 0)
(385.415 5.82115 0)
(382.365 5.52122 0)
(444.89 0.974216 0)
(411.91 0.50568 0)
(408.247 -0.987099 0)
(426.572 0.123673 0)
(447.99 0.221015 0)
(439.298 -1.9361 0)
(421.672 -4.25065 0)
(448.961 1.26176 0)
(425.665 -0.129362 0)
(390.601 4.80498 0)
(420.04 0.255 0)
(405.791 -3.99307 0)
(401.836 -2.46725 0)
(442.919 -5.58088 0)
(449.063 -2.74792 0)
(454.634 -3.04868 0)
(447.462 2.27061 0)
(443.654 0.575365 0)
(447.996 0.00166622 0)
(432.604 3.67862 0)
(447.115 -0.0384987 0)
(454.466 -2.26484 0)
(443.749 -0.118003 0)
(426.701 0.106069 0)
(448.328 -1.57853 0)
(443.869 3.06917 0)
(415.906 0.94732 0)
(419.009 0.694662 0)
(448.031 0.00173129 0)
(450.214 -1.40176 0)
(448.015 2.35824 0)
(448.023 0.00180733 0)
(448.988 -0.350627 0)
(447.896 0.00298437 0)
(433.062 1.28841 0)
(401.806 3.15861 0)
(449.895 -3.26843 0)
(450.561 0.333088 0.576925)
(443.826 -1.82043 -1.69758)
(444.854 -1.18879 0.0207504)
(450.517 -0.864583 0.0150914)
(440.186 -1.33261 -0.0232609)
(446.48 -1.8315 0.0319689)
(448.598 -0.360449 0.00629166)
(448.558 -2.11461 -0.0738438)
(448.466 -0.118276 0.00206452)
(447.818 -0.0265824 0.000463997)
(448.595 -0.770323 -0.013446)
(448.114 -0.151775 0.00264924)
(448.665 0.580545 0.560626)
(447.746 -0.212765 -0.695922)
(447.007 -2.26351 0.0395096)
(450.085 -1.35293 0.0236154)
(446.372 -0.0632665 -0.00110432)
(449.163 -0.69828 -1.43169)
(450.358 -3.39978 0.0593434)
(446.409 -0.606236 -0.49092)
(450.877 0.467626 0.327435)
(448.721 -0.339281 0.00592217)
(447.37 -0.0590538 0.162249)
(445.284 -0.684717 -0.638509)
(449.647 -0.499231 -0.44951)
(446.384 -2.02887 -6.24421)
(450.672 -1.33523 0.0233065)
(446.748 0.575455 -0.886124)
(447.42 0.891845 2.5901)
(447.342 -1.45035 0.0253159)
(369.327 6.63514 0)
(404.283 -2.73253 0)
(385.53 3.38784 0)
(430.819 -1.61511 0)
(434.279 0.584998 0)
(425.667 -5.46542 0)
(432.629 0.079989 0)
(447.704 -2.38837 0.0416892)
(374.198 -1.91369 0)
(393.798 -5.01707 0)
(354.416 17.2436 0)
(433.395 -2.30394 0)
(413.949 -2.23783 0)
(386.697 -1.89207 0)
(419.92 0.499369 0)
(378.411 4.88753 0)
(351.679 4.19562 0)
(392.765 -2.50922 0)
(389.916 7.12097 0)
(442.089 3.95798 0)
(281.591 4.09167 0)
(384.169 10.5235 0)
(419.278 9.78564 0)
(401.751 0.393859 0)
(398.601 13.4884 0)
(394.724 0.154792 0)
(382.555 -0.752935 0)
(413.062 1.91575 0)
(416.181 -0.928992 0)
(392.933 -0.692368 0)
(427.728 -4.51321 0)
(409.153 -2.67919 0)
(437.346 -13.5107 0)
(420.879 3.86711 0)
(446.125 -4.65992 0)
(362.729 -8.44164 0)
(443.03 3.9888 0)
(408.323 0.145382 0)
(408.75 -2.09483 0)
(354.405 7.70057 0)
(396.048 7.20794 0)
(380.339 3.90608 0)
(382.12 11.2088 0)
(417.416 1.18616 0)
(422.051 -12.3952 0)
(429.842 3.02755 0)
(413.412 -2.65934 0)
(422.983 -0.91403 0)
(380.145 -3.00314 0)
(430.279 -0.282846 0)
(426.381 -1.53657 0)
(331.549 7.04516 0)
(452.828 -13.2346 0)
(372.455 -0.863208 0)
(401.659 -1.94563 0)
(402.493 0.446134 0)
(448.34 2.23005 0)
(430.26 -1.79791 0)
(404.433 5.46833 0)
(447.874 -1.58533 0)
(431.969 -0.68954 0)
(397.827 0.0398869 0)
(441.445 0.140326 0)
(410.119 1.01327 0)
(418.836 1.76587 0)
(447.654 0.294342 0)
(379.543 -1.60054 0)
(436.961 -7.99221 0)
(450.973 -3.69706 0)
(360.32 8.48763 0)
(409.285 2.97139 0)
(344.254 1.84248 0)
(421.92 0.0923906 0)
(415.832 -0.873322 -0.0152439)
(425.792 -4.6142 -0.0805412)
(429.356 -1.27805 -0.0223084)
(441.181 -1.36584 -0.0238409)
(425.824 -1.25906 0.021977)
(422.655 -0.114044 -1.08506)
(445.391 -0.343991 0.00600439)
(410.537 -0.740702 0.012929)
(436.203 -0.502451 0.406877)
(427.202 -1.08881 0.0190052)
(445.197 -1.00544 -0.426785)
(441.83 0.319577 0.92812)
(445.027 -0.00201075 -3.50978e-05)
(446.912 -0.224895 -0.00392556)
(432.109 -0.0035686 6.22901e-05)
(425.417 -1.76782 -0.0308575)
(423.688 -1.76215 -5.76373)
(427.089 -2.90535 3.46246)
(450.359 -0.574829 -0.0100337)
(434.739 -1.0711 -0.0186962)
(444.18 -0.495058 -0.00864126)
(444.928 -0.156791 -0.0027368)
(433.689 -0.544847 1.22375)
(429.736 -0.0125534 -0.00021912)
(447.296 -0.247107 -2.01252)
(441.651 0.407435 0.799635)
(448.914 -0.177387 2.02755)
(415.805 1.32565 -2.49318)
(409.958 -0.749638 -0.013085)
(448.024 -0.882128 -0.0153976)
(423.861 -0.561867 0.00980742)
(446.901 -0.0701179 0.00122391)
(423.763 0.890878 -0.671325)
(419.384 -7.01859 -0.12251)
(413.545 1.88693 7.04213)
(447.495 -1.23705 0.550769)
(412.364 0.0302145 0.112762)
(420.736 -5.99095 0.104572)
(431.88 -1.86023 -0.0324705)
(421.456 -4.3057 -0.0751562)
(418.058 -0.85527 -0.0149288)
(444.118 -3.92184 0.068456)
(428.223 -3.45647 0.060333)
(413.808 4.97732 4.4816)
(440.432 -0.252405 0.00440574)
(422.92 -1.2137 -0.0211852)
(447.8 -0.0391839 -0.00904632)
(427.425 -6.488 0.113249)
(429.151 1.7412 5.05681)
(447.552 -0.379209 0.00661911)
(416.882 -0.806314 -1.65319)
(415.597 -3.59746 -0.0627938)
(424.067 -17.8201 0.311051)
(407.022 -0.449606 0.0078479)
(412.447 -0.0446761 0.000779824)
(448.773 0.501062 1.45519)
(444.328 0.0660824 -0.538198)
(439.003 -2.06452 -0.0360364)
(416.083 -0.0876588 0.00153009)
(445.94 0.0522338 -0.0365745)
(438.027 -2.7637 0.0482405)
(448.228 -0.825963 -0.0144172)
(447.897 -0.370877 0.00647369)
(439.617 -8.5846 -0.149845)
(446.329 -3.4748 0.0606529)
(442.077 0.149825 -0.013108)
(413.353 -12.9596 -0.226211)
(440.107 -1.86154 0.0324934)
(429.495 -10.9717 -0.191512)
(445.067 0.51681 1.50092)
(440.857 1.987 -7.41559)
(433.11 -3.23205 -0.0564157)
(419.173 -2.12186 4.35045)
(446.402 -3.82897 -1.70477)
(452.113 -4.09926 0.0715529)
(411.452 -2.65864 0.0464067)
(415.965 -5.80602 0.101344)
(448.02 -0.0639987 -0.0011171)
(432.152 -6.23877 5.05206)
(342.138 5.8743 0)
(340.725 -5.37778 0)
(336.078 -0.714055 0)
(352.644 -10.4639 0)
(324.178 -15.1124 0)
(318.724 6.18935 0)
(358.378 11.1612 0)
(374.926 -16.5346 0)
(388.102 -6.66949 0)
(393.878 -9.93617 0)
(358.022 1.41545 0)
(385.311 5.24569 0)
(391.776 -4.20593 0)
(379.176 -16.3431 0)
(378.043 0.00679057 0)
(391.83 3.37859 0)
(339.786 22.4339 0)
(386.883 -22.8954 0)
(421.094 8.94208 0)
(378.302 -8.02917 0)
(379.07 5.52917 0)
(373.894 5.96989 0)
(405.337 3.26191 0)
(386.387 -0.753031 0)
(396.365 -0.825845 0)
(392.908 -3.07397 0)
(372.947 -5.66603 0)
(365.7 6.53338 0)
(400.809 0.275546 0)
(396.145 -0.479715 0)
(408.281 -1.13126 0)
(320.419 -20.1816 0)
(406.268 -0.825783 0)
(338.193 9.37464 0)
(380.262 -8.14081 0)
(367.003 7.40758 0)
(406.225 -0.820021 0)
(353.667 -5.09003 0)
(356.775 6.69563 0)
(402.705 1.21804 0)
(386.27 -0.228779 0)
(391.933 2.99637 0)
(407.357 -3.88611 0)
(432.816 -4.95335 0)
(363.666 -5.30085 0)
(373.629 5.00247 0)
(328.004 -1.41541 0)
(432.421 -2.9882 0)
(385.677 6.26069 0)
(377.22 -3.31045 0)
(387.996 -8.86001 0)
(293.661 6.3385 0)
(377.93 1.51914 0)
(387.956 -3.55442 0)
(283.513 15.3266 0)
(425.227 0.856447 0)
(398.814 3.87444 0)
(416.598 -7.02333 0)
(404.711 1.38326 0)
(357.983 -0.0136301 0)
(421.207 -3.25356 0)
(385.337 -0.538228 0)
(412.697 -1.02817 0)
(360.487 1.07152 0)
(429.778 11.1596 0)
(344.865 0.832248 0)
(429.29 -0.409577 0)
(350.712 8.27881 0)
(406.201 -5.81802 0)
(384.391 1.73503 0)
(405.289 2.79915 0)
(294.926 23.3561 0)
(411.73 2.96342 0)
(380.173 5.87465 0)
(361.082 -0.641808 0)
(426.211 -17.1148 0)
(365.025 -5.65038 0)
(439.741 4.25111 0)
(432.618 -4.35839 0)
(410.229 0.80635 0)
(407.822 1.4867 0)
(395.449 0.948787 0)
(319.775 8.75285 0)
(396.486 2.33829 0)
(345.57 8.06401 0)
(339.262 3.78773 0)
(420.713 -10.9653 0)
(394.65 -15.2157 0)
(346.937 15.0259 0)
(411.733 6.61758 0)
(404.58 11.6163 0)
(361.042 2.01042 0)
(418.591 0.304882 0)
(399.589 3.43037 0)
(409.916 0.932965 0)
(372.921 9.92696 0)
(385.897 0.0362229 0)
(426.329 0.544919 0)
(424.491 1.61871 0)
(407.396 4.82624 0)
(370.149 -0.075484 0)
(389.447 5.87598 0)
(446.804 0.248669 0)
(423.092 0.0615184 0)
(312.529 4.46228 0)
(368.645 -23.5614 0)
(418.289 -0.473128 0)
(398.164 2.94229 0)
(372.405 1.30694 0)
(447.454 -0.243677 -0.0042534)
(424.555 0.134605 0)
(412.172 0.899305 0)
(392.265 1.72211 0)
(379.912 0.176053 0)
(450.785 -2.29315 0)
(421.287 0.742313 0)
(447.963 0.0492331 -0.0344734)
(402.945 1.36833 0)
(394.549 0.358192 0)
(439.482 -5.81493 0)
(372.504 -6.14721 0)
(437.575 -0.535028 0)
(412.018 -0.177414 0)
(370.532 -0.757849 0)
(405.919 6.39319 0)
(429.243 -1.87692 0)
(447.275 3.42437 0)
(447.645 0.186007 0)
(371.392 -0.91864 0)
(423.348 -0.118423 0)
(411.74 -1.62078 0)
(397.001 0.124393 0)
(420.011 -4.54984 0)
(421.015 -4.07825 0)
(398.39 4.38154 0)
(395.79 1.92263 0)
(383.175 -1.49073 0)
(387.027 -2.17436 0)
(395.225 4.6337 0)
(366.92 -36.4105 0.635548)
(380.019 -2.89031 -0.0504505)
(379.723 -0.848998 -0.0148193)
(364.603 -3.31405 -0.0578469)
(386.552 0.143968 -0.282554)
(387.378 7.17098 -1.00782)
(381.491 0.766892 2.86208)
(373.434 -6.19377 0.108113)
(399.209 8.51167 0)
(390.486 -0.594513 -1.82972)
(362.873 -3.25804 0.0568694)
(389.749 -6.61235 -0.115419)
(364.979 -2.16857 0.0378526)
(386.111 -3.71977 1.28082)
(379.708 -5.67094 0.0989866)
(389.183 -2.05632 -0.0358931)
(374.541 -6.5177 -0.113767)
(361.795 -0.691225 0.0120654)
(382.643 4.45432 13.709)
(394.312 -4.81846 -0.0841066)
(375.342 -8.73206 0.152419)
(308.27 -3.66942 0.0640499)
(374.989 -1.42074 -0.0247991)
(382.096 -6.09478 -0.106385)
(376.126 -22.6635 0.395593)
(376.642 -1.1282 1.55284)
(376.071 -0.00229987 0.00207081)
(330.469 -4.59701 6.32724)
(350.974 -3.42608 0.0598024)
(339.71 0.178471 0.549277)
(369.544 1.49423 1.16742)
(376.307 -0.273542 -0.00477468)
(388.866 -2.9165 0.0509077)
(376.79 -20.0703 0.350329)
(372.739 -11.339 -0.197923)
(376.14 -1.87119 -2.23)
(386.244 -5.16157 6.15132)
(393.834 -0.934821 1.07539)
(343.826 -3.27563 0.0571763)
(357.164 -8.95009 0.156224)
(353.775 -3.45179 0.0602512)
(380.308 -0.0201275 0.000351328)
(372.981 -8.81206 0.153815)
(389.821 -0.242559 -0.00423387)
(381.602 -3.43628 -0.0599805)
(373.274 -7.6236 -3.23602)
(378.997 -1.67684 -1.35788)
(397.095 -0.888216 0.0155039)
(354.997 -2.14425 -2.74452)
(394.34 1.75732 -3.44894)
(359.92 -2.81514 -0.0491385)
(367.696 -2.11459 -0.0369103)
(365.151 -6.36562 -0.111112)
(349.624 11.1912 7.83613)
(368.996 -0.0853943 0.00149056)
(357.886 0.567184 -4.61934)
(370.218 -0.0110778 -0.000193364)
(388.099 -3.79645 0.0662673)
(351.472 -1.67246 5.47036)
(366.373 0.322898 0.993779)
(385.398 -10.3681 -0.180976)
(399.225 -1.90957 3.74775)
(392.525 -6.42429 2.86028)
(342.276 0.272217 2.58997)
(361.911 -2.54458 0.0444158)
(381.617 -1.07452 0.870127)
(378.059 -2.71725 -8.36284)
(356.567 -0.8069 -5.74139)
(370.675 -9.75725 0.170313)
(376.672 0.00403325 -0.0117134)
(349.666 -0.277078 0.00483641)
(375.418 -6.66787 -0.116388)
(353.555 -1.16445 -0.0203256)
(388.887 -8.51385 0.14861)
(369.945 -3.27272 0.0571256)
(372.127 -0.429528 0.00749744)
(365.619 -8.40429 1.94028)
(365.95 -2.20288 -0.0384515)
(383.751 0.0120237 0.044873)
(368.886 -1.58588 -0.0276816)
(381.195 -3.76662 10.939)
(368.34 -0.487235 0.00850472)
(409.552 -1.16066 -0.0202593)
(382.152 -10.0895 0.176112)
(373.818 -13.3026 -0.232197)
(405.485 -0.501238 -4.08225)
(369.608 -8.40768 -0.146757)
(397.18 -0.471374 -0.00822786)
(341.814 -1.48895 -4.58252)
(364.272 -7.68421 -0.134128)
(356.706 -15.1149 0.263832)
(392.281 -4.17708 -0.0729111)
(408.798 -0.810132 -0.0141409)
(371.549 1.27659 0.893876)
(359.582 -0.051186 -0.364207)
(400.037 -3.1443 -0.054884)
(374.499 -9.20997 0.160761)
(396.979 -20.7958 -0.362991)
(385.983 -0.348588 0.00608462)
(373.236 -1.4276 -0.0249188)
(384.521 -1.74234 0.0304126)
(359.311 -6.65407 0.116147)
(388.15 -3.60822 -7.39796)
(387.661 -9.64735 0.168395)
(367.432 -0.332444 -0.00580283)
(385.366 -4.60989 0.080466)
(381.446 -13.4321 -0.234458)
(382.919 -0.0483536 -0.000844015)
(398.253 -5.7779 16.7802)
(400.196 -5.78141 0.100915)
(361.569 -1.33852 0.023364)
(387.572 -2.35598 -0.0411237)
(396.15 4.29318 -3.00612)
(396.753 -4.93937 0.086217)
(369.253 -9.47169 -0.165329)
(376.232 -5.0154 -0.0875441)
(369.696 -0.19753 0.0034479)
(386.757 -13.0089 0.227071)
(399.828 -2.05838 0.0359292)
(360.177 -3.90762 -0.0682077)
(396.909 -2.81243 -5.51971)
(377.678 -5.51667 0.0962938)
(369.017 -0.498658 -0.00870411)
(403.414 -3.65574 -0.0638111)
(385.94 -4.54188 -0.0792788)
(405.286 -0.33651 -0.00587381)
(377.577 -4.91694 -0.0858255)
(384.441 -14.8185 -0.258658)
(369.176 -4.16157 0.0726404)
(392.549 -9.61662 0)
(395.603 0.580893 -0.0816391)
(393.579 -2.08772 -0.0364413)
(354.649 -0.270833 2.20576)
(364.62 -3.03132 -0.0529118)
(395.925 -0.172989 -0.00301954)
(379.486 -0.524318 1.71497)
(353.15 -7.288 0.127213)
(405.457 7.69608 15.1044)
(399.486 -1.82037 0.0317748)
(394.346 -8.77364 0.153144)
(410.363 -1.21345 -0.0211809)
(391.839 -3.35705 -0.0585975)
(387.436 -4.66032 0.0813461)
(363.196 0.562799 -4.58363)
(378.016 19.685 17.7245)
(362.442 -2.18873 0.0382045)
(406.184 -2.38163 0.0415714)
(366.814 -6.46958 -0.112927)
(381.707 -0.84964 -0.0148305)
(392.172 -4.64075 -5.53063)
(359.899 -0.299117 0.00522112)
(376.646 -2.0764 -0.0362437)
(391.836 7.40506 -21.5058)
(405.737 0.427669 -0.385075)
(373.477 -3.87899 1.48901)
(360.924 -9.58313 0.167274)
(382.93 -6.55658 7.81383)
(401.727 -1.92176 -0.0335444)
(357.342 -2.24475 -0.0391822)
(359.911 -1.29575 -0.0226174)
(389.424 -11.2111 -32.5595)
(397.503 3.18741 0.33501)
(379.616 -5.10932 -0.0891834)
(381.951 -1.34657 -0.0235045)
(362.751 -0.027581 -0.000481428)
(364.31 -7.04774 -0.123019)
(402.392 -9.84029 -11.32)
(366.156 -2.60771 -0.0455178)
(394.897 1.66041 6.19674)
(410.511 -0.889829 -0.015532)
(362.107 -25.8064 0.450452)
(363.394 -1.04677 0.0182714)
(382.659 -11.5855 -9.38177)
(404.056 -0.93584 0.0163351)
(365.312 -10.2991 -0.179772)
(403.12 -15.0304 -0.262357)
(381.828 0.224914 0.157486)
(403.131 -3.40818 0.05949)
(405.457 -0.881806 -0.015392)
(373.409 -0.886922 7.2234)
(373.032 -24.3788 0.425534)
(393.439 -14.2163 -0.248146)
(404.89 -1.96839 -0.0343585)
(368.553 13.081 8.82324)
(403.885 -1.53247 -0.0267494)
(362.328 -0.193687 0.00338082)
(400.263 -1.12501 0.0196372)
(351.815 -1.08519 1.95773)
(348.588 14.2071 -9.94791)
(387.624 -2.82334 1.19844)
(416.398 -0.815711 2.369)
(417.95 -5.66597 -0.0988998)
(261.909 20.3089 0)
(384.55 -0.352341 -0.00615013)
(368.464 9.26977 -2.1401)
(288.877 1.26863 0)
(316.834 3.19162 0)
(318.126 8.67446 0)
(338.422 0.737663 0)
(354.446 -32.4095 0)
(340.33 0.99679 0)
(259.307 23.3203 0)
(257.51 -17.2805 0)
(344.571 9.48086 0)
(308.732 -2.11462 0)
(358.219 -1.92504 0)
(308.33 2.87345 0)
(362.534 -4.65858 0)
(322.902 2.02082 0)
(333.636 17.8762 0)
(352.938 2.67651 0)
(361.662 1.28662 0)
(347.193 -0.383146 0)
(362.181 0.807523 0)
(318.878 -0.648347 0)
(345.897 -0.181673 0)
(326.016 -5.41976 0)
(279.193 15.6322 0)
(350.222 -0.886476 0)
(357.254 -0.878594 0)
(353.945 -1.75798 0)
(329.706 10.6517 0)
(337.374 -0.268152 0)
(368.507 -14.8325 0)
(354.232 0.62253 0)
(344.352 0.999348 0)
(354.648 0.108192 0)
(318.252 25.4498 0)
(363.746 2.02605 0)
(361.158 -2.44838 0)
(335.658 1.93412 0)
(363.5 -1.20007 0)
(317.298 0.0530869 0)
(325.212 0.824808 0)
(367.873 -0.34762 0)
(362.373 -0.439585 0)
(335.539 2.07179 0)
(365.102 10.8494 0)
(376.663 -2.57442 0.0449367)
(384.471 23.5222 0)
(358.475 0.748002 0)
(346.821 0.629581 0)
(361.158 -4.43037 0)
(360.064 0.102529 0)
(361.905 1.28869 0)
(301.103 -0.794435 0)
(363.654 -0.214072 0)
(371.819 1.07766 0)
(364.914 -2.3814 0)
(351.018 -0.106201 0)
(341.852 -10.0559 0)
(402.369 -25.552 0.446012)
(325.484 6.50538 0)
(367.917 0.872895 0)
(309.471 -15.5948 0)
(364.735 -1.95101 0)
(369.112 -0.55219 0)
(364.138 -1.34998 0)
(362.344 0.0448076 0)
(371.139 2.36407 0)
(377.767 -5.30068 0)
(336.504 10.7948 0)
(366.858 10.932 0)
(374.832 2.55209 0)
(376.442 1.04693 0)
(365.312 4.51832 0)
(372.027 0.496211 0)
(347.992 8.68133 0)
(374.814 4.2004 0)
(408.364 -1.54091 4.74242)
(360.741 -0.780814 0)
(353.444 12.5109 0)
(368.683 -1.8742 0)
(311.736 18.1446 0)
(373.588 -0.436403 0)
(378.726 0.297974 0)
(263.611 20.6274 0)
(354.653 -12.5613 0.219259)
(408.706 -0.033667 -0.00058766)
(344.037 4.23854 0)
(380.046 -7.09744 0)
(381.949 -3.05465 0)
(383.769 0.950208 0)
(364.722 16.5723 0)
(297.059 8.73853 0)
(299.769 1.60126 0)
(309.634 10.4162 0)
(298.829 16.3931 0)
(327.1 7.29564 0)
(377.714 -8.16887 0)
(332.112 19.3719 0)
(362.343 0.101612 0)
(379.435 -0.247544 0)
(374.453 -0.674142 0)
(374.699 4.66837 0)
(330.383 -0.0214755 0)
(381.505 -2.66979 0)
(338.393 8.07319 0)
(398.7 -11.6741 0)
(369.116 -6.53038 0)
(333.744 16.8492 0)
(356.641 3.82234 0)
(351.771 -0.0673898 0)
(391.155 -0.168891 0)
(394.362 -1.37318 0)
(375.922 3.50929 0)
(381.215 -1.95856 0)
(377.313 1.00376 0)
(395.371 -1.24115 0)
(382.39 -20.2751 0)
(383.92 0.790061 0)
(382.479 -0.320831 0)
(398.068 5.17489 0)
(337.224 2.2209 0)
(393.029 -1.56659 0)
(386.071 -0.125923 0)
(332.754 27.7609 0)
(357.222 -6.85813 0)
(374.368 -2.10497 0)
(347.227 -2.8621 0)
(381.994 -2.19075 0)
(389.24 -3.98759 0)
(371.22 0.285225 0)
(353.1 6.36649 0)
(358.026 3.3064 0)
(309.4 -1.18021 0)
(391.15 -1.56521 0)
(389.453 12.8792 0)
(378.254 16.4323 0)
(387.129 -1.97605 0)
(370.515 7.93595 0)
(366.879 -0.782719 0)
(378.691 -4.11878 0)
(399.089 7.60778 0)
(375.298 -4.13638 0)
(314.607 35.1121 0)
(408.098 -4.43457 0)
(378.789 2.82673 0)
(361.151 2.92066 0)
(349.255 -10.3306 0.180321)
(356.732 -8.10996 -0.14156)
(335.368 -3.06038 0.0534191)
(333.564 -9.78306e-05 1.70764e-06)
(344.618 10.5456 -7.11309)
(344.737 -2.29096 -0.0399888)
(330.21 -6.52986 -0.113979)
(345.133 -3.26168 0.0569329)
(356.786 1.014 -2.94488)
(345.676 -0.995872 0.017383)
(323.044 -14.0793 -0.245754)
(354.845 -6.74198 0.235435)
(340.454 -12.2673 -0.214127)
(351.071 -7.36607 -1.43182)
(343.186 -1.22217 0.0213331)
(333.17 -2.90759 -0.0507522)
(347.336 4.87775 -0.598913)
(342.293 -14.6062 0.254953)
(356.228 -2.3686 -7.74734)
(331.741 -5.70591 0.099597)
(356.943 3.60299 -2.52284)
(344.635 -2.11537 0.036924)
(339.343 -0.621814 -0.0108538)
(344.494 -1.30848 -0.0228396)
(330.034 -7.08213 -0.123619)
(365.274 -10.4067 -0.181649)
(343.442 -1.32644 -0.0231531)
(341.284 -5.98125 0.104403)
(318.69 -0.037173 0.000648856)
(317.944 0.454135 0.317989)
(333.842 5.06237 -1.74312)
(356.954 1.71433 -4.97877)
(333.767 -0.444364 0.0077564)
(338.822 -2.03352 6.65135)
(346.562 -0.195606 0.00341432)
(343.805 -2.42762 0.0423743)
(336.49 1.13801 0.889112)
(353.655 -11.3931 -0.198867)
(339.595 -7.25003 -0.12655)
(339.377 -3.70499 1.64957)
(339.13 0.0953489 0.678443)
(331.703 -13.7373 0.239786)
(346.124 -1.05177 -0.0183586)
(349.792 -2.71208 0.0473395)
(337.717 -4.18704 -0.073085)
(322.933 -1.27058 0.022178)
(350.704 0.548517 -0.398521)
(344.771 -1.79433 -2.46968)
(343.671 -7.20595 0.12578)
(338.881 -1.87397 -0.0327103)
(348.045 3.92777 2.75025)
(337.937 1.64521 -5.06344)
(343.551 8.67036 2.81717)
(343.753 -0.050319 -0.0213592)
(363.166 -6.74006 15.8786)
(336.01 -3.18123 0.734444)
(331.013 3.84996 2.69577)
(336.034 1.71622 -1.15761)
(335.191 0.732385 -2.25405)
(354.817 -0.875934 -0.0152895)
(332.524 -1.23644 0.550501)
(359.508 -8.66824 0.151305)
(353.999 -0.83676 -0.0146057)
(373.367 -23.8319 0.415987)
(340.004 -8.67733 4.04631)
(349.275 -4.30216 -0.0750944)
(347.614 -0.61946 -2.02616)
(351.629 -4.90729 2.08302)
(327.697 -1.25577 0.0219195)
(313.837 -12.9813 -0.226589)
(331.248 -0.356159 -0.00621679)
(339.993 -16.1829 -0.282474)
(317.532 -2.95114 0.0515124)
(320.688 -2.70311 -0.0471829)
(358.883 -2.63016 3.1345)
(368.369 -24.9662 -0.435787)
(330.163 -6.81682 0.118988)
(348.748 -3.99215 -0.0696833)
(353.867 1.50928 4.38326)
(345.721 -1.00749 -0.0175857)
(339.495 -0.0506369 -0.0696958)
(366.447 -8.74701 -0.15268)
(335.715 -0.864285 -0.0150861)
(337.988 -9.88788 -0.172594)
(356.374 -25.4341 -0.443954)
(337.993 -9.48536 -0.165568)
(343.027 -1.81423 -0.0316676)
(340.511 -0.0880976 0.00153775)
(343.623 -1.42521 0.634544)
(348.993 0.975656 -3.00276)
(348.471 -6.50403 0.113528)
(344.907 -14.7705 0.257821)
(347.248 0.0146424 0.00987641)
(342.786 -1.63068 -5.33371)
(352.914 1.19198 -3.46175)
(379.024 -2.89292 -9.46231)
(364.912 -8.07283 -0.140912)
(369.175 13.818 40.1304)
(346.643 3.83581 2.68587)
(325.62 -20.3282 0.35483)
(334.835 -14.2197 -0.248205)
(355.967 -0.110399 -0.00192702)
(366.764 -4.02784 -0.0703062)
(338.266 -9.06449 -0.158221)
(362.486 -2.29357 2.73337)
(318.996 10.8982 -7.63101)
(322.493 -8.94035 0.156054)
(349.89 -6.04304 7.20182)
(326.677 -13.7956 0.240803)
(332.095 -5.85308 -2.48449)
(317.927 -12.1205 -0.211563)
(352.046 -6.40024 0.111717)
(366.373 -0.973291 1.2916)
(335.124 -11.7489 -0.205078)
(334.174 -1.6457 -5.38283)
(340.639 -13.8376 -0.241537)
(349.637 3.86797 -11.2334)
(345.633 -8.33863 -0.145551)
(350.539 -4.53462 0.079152)
(353.965 -0.818343 -0.0142842)
(348.416 -1.63364 0.0285153)
(356.197 -0.0691884 0.00120769)
(312.217 -8.3708 0.146113)
(346.784 -1.46229 -0.0255243)
(335.482 -0.967346 -0.0168851)
(344.472 -3.09562 -0.0540343)
(370.068 -7.24067 0.126386)
(345.384 0.888059 -2.57911)
(313.864 -14.7726 -0.257857)
(351.931 -8.3482 0.145718)
(343.074 -9.41172 -0.164282)
(345.226 -17.5599 -7.45374)
(327.159 -4.68042 -0.081697)
(335.487 4.4648 3.01154)
(346.038 0.348403 -0.243954)
(377.821 7.22887 20.9942)
(348.062 -16.5778 0.289366)
(341.234 -15.2621 0.266401)
(362.935 -3.14301 -0.0548615)
(301.919 -20.8974 0.364766)
(330.464 -4.68693 0.163671)
(370.974 -6.36539 0.111108)
(350.127 -6.33588 0.110593)
(351.843 -3.91166 0.0682782)
(335.956 -8.51344 -0.148603)
(353.931 -0.654428 0.29137)
(324.899 16.352 0)
(369.611 -6.77636 -0.118282)
(342.475 -0.611815 -4.98284)
(354.042 1.08254 -0.845769)
(332.353 -2.51401 -0.0438823)
(348.942 -3.42701 11.2092)
(367.095 -17.462 0.3048)
(350.083 -2.66709 -0.0465542)
(356.534 -0.00555402 0.0170935)
(367.795 -19.3664 -0.338042)