/*--------------------------------*- C++ -*----------------------------------*\
  =========                 |
  \\      /  F ield         | OpenFOAM: The Open Source CFD Toolbox
   \\    /   O peration     | Website:  https://openfoam.org
    \\  /    A nd           | Version:  7
     \\/     M anipulation  |
\*---------------------------------------------------------------------------*/
FoamFile
{
    version     2.0;
    format      ascii;
    class       vectorField;
    location    "0.7/lagrangian/reactingCloud1";
    object      UTurb;
}
// * * * * * * * * * * * * * * * * * * * * * * * * * * * * * * * * * * * * * //


2453
(
(0 0 0)
(0 0 0)
(0 0 0)
(0 0 0)
(0 0 0)
(11.965 -17.1457 -0.504406)
(0 0 0)
(0 0 0)
(0 0 0)
(0.00681303 0.00255943 -0.00571724)
(-1.52176 -10.1685 -0.734453)
(0 0 0)
(0 0 0)
(0 0 0)
(0 0 0)
(0 0 0)
(0 0 0)
(0 0 0)
(0 0 0)
(0 0 0)
(0 0 0)
(0 0 0)
(0 0 0)
(0 0 0)
(0 0 0)
(9.16204 -5.90486 3.52086)
(0 0 0)
(0 0 0)
(-1.6995 0.0734604 -0.800474)
(0 0 0)
(0 0 0)
(0 0 0)
(0 0 0)
(0 0 0)
(0 0 0)
(0 0 0)
(0 0 0)
(0 0 0)
(0 0 0)
(0 0 0)
(0 0 0)
(0 0 0)
(0.766858 -4.01011 0.701056)
(-4.28858 -5.02423 -1.1355)
(5.87623 -9.6459 4.38387)
(3.29859 -3.98614 0.94164)
(-0.0672723 0.24871 1.01994)
(0.387424 -2.83496 -2.60914)
(0 0 0)
(0 0 0)
(0 0 0)
(0 0 0)
(0 0 0)
(-0.328137 -0.536469 -1.77199)
(0 0 0)
(1.36684 -4.4783 -3.56686)
(-3.7772 -0.257429 -1.79116)
(0 0 0)
(3.02262 10.3721 -1.45607)
(0 0 0)
(-3.85257 0.38971 -1.05522)
(0 0 0)
(0 0 0)
(0 0 0)
(0 0 0)
(0 0 0)
(0 0 0)
(-8.53587 5.93397 -1.0571)
(0 0 0)
(0.0290339 -0.170236 0.133434)
(0 0 0)
(0 0 0)
(0 0 0)
(0 0 0)
(2.87332 -0.514513 0.266554)
(0 0 0)
(0.0274095 0.000297412 0.00420886)
(0 0 0)
(0 0 0)
(0 0 0)
(0 0 0)
(0 0 0)
(0 0 0)
(0 0 0)
(3.84771 -7.36232 -1.89153)
(0 0 0)
(0 0 0)
(0 0 0)
(0 0 0)
(0 0 0)
(-2.56214 1.37101 0.707154)
(0 0 0)
(0 0 0)
(0 0 0)
(0 0 0)
(5.32142 -8.37383 2.47166)
(0 0 0)
(0 0 0)
(-3.72583 -12.8388 -2.22132)
(0.7453 -0.826052 -0.388616)
(-0.32031 -5.80292 0.840774)
(0 0 0)
(0 0 0)
(0 0 0)
(0 0 0)
(0 0 0)
(0 0 0)
(0 0 0)
(0 0 0)
(0 0 0)
(0.904774 5.74387 -1.61623)
(0 0 0)
(0.297699 0.273506 -0.0126109)
(0.119899 2.50698 -0.897638)
(-1.62837 1.38851 -2.42874)
(0 0 0)
(0 0 0)
(0 0 0)
(9.45379 -6.67189 -5.85223)
(0 0 0)
(0.233997 2.53246 -2.71856)
(0 0 0)
(0 0 0)
(0 0 0)
(0 0 0)
(0 0 0)
(0 0 0)
(0 0 0)
(-1.62539 -0.119576 2.50725)
(0 0 0)
(0 0 0)
(-0.0156058 -0.0561409 -0.0384564)
(0.693628 0.468212 1.25564)
(-0.0336344 -0.0128945 -0.0109143)
(0 0 0)
(-6.89188 -0.459853 -5.93371)
(-1.36332 -0.910627 0.0994139)
(0 0 0)
(0 0 0)
(-8.18454 1.8635 7.28392)
(0.307281 0.370456 -0.652532)
(-0.454251 -1.86706 -0.058649)
(5.4146 -15.0385 -2.61742)
(-0.254694 -0.194191 -0.794401)
(0 0 0)
(-0.651305 -0.0819738 -6.91894)
(-0.832127 -0.919604 -0.489906)
(-3.47514 -7.24717 -4.10885)
(3.88441 1.60592 3.65445)
(0.828898 0.516376 0.677816)
(0.185743 -4.41477 -5.03738)
(0 0 0)
(-3.99369 -1.62666 0.492274)
(0.320362 8.23169 -0.982279)
(0 0 0)
(0 0 0)
(0 0 0)
(-6.90046 4.12548 -3.5866)
(2.1173 0.2986 -1.64735)
(0 0 0)
(0.691441 -4.14444 3.90435)
(0 0 0)
(0 0 0)
(-2.6617 1.56104 3.36414)
(-2.57594 -2.80391 3.39927)
(-2.1149 3.59713 -1.10617)
(0 0 0)
(0.362899 2.38258 0.494516)
(0 0 0)
(-0.551545 -2.49406 -0.820019)
(-4.50089 0.0445308 -3.83048)
(-0.55815 -7.7798 -1.59021)
(1.81215 2.95535 -7.03513)
(13.3875 12.328 -2.56044)
(-0.385516 -0.184834 0.00358608)
(-36.0396 17.2251 -1.10352)
(0 0 0)
(0.0449063 0.323994 -0.586952)
(0 0 0)
(-0.0953712 0.164125 -3.19632)
(-4.53745 8.19536 3.98908)
(-0.229799 -2.9662 0.323137)
(0.20794 -1.83174 -1.72145)
(2.64623 -3.21887 0.314177)
(-0.371075 1.48431 0.502189)
(-0.325745 -0.39953 0.981933)
(0.148833 -0.0786879 0.161537)
(0 0 0)
(0.0139002 -1.34854 -0.636552)
(1.565 -2.14501 0.983756)
(0 0 0)
(3.54877 -6.10022 -1.96557)
(6.01822 2.94746 -0.113218)
(-1.20817 0.896282 0.157668)
(0 0 0)
(-3.8553 0.138888 -6.06621)
(0 0 0)
(0 0 0)
(-1.53623 -1.50077 4.36222)
(-3.44915 2.0873 -4.74122)
(0.297357 2.56545 -1.83146)
(1.5622 -2.62604 0.895558)
(0.879486 -0.945309 3.04558)
(-1.17676 -1.74452 3.78919)
(0 0 0)
(-1.44735 0.41162 -1.75533)
(-8.03537 0.50818 1.35939)
(4.46139 -1.91735 1.52293)
(-11.0404 3.76068 -7.98953)
(-2.00439 -0.470602 -0.631528)
(-0.277803 0.186851 1.86072)
(0 0 0)
(0.94012 -0.670071 -0.392076)
(0 0 0)
(2.74614 -2.16311 -1.45678)
(-2.3006 3.4861 -8.44513)
(2.61534 3.54839 -3.12163)
(0 0 0)
(0 0 0)
(-5.64097 -1.24358 2.28724)
(0 0 0)
(-26.9114 7.05951 1.21725)
(2.08554 -13.7987 -0.679218)
(-1.7225 -0.628818 0.152203)
(-2.24729 -0.402934 -0.192403)
(0.423824 2.11234 -1.47168)
(-2.56796 -1.20882 2.63038)
(2.84702 -4.83942 2.39347)
(0.164481 -0.233443 -0.140968)
(0 0 0)
(-0.0492044 -0.178051 -0.263094)
(-3.75196 8.499 0.945531)
(-0.490662 -12.1689 16.759)
(3.021 -4.77277 -1.26109)
(0.457852 0.929813 1.10523)
(0 0 0)
(11.8224 -3.55259 -0.673677)
(-2.0162 -1.22971 -0.583089)
(0 0 0)
(-2.52399 26.2506 -1.3316)
(4.90758 -2.50367 2.41708)
(0.852117 5.17969 3.60291)
(-0.00295765 -0.108992 -0.0443266)
(-0.124555 -0.0124172 -0.0525298)
(4.30537 -1.38464 2.66281)
(2.2769 -2.76961 0.270327)
(0.784878 -2.36305 2.21024)
(2.6251 -0.966196 2.56592)
(0.129375 -0.0684006 0.140418)
(-2.32093 -1.76888 -1.34499)
(1.96774 -2.03658 0.774568)
(0.770297 -1.15808 -1.20318)
(-4.12594 -3.39482 4.12246)
(-7.34227 -1.8418 -3.45368)
(3.41091 -6.42813 4.02492)
(0.806227 0.98562 -3.15736)
(-0.0517371 4.32031 0.850764)
(0.272173 -0.993506 -7.27738)
(-2.486 -12.5588 -0.895169)
(-0.994321 0.347163 1.14905)
(-6.46915 -14.1777 1.15528)
(0 0 0)
(0.493227 0.0146649 0.533268)
(-0.992915 1.04198 -0.528579)
(-6.60837 7.1342 -0.676173)
(-6.54091 -6.51881 0.506805)
(3.16892 -3.9312 -3.89511)
(0 0 0)
(-1.04874 1.24781 2.36973)
(0.452202 2.56783 -4.07381)
(5.46165 3.92819 3.73664)
(7.08324 -1.33588 -2.12105)
(-0.141361 -1.88391 -1.30692)
(3.62667 4.49337 4.53183)
(1.30011 7.86485 -0.351647)
(1.74278 0.528905 0.0892346)
(-0.417204 -0.145342 -0.0175344)
(5.54154 -0.505347 0.135099)
(-0.325098 -0.489929 0.29505)
(0 0 0)
(10.4317 -1.59514 0.929058)
(2.39582 2.00945 3.69739)
(-1.23908 0.732733 -0.348173)
(-1.50902 4.53112 1.44956)
(6.28611 5.69464 -0.229566)
(7.23143 0.597855 -0.146986)
(0.50619 -0.553846 -0.236175)
(0 0 0)
(0 0 0)
(-2.36317 1.04499 -1.60596)
(-1.09986 -7.26482 5.97322)
(-0.152386 -0.839801 -0.146504)
(0 0 0)
(0.013045 2.56153 -0.231855)
(0 0 0)
(0 0 0)
(-6.05108 -16.8676 -9.15883)
(0.0323476 -0.818019 0.537359)
(-4.16063 -1.89896 0.526851)
(0.0417696 -0.318171 0.450378)
(0.955187 -8.18417 -4.06069)
(8.05055 -0.245528 2.22149)
(-2.09359 -0.223085 -0.624717)
(0 0 0)
(3.34039 -1.92431 -3.95404)
(-0.287753 -3.33368 -1.13689)
(0 0 0)
(0.619767 -0.312159 0.0181839)
(0.451486 4.46242 1.10403)
(0 0 0)
(2.75092 -4.09196 -1.90134)
(-5.98995 -4.33302 -1.43192)
(1.19436 0.699937 0.330103)
(-3.29888 0.844385 10.3759)
(8.65186 -1.80694 -6.28299)
(0 0 0)
(0 0 0)
(0 0 0)
(-0.129482 -1.26538 -0.23959)
(0.988653 -1.66192 0.566763)
(-1.80273 -2.0348 0.984881)
(-1.23076 -0.396256 0.0908677)
(-0.107423 -0.511485 2.01383)
(0.914837 -1.03649 -1.54588)
(0.000770096 -0.0992469 -1.14554)
(-1.01048 -1.15093 0.956061)
(-0.0645953 -0.0683147 -0.208242)
(0.0205208 -0.294292 0.677086)
(2.32159 -3.33383 5.60427)
(-3.34888 -2.69135 0.665936)
(4.00458 -1.17408 1.86885)
(-0.387752 -0.135082 -0.0162966)
(0.625329 6.42095 -2.59808)
(-6.38766 5.75014 7.2688)
(9.26077 -1.90428 -7.15723)
(14.8919 8.88267 1.99353)
(-2.0205 -5.63224 -3.05821)
(0.621309 15.9645 -1.90503)
(2.22648 -0.0679039 0.614383)
(0.611348 2.00499 -4.05613)
(-0.540544 1.62309 0.519246)
(1.14238 -1.92034 0.654892)
(-1.0698 -4.39707 -0.138123)
(-0.0188923 -0.123043 0.145266)
(1.4655 0.912956 1.19838)
(21.5085 -12.9965 1.11691)
(4.60739 2.30079 -0.0938154)
(0.0159773 -1.8781 2.1145)
(-0.0286379 -0.00737037 -0.00712359)
(3.64411 1.10593 0.186587)
(1.91812 12.177 -3.42639)
(5.65754 -2.89922 8.23186)
(0.897899 0.606099 1.62542)
(13.8339 6.77525 -0.260252)
(2.14363 0.177224 -0.0435715)
(-2.19098 -1.46346 0.159767)
(0.0786174 0.0262078 -0.294735)
(3.25658 1.19192 3.25975)
(-2.95865 -1.74676 5.49788)
(12.6237 1.07333 3.24427)
(-3.19583 3.10903 -1.37832)
(1.98062 -0.12493 0.385922)
(-0.0948574 -0.915133 -0.345396)
(-3.33027 -3.26151 1.88351)
(0.695314 0.638808 -0.0294544)
(-0.411847 -1.34624 0.119359)
(-3.39758 5.77878 -1.77706)
(0.0300735 -0.760511 0.499582)
(-1.59861 -1.9387 -2.49163)
(-1.31289 -1.10237 0.349248)
(0.28419 5.94215 -2.12762)
(0.0373126 -4.42935 0.232008)
(0.618647 6.35233 -2.57032)
(-1.60678 6.04777 -2.06034)
(1.57216 1.05379 0.743011)
(-0.0283601 0.972792 0.40833)
(0.0272215 -0.493433 0.511516)
(0.105653 0.445572 0.471464)
(0.557312 0.225866 -0.0848438)
(2.43585 -1.75444 -0.316246)
(0.410074 -3.87003 -0.814514)
(1.02415 1.25963 2.07774)
(0.218796 0.203746 0.273137)
(-4.94918 5.35001 -1.62884)
(0.541611 0.652963 -1.15015)
(-3.26739 -3.50623 -7.30492)
(-1.76304 -1.94838 -1.03797)
(1.10715 -5.47793 6.90406)
(1.58777 -2.74457 -1.15952)
(6.65707 -3.05062 9.85681)
(-0.335094 2.26867 -1.37835)
(-0.964675 0.630697 -1.04596)
(0 0 0)
(-4.23613 3.85834 -3.02812)
(-0.00800017 -0.0287802 -0.0197144)
(6.57984 -2.26665 -1.29752)
(-0.450497 -0.0560696 -0.409907)
(0.301998 0.424605 1.04672)
(6.3059 -1.48093 -4.0552)
(0.381314 3.14178 -0.829294)
(17.4929 1.48734 4.49564)
(-3.13113 1.06169 -0.861477)
(0 0 0)
(2.66872 -1.40185 -1.98543)
(0.259793 2.35516 -0.390458)
(0 0 0)
(1.20725 -0.353947 0.563397)
(0 0 0)
(-0.895918 1.50408 3.0191)
(0.82265 3.69113 -0.576471)
(2.34534 -3.2708 1.26921)
(2.48583 -0.666176 -0.587865)
(-4.24516 -2.48912 -0.993099)
(-3.233 -1.18897 -0.295386)
(2.434 -0.864715 5.72398)
(-7.84334 -1.33282 -2.10697)
(-1.60208 -1.83178 -1.0109)
(0.51663 -0.360504 -1.549)
(0.462604 -2.1159 -0.0959984)
(0.467411 -0.118294 -0.33001)
(-0.277739 -0.0265864 -0.157117)
(0.524133 -0.77044 1.75677)
(0.0154422 -0.151798 -0.0870164)
(0.567162 -0.807053 0.439663)
(-0.253155 -0.727719 -0.798812)
(-1.09187 -2.26385 0.839504)
(2.06429 -1.35313 1.14535)
(-1.72748 -0.0632762 1.05878)
(1.06241 -1.5929 -3.38193)
(2.25865 -3.4003 0.760232)
(-1.69211 -0.78008 1.5849)
(2.8053 -0.570865 -5.36542)
(0.64268 -0.339333 0.152719)
(-0.731917 -0.172662 2.40778)
(-2.80165 -0.936232 2.75347)
(1.54914 -0.671782 0.564333)
(-1.71147 -6.56555 -6.82015)
(2.66923 -1.33543 -0.969257)
(-1.35739 -1.05658 -0.783893)
(-0.613935 -2.73935 0.330767)
(-0.683756 -1.45057 0.302831)
(13.9577 6.97006 -0.284206)
(-4.46215 -2.10048 4.57062)
(-2.71698 4.11703 -9.97357)
(6.28817 -1.18593 -1.88297)
(-3.13323 0.801986 9.85488)
(-0.38012 -5.06586 -3.51433)
(1.071 0.391989 1.07204)
(-0.361642 -2.38874 1.96405)
(-2.39063 -1.26477 1.45128)
(2.89552 -4.30705 -2.00129)
(0.680596 17.4879 -2.08681)
(9.04131 -1.88827 -6.56581)
(1.53605 -1.68067 -0.716683)
(-0.36429 -1.19079 0.105577)
(-12.4551 0.787698 2.1071)
(7.59203 5.46042 5.19416)
(-13.7404 4.68036 -9.94339)
(-1.64871 -1.82203 -0.970662)
(0.981114 7.8189 11.9902)
(4.32882 4.15731 -1.44127)
(-9.08168 3.56331 -0.169196)
(-5.64831 11.2166 -10.326)
(7.61808 10.3359 -9.09284)
(1.54463 1.04265 2.79616)
(2.34112 14.1623 -0.633214)
(0.688032 0.829487 -1.46108)
(-0.0228913 -0.0823503 -0.0564098)
(-1.44504 2.42594 4.86954)
(0.0241649 -0.438026 0.454079)
(-0.0738534 -0.0190072 -0.0183708)
(-1.97873 -4.19783 0.876369)
(2.93086 -2.08897 -1.22231)
(1.5507 -13.2866 -6.59234)
(5.1977 4.35949 8.02146)
(-1.71756 -4.65447 -1.27103)
(-14.9028 -7.8172 -12.6786)
(4.60158 4.16861 -0.168048)
(-1.17436 0.69446 -0.329988)
(-1.02813 -1.5494 0.933098)
(-8.89735 8.10386 -6.36011)
(2.6241 7.86444 0.724898)
(0.459801 4.54461 1.12437)
(1.8667 11.8506 -3.33454)
(-1.5522 1.6289 -0.826314)
(-0.483671 -11.9956 16.5203)
(-0.975611 3.31927 2.32409)
(-0.224071 -2.16172 -0.81589)
(-2.0133 -0.547168 -3.32936)
(-0.430164 -2.37063 -0.413559)
(0.877945 0.0261036 0.949218)
(0.0101087 -1.18826 1.33782)
(-27.9485 7.33157 1.26416)
(4.76505 -13.2345 -2.30343)
(-3.33636 -0.281081 -1.34363)
(-4.81058 -1.39683 -2.22857)
(-2.27438 1.00573 -1.54562)
(0.245987 2.23 -0.369708)
(9.10593 -1.39241 0.810984)
(-5.54169 5.98263 -0.567029)
(2.62193 -1.52995 -1.26788)
(-0.116838 -0.422789 -0.624727)
(0.696329 0.639741 -0.0294974)
(-1.09922 0.244169 -0.0441676)
(-2.03007 1.506 0.264927)
(0.386815 2.19652 -3.48475)
(-0.448163 0.294314 -0.902851)
(-19.6451 -1.02254 -2.69249)
(-10.8771 -7.98923 -0.238484)
(2.97994 -3.69675 -3.66281)
(6.62276 8.5637 2.54927)
(0.776521 3.48416 -0.544146)
(2.75327 1.58439 -0.489269)
(1.35398 0.494524 -0.00191516)
(-0.771567 -0.873455 -2.32449)
(10.8001 -4.61491 -8.49394)
(-0.708715 -1.27824 1.08682)
(-2.27851 -1.36605 1.35915)
(0.345089 -1.25925 3.43803)
(0.844966 -1.09103 0.279449)
(-1.07537 -0.344044 1.15794)
(0.213709 -0.740814 3.28243)
(-0.0906425 -0.646534 -0.390729)
(-0.157223 -1.08897 0.14999)
(-1.61112 -1.09227 2.3193)
(1.01235 -0.981599 -0.853542)
(-0.20362 -0.00201106 -0.108588)
(0.0676626 -0.224929 0.0427893)
(-0.00930982 -0.00356914 -0.00302101)
(-0.798852 -1.76809 6.60606)
(-5.18677 -6.02708 -3.15913)
(-0.480844 -4.51993 3.01726)
(3.30676 -0.574916 1.997)
(-1.03628 -1.07127 1.87911)
(-0.341035 -0.495133 3.62938)
(-2.26543 -0.156815 -0.147109)
(0.713197 -1.33956 1.58764)
(0.00189481 -0.0125553 0.00878754)
(3.71308 -2.02764 -0.573102)
(-3.45844 -0.897452 -2.15224)
(1.63589 -2.03529 1.84891)
(1.21733 -2.8237 2.50729)
(-0.176849 -0.749753 -0.377019)
(2.93601 -0.882262 -0.167303)
(-0.0828182 -0.561952 0.140111)
(-0.497122 -0.0701286 2.8049)
(-0.242037 -1.1155 0.0660488)
(-4.42367 -7.01965 8.37297)
(0.554587 -7.29055 -3.89297)
(-0.0993576 -1.35412 -1.06196)
(-0.319236 -0.11674 -2.8645)
(10.5365 -5.99186 -26.4866)
(0.625992 -1.86051 8.03442)
(2.53342 -4.30635 2.12983)
(-1.4025 -0.8554 -0.405605)
(-3.18081 -3.92244 0.927388)
(-11.0396 -3.457 -1.58192)
(-2.71768 -6.69764 -5.80217)
(-0.510248 -0.252443 0.447861)
(3.54928 -1.21388 -0.083715)
(4.12898 -0.0402146 -2.71751)
(6.29553 -6.48899 -5.49594)
(-11.9852 -5.34819 -3.4389)
(0.492129 -0.379266 -1.43645)
(1.37956 -1.83934 7.79405)
(-12.1854 -3.598 -17.0931)
(13.7016 -17.8228 9.42017)
(-1.65457 -0.449675 -2.73614)
(-0.448208 -0.0446829 -0.189027)
(0.936015 -1.53904 -0.0986457)
(-2.3591 -0.54224 2.63895)
(-3.46159 -2.06484 -0.313779)
(0.247824 -0.0876722 -0.112964)
(1.06853 -0.0637657 -3.89457)
(3.72356 -2.76412 5.32567)
(0.33199 -0.826089 0.0470412)
(0.672286 -0.370934 0.39474)
(11.0781 -8.58591 5.20528)
(-1.58576 -3.47533 0.283189)
(4.93134 -0.150398 1.36077)
(4.54201 -12.9616 -5.37991)
(-1.735 -1.86183 -3.87896)
(-5.44773 -10.9734 -10.5805)
(-2.68875 -1.58741 4.99634)
(5.20283 -7.67719 3.8762)
(-0.677203 -3.23255 -1.05852)
(5.70011 -4.84032 0.126367)
(1.573 -4.19133 1.93892)
(8.84054 -4.09989 -6.85285)
(2.42334 -2.65904 -25.5135)
(-3.95153 -5.8069 -12.83)
(0.0523906 -0.0640084 -0.09472)
(-6.82298 -8.0278 -4.45265)
(1.85906 6.13532 2.30835)
(3.4003 -5.16103 -9.87785)
(-0.27337 -0.513577 0.604805)
(0.835766 -10.0263 -0.815718)
(-4.96731 -15.0622 -4.88604)
(-3.39745 6.12592 7.21221)
(-3.45755 11.7274 -12.8055)
(-6.31819 -15.8442 6.47668)
(-3.5417 -6.05152 -0.271563)
(-0.234741 -9.28213 3.51391)
(-13.6206 2.07375 10.1604)
(2.313 5.93738 7.01816)
(0.348637 -3.55104 -3.91498)
(-21.0788 -15.724 9.78323)
(-0.860146 0.703189 -0.824737)
(-0.916858 4.05023 -1.86915)
(-4.90334 22.739 -3.12028)
(-10.0966 -22.2053 -2.37654)
(14.1522 9.27707 -1.90359)
(26.3306 -7.61396 -5.42555)
(-5.71833 6.24003 4.0853)
(13.3944 6.51572 -3.57151)
(2.22217 3.75101 -1.98042)
(1.48853 -0.0329943 -1.50717)
(-1.95348 -0.186398 1.18395)
(-5.80285 -2.43327 -3.97719)
(-3.89799 -4.96539 1.74517)
(-2.18542 7.16133 2.52988)
(0.323144 0.910662 0.714522)
(-0.0593518 0.226896 -0.11943)
(1.28408 -0.565848 2.04159)
(17.1803 -20.5579 9.65659)
(2.26424 -0.194318 0.202916)
(6.72701 9.40828 -1.75501)
(-2.93204 -7.40512 0.995723)
(6.76635 7.93591 -3.71292)
(-1.07202 -0.209782 1.72779)
(0.652603 -4.68633 12.8908)
(-1.18915 7.1862 4.03158)
(7.73961 1.94958 0.24088)
(3.98651 0.505375 1.90748)
(0.400422 3.74246 0.753627)
(8.47756 -3.16218 -1.22025)
(11.7383 -4.72295 7.37721)
(-1.40141 -4.71559 14.4084)
(-4.69681 5.71712 -2.13077)
(-6.00156 -1.36629 -3.96633)
(9.68217 -2.72033 7.8521)
(-2.65733 7.01418 2.61816)
(-8.70869 -2.55926 -2.03553)
(-4.73437 -8.10236 5.94151)
(0.501735 5.89316 -3.52596)
(-0.764203 2.23622 -0.419053)
(2.14914 -2.8029 0.0777948)
(1.22853 14.8833 -1.83768)
(-1.07123 1.19611 -5.21409)
(-2.22891 4.61071 -4.68808)
(-5.8692 -6.54574 1.61793)
(1.26519 2.10691 -1.87277)
(-0.235426 0.456343 0.702219)
(15.6835 -2.54498 0.76519)
(5.36022 0.18613 3.27864)
(-4.32602 -0.443647 -3.5579)
(0.0856936 1.57477 1.63362)
(2.27803 11.5422 -12.2998)
(0.223582 1.05078 4.82888)
(1.69898 -0.0202862 1.52005)
(6.56325 8.48675 2.52636)
(0.627423 -5.10246 -1.79597)
(-5.05878 2.49625 0.443564)
(-1.03139 3.50905 2.45697)
(-30.8417 23.1971 3.06259)
(-0.960505 3.61524 -1.23163)
(13.1965 6.46308 -0.248261)
(0.844038 -0.15817 -0.0619004)
(11.6653 -16.4845 -0.896303)
(17.7766 -5.40041 -11.8031)
(4.27268 4.52775 -0.230717)
(3.35337 -3.94994 -2.58744)
(2.61507 1.50486 -0.46471)
(4.91181 2.21747 -0.0987237)
(-7.76689 1.6762 2.46799)
(-4.77996 8.55468 -2.5335)
(0.741936 3.09493 0.776307)
(8.81001 8.08673 0.742881)
(-4.95387 3.95667 -2.83221)
(7.40331 -10.3246 4.00641)
(-2.8634 -14.4654 -1.03106)
(-7.81213 15.4033 -3.46256)
(3.46707 7.30739 5.93388)
(18.4703 12.3639 -16.8773)
(2.47753 2.45283 1.93816)
(-1.01426 0.862118 -0.908228)
(-4.29242 4.14788 -4.35594)
(9.10108 1.66687 -5.83739)
(17.2895 10.3128 2.31449)
(-3.55117 0.788818 -0.142689)
(1.03094 1.01139 1.73624)
(1.72297 2.12418 -0.850391)
(3.12907 5.53793 6.02684)
(0.570907 0.531636 0.712697)
(4.84776 6.61479 -5.00844)
(0.179809 0.25281 0.623217)
(-0.830067 0.546649 0.396644)
(10.0346 3.99886 0.169071)
(-16.4673 -22.8177 -8.42294)
(-5.31055 0.0167808 2.63464)
(21.3638 3.62915 -5.11517)
(-2.66895 1.97996 0.348301)
(0.145275 -0.243715 0.132843)
(-1.67105 0.583442 1.9311)
(-7.05966 1.45408 7.18314)
(0.10771 2.4832 2.86548)
(-3.21988 0.915723 -3.90506)
(3.73477 -2.27426 0.58902)
(-0.997545 1.25583 -0.63023)
(-0.0237246 -0.0601025 -0.0132348)
(-6.04507 2.04973 -1.6632)
(0.266669 1.12463 1.18998)
(3.20145 -5.53391 -2.33796)
(7.76681 -5.5941 -1.00836)
(-0.777579 -0.291148 -2.90885)
(-1.43197 0.463775 4.48388)
(-0.0170531 -0.111065 0.131124)
(4.70813 7.14672 1.99185)
(-3.3601 -1.53359 0.425482)
(-0.0412958 3.44841 0.679067)
(0.599277 0.218878 -0.000847658)
(-2.12132 -0.22604 -0.632992)
(-0.552996 0.363159 -1.11404)
(9.58885 -0.874432 0.233769)
(1.45258 0.90491 1.18782)
(-0.980039 -4.02815 -0.126534)
(0.376681 -3.55489 -0.748187)
(0.246156 5.14689 -1.84287)
(2.2092 2.70077 -8.65171)
(-3.98432 -0.71438 -0.34112)
(-2.09601 -1.40002 0.152842)
(-3.16176 5.37769 -1.65372)
(-9.49276 -36.4161 -37.8282)
(-6.2876 -2.89075 16.0338)
(-4.55484 -0.849128 5.31345)
(5.16178 -3.31455 1.94689)
(-2.25325 -0.317117 7.74395)
(-2.09419 -7.24145 -5.13144)
(0.220869 -2.96304 -0.689447)
(-11.3564 -6.19471 -1.64678)
(17.5008 8.51331 -4.66646)
(1.78172 -1.92389 -0.189093)
(-5.96349 -3.25854 1.6885)
(4.38848 -6.61336 4.26112)
(-1.16676 -2.16891 -5.53492)
(-3.36448 -3.93411 -1.65415)
(-8.36602 -5.6718 12.0433)
(-0.122883 -2.05663 0.451802)
(7.91033 -6.51869 13.1988)
(1.44309 -0.69133 -1.66282)
(2.40485 -14.4145 13.5794)
(9.19179 -4.8192 1.48864)
(5.31149 -8.73339 -0.559772)
(-60.0373 -3.66998 -4.07355)
(4.91512 -1.42096 6.07397)
(3.09004 -6.09571 0.192427)
(7.33472 -22.6669 -16.323)
(3.63528 -1.91941 0.863848)
(0.601093 -0.00309478 -0.305607)
(-63.5421 -7.8209 -12.6039)
(-8.51596 -3.4266 4.00944)
(-25.1836 -0.577544 21.0464)
(-5.92692 -1.8962 6.38202)
(0.809096 -0.273583 4.98339)
(1.28695 -2.91694 -2.45695)
(3.87576 -20.0734 -0.171208)
(-8.57726 -11.3407 4.30627)
(4.06327 -2.91106 5.83146)
(0.361601 -8.02998 -3.48195)
(0.393843 -1.4249 -1.68032)
(-18.7994 -3.27613 -12.5806)
(-3.3523 -8.95145 -2.04714)
(-7.00523 -3.45231 5.49991)
(0.0351021 -0.0201306 -0.0244125)
(8.90826 -8.81341 -10.3127)
(0.0959556 -0.242595 -1.60278)
(-0.56497 -3.4368 4.69554)
(11.9276 -8.28197 -7.82356)
(-0.0602504 -2.15769 6.0339)
(15.7589 -0.888352 2.2466)
(-10.5914 -3.48284 -5.4817)
(10.8093 -3.87084 -3.67378)
(-13.5156 -2.81557 1.22876)
(-8.85184 -2.11491 -7.42562)
(-7.82617 -6.36658 -10.0487)
(-23.3001 -13.6619 -5.45076)
(1.34314 -0.0854073 -0.578397)
(-6.71662 -4.65403 -2.171)
(-1.1218 -0.0110795 -0.598243)
(-1.70375 -3.79703 3.94474)
(-10.4456 -5.72031 9.02439)
(1.56658 -1.04492 1.75454)
(-0.406821 -10.3697 4.51273)
(4.33797 -4.2062 -3.65747)
(5.07516 -7.03226 9.17148)
(-17.411 -2.60424 15.5353)
(1.68497 -2.54497 -1.79327)
(0.654774 -1.38265 0.106651)
(-3.21966 -8.79321 7.24616)
(-3.30375 -5.79782 -1.06852)
(-2.6178 -9.75873 2.34721)
(-0.699885 -0.0123883 -0.324378)
(-9.71308 -0.27712 -2.24447)
(13.9266 -6.66889 -7.00892)
(-7.01593 -1.16463 -0.324296)
(-2.58826 -8.51514 -0.759001)
(3.74443 -3.27322 1.97703)
(0.302686 -0.429593 -0.259416)
(-0.948152 -8.62535 1.88331)
(5.34044 -2.20322 -13.4294)
(1.11035 -0.0464559 0.00460885)
(-0.238048 -1.58612 -0.236402)
(-16.6447 -11.5694 1.02913)
(-2.64417 -0.487309 -0.320622)
(12.3209 -1.16083 -1.79246)
(-1.07351 -10.091 6.73621)
(5.23519 -13.3046 1.84342)
(7.92057 -4.11291 -1.54288)
(-0.214393 -8.40896 7.3631)
(-0.772198 -0.471446 0.998742)
(-18.5681 -4.81834 -11.5552)
(-0.0681396 -7.68538 -12.6131)
(-24.8529 -15.1172 -1.35692)
(4.37817 -4.17771 0.116518)
(24.3072 -0.810255 4.57491)
(-0.0716291 -1.55843 -1.47226)
(0.301032 -0.367787 -0.544253)
(11.2112 -3.14478 12.4874)
(-8.40107 -9.21138 -1.98645)
(22.8517 -20.7989 -19.6206)
(-0.061863 -0.348641 0.917983)
(2.61101 -1.42782 -0.862128)
(11.3636 -1.7426 5.38937)
(-1.71152 -6.65508 -20.7922)
(-2.75274 -8.23098 -6.76313)
(16.1457 -9.64882 14.9957)
(-9.07731 -0.332495 5.56353)
(15.3432 -4.61059 -0.874307)
(-14.7913 -13.4341 11.202)
(2.18179 -0.0483609 -2.20912)
(27.6772 -17.7471 2.5437)
(0.170788 -5.78229 -3.04231)
(-0.973856 -1.33873 1.5061)
(7.49393 -2.35634 9.27164)
(-4.40404 -5.24101 9.88341)
(-1.43766 -4.94012 4.56321)
(5.09814 -9.47313 -7.08825)
(-6.95153 -5.01616 4.68869)
(0.199283 -0.19756 0.0975124)
(-8.82498 -13.0109 -4.55177)
(17.3295 -2.0587 3.1865)
(-2.74555 -3.90821 -1.53633)
(2.4292 -6.19491 -2.14112)
(-4.33805 -5.51751 -1.13706)
(1.40614 -0.498734 0.536362)
(2.43198 -3.65629 -3.79869)
(3.80659 -4.54257 -0.300361)
(32.0411 -0.336562 26.1291)
(-13.3583 -4.91769 19.7557)
(0.192531 -14.8208 16.8021)
(2.83011 -4.1622 -3.01979)
(10.0494 -9.61657 1.90431)
(-0.312241 -0.586601 0.690801)
(5.70402 -2.08804 1.146)
(-13.3275 -2.22232 5.49971)
(-13.7871 -3.03178 11.7376)
(10.6598 -0.173016 11.064)
(3.45211 -1.79333 -1.11128)
(-14.8796 -7.28911 7.97471)
(11.2604 -16.9521 3.79011)
(-2.98511 -1.82065 -0.863298)
(0.440943 -8.77497 -1.90617)
(7.81083 -1.21364 -5.69022)
(-4.38306 -3.35756 -8.58174)
(-0.521755 -4.66103 -0.0565335)
(-6.22283 -4.61806 1.28269)
(-14.3816 -26.4888 8.80052)
(-8.66935 -2.18907 4.05799)
(6.06772 -2.38199 -2.49716)
(3.80661 -6.47056 3.2002)
(1.68715 -0.84977 0.0495009)
(13.4377 -7.21973 -9.79579)
(-0.308452 -0.299163 -0.266659)
(-3.08621 -2.07672 2.48069)
(16.3731 -22.745 -20.8135)
(1.64029 -0.575485 -1.35121)
(-1.62896 -4.15496 -1.27435)
(-16.7474 -9.58459 18.0511)
(11.9839 -10.2002 5.87251)
(-2.47768 -1.92205 1.32821)
(-5.05416 -2.24509 8.61183)
(-3.55277 -1.29595 6.6823)
(10.4901 -34.4356 10.9471)
(15.7496 -3.20496 -30.1226)
(-3.63257 -5.11009 -4.71144)
(0.931685 -1.34678 -4.36074)
(2.09622 -0.0275852 -3.31856)
(4.33822 -7.04881 -7.23013)
(0.959561 -14.9991 -18.0678)
(-0.60123 -2.60811 -2.5594)
(10.9942 -6.41533 -5.31643)
(5.57002 -0.889965 -7.12154)
(-3.80564 -25.8103 -21.9829)
(-15.3569 -1.04693 -2.39368)
(0.0931535 -14.9078 10.3746)
(-1.05973 -0.935983 -0.306866)
(-6.21918 -10.3007 -14.3812)
(10.8747 -15.0327 9.646)
(-0.633087 -0.274569 0.143129)
(4.50502 -3.4087 7.43637)
(0.0112201 -0.881941 -0.213699)
(-0.568805 -7.27765 1.2166)
(8.34308 -24.3825 2.35294)
(-12.4148 -14.2184 10.5131)
(-1.17763 -1.96869 -1.01162)
(6.67782 -15.7785 1.93488)
(1.72327 -1.5327 -0.561429)
(1.06914 -0.193717 3.89956)
(-3.07245 -1.12519 7.55545)
(-7.75404 -2.23838 -3.80987)
(-38.867 -17.3437 -11.152)
(23.5095 -3.06716 -25.7516)
(9.34926 -2.5055 -2.21097)
(10.788 -5.66683 -8.0259)
(-14.6503 20.0751 -0.682115)
(-0.333208 -0.352394 -1.0742)
(-19.2112 -9.51361 -16.6068)
(-12.059 1.16799 -6.13061)
(-7.43967 3.34084 -2.27959)
(4.90266 8.70197 7.55862)
(-2.70139 1.00214 1.85966)
(-1.08314 -32.2358 2.85364)
(-0.596586 1.26226 3.51764)
(7.79224 23.2315 0.974124)
(-19.1983 -17.5376 -20.1719)
(1.04285 9.74676 1.96273)
(-14.0204 -1.98502 4.71787)
(-0.24452 -1.82248 -7.80582)
(1.89011 2.81925 2.85712)
(3.35472 -4.65642 2.23949)
(0.668954 2.14707 -1.65343)
(-0.152053 18.1087 3.27627)
(-1.46091 2.90995 -0.647693)
(2.47911 1.38868 0.109754)
(-3.60453 -0.108704 4.9618)
(4.29491 0.960771 -2.82045)
(-0.476081 -0.557496 0.452039)
(-2.28077 0.111644 0.541563)
(-12.6911 -5.14287 -1.47357)
(-9.22455 15.4093 0.595124)
(-3.11983 -0.610518 5.02831)
(-0.755271 -0.667409 0.629432)
(3.36054 -1.48087 5.34303)
(18.3301 10.6527 1.07637)
(-0.00674442 0.00270244 -0.0158364)
(11.1036 -14.5635 7.56903)
(-0.765835 0.914254 0.725366)
(0.930837 1.30803 -5.60377)
(-7.71079 0.284631 2.29276)
(7.61735 25.4365 -8.7845)
(0.769916 2.16973 1.70241)
(-3.15926 -2.29383 -6.689)
(1.8397 2.17924 -3.14521)
(-3.85105 -1.17867 -0.930794)
(-1.12035 0.118486 -15.9236)
(-1.21257 0.991303 -1.16265)
(10.0531 -0.0300252 -5.76341)
(0.230898 -0.16752 0.498834)
(15.5087 2.15723 0.90736)
(-1.81979 10.9972 6.16962)
(-7.61546 -2.57481 -4.9525)
(24.0532 23.8208 -8.08904)
(-6.86446 0.983388 0.90944)
(0.447388 0.97861 0.80256)
(-2.39925 -4.14193 -8.09339)
(-0.268142 0.433305 -0.270552)
(-7.68029 1.30098 19.1593)
(-11.7444 -0.812962 -0.762643)
(-1.28849 0.0630719 0.30595)
(5.3368 1.30526 2.555)
(-2.66594 -2.15186 -0.118391)
(1.30569 0.26594 0.0198585)
(-1.6508 -9.7131 -4.61357)
(-5.33787 -25.5559 -12.6932)
(-12.2009 6.79294 14.2752)
(4.76281 1.21188 4.44648)
(-18.7417 -15.4206 18.7258)
(2.40035 -1.59311 0.053474)
(0.80535 -0.290293 0.00793426)
(-0.519439 -1.00851 -1.21899)
(2.76611 0.432477 -0.997665)
(1.4542 2.59383 -4.46273)
(13.2769 -4.95236 -1.91106)
(6.87066 10.9882 -0.164188)
(-3.42052 11.2086 3.95965)
(-0.0286405 2.7047 2.95077)
(-0.105061 1.094 7.57979)
(0.595456 4.91928 -5.87546)
(-1.36955 0.742567 -0.863991)
(9.43718 8.98006 4.0163)
(3.40818 4.52823 7.0952)
(0.528374 -4.98648 -1.04949)
(0.309871 -0.320686 0.521897)
(2.15915 12.9346 -0.205354)
(-0.474866 -1.44645 -0.0195432)
(10.186 17.9602 1.38254)
(0.36334 -0.0575097 0.52392)
(-3.19858 0.315597 -1.38183)
(-16.0422 20.3114 -2.05586)
(-41.7384 -12.5632 12.8624)
(0.804802 -0.0336721 0.00334059)
(2.41249 4.57169 -4.58015)
(19.3164 -6.6127 4.43396)
(1.83856 -2.77158 3.54974)
(-0.319121 1.15694 0.249906)
(3.1183 17.0712 13.2433)
(-7.03031 8.55753 -3.1894)
(-13.8504 1.53028 -1.78644)
(-13.0932 10.475 -0.235827)
(-18.8585 16.3752 -4.09038)
(-11.6138 7.5863 -7.82677)
(-7.44969 -7.95114 -10.3849)
(19.2993 19.2919 0.179504)
(-0.834222 0.625628 0.560539)
(0.629809 0.206238 -0.837109)
(0.106233 -0.162898 -0.101424)
(-2.329 5.15539 2.27364)
(-6.40073 0.236272 1.90322)
(-5.90918 -2.4204 -0.0699112)
(-2.3602 8.38779 2.49634)
(7.824 -11.6449 -16.6854)
(-21.5168 -6.35331 -30.1827)
(-15.8317 17.276 11.3105)
(-6.05355 4.36076 -5.14468)
(8.19563 0.284587 5.01295)
(0.690821 0.0426324 0.429635)
(10.2253 -0.970671 -5.73944)
(2.87036 4.05754 -4.82902)
(-7.23143 -1.64628 -4.77913)
(0.331711 1.55897 7.16424)
(9.36846 -0.806107 -3.53827)
(-10.5682 -20.0661 14.6531)
(-3.96122 1.21692 0.715332)
(5.602 0.251497 0.141613)
(16.7004 5.71475 -3.26731)
(-5.69331 2.55662 -1.74448)
(13.7247 -0.999536 2.44853)
(8.12722 0.46051 0.147168)
(10.3435 27.7798 -7.28584)
(-1.19257 -6.33195 -4.60808)
(-2.57848 -1.49342 5.63233)
(14.2418 -2.6847 20.4092)
(5.34967 -1.5771 4.88121)
(-6.64625 -3.6905 5.14329)
(-0.424859 0.898921 2.50509)
(4.68575 6.77237 -0.297992)
(9.18794 3.71796 -0.508451)
(2.62789 -1.38763 4.58345)
(0.146694 -1.04439 -0.221605)
(14.7255 13.5166 1.24169)
(1.35694 17.0764 -13.499)
(-0.618664 -1.37852 1.68262)
(0.379489 8.56264 2.19574)
(0.461955 -0.17868 2.01973)
(-12.0322 -3.53596 -2.81236)
(-1.94836 7.94537 -2.57588)
(-2.94298 -3.47954 -1.51908)
(-3.70906 35.0385 0.325305)
(11.4486 -3.91927 2.62796)
(1.14265 3.49048 -7.94331)
(-0.835714 3.48814 -2.82394)
(9.42757 -10.3322 -12.7481)
(15.6977 -8.11119 -2.28325)
(-6.65758 -3.06084 16.9772)
(7.31276e-05 -9.78461e-05 -0.0001737)
(-2.79816 -12.7203 -19.6859)
(8.04296 -2.29131 -0.471568)
(-11.9726 -6.53085 -1.73614)
(5.08023 -3.26218 1.91613)
(16.4102 -3.11457 -5.97234)
(-0.128342 -0.996023 -13.5417)
(-14.0488 -14.0814 14.1345)
(7.20211 -6.74609 1.72165)
(-3.42111 -12.2692 -8.78349)
(0.258511 -7.50394 9.73603)
(-2.70559 -1.22236 -3.35897)
(-1.71879 -2.90804 2.59977)
(-2.66784 -4.91438 7.00803)
(6.12937 -14.6085 10.8283)
(18.9592 -8.10133 -14.9108)
(-12.8413 -5.70678 -3.62184)
(6.21926 -4.39844 1.24811)
(0.525967 -2.1157 1.8211)
(-1.13571 -0.621909 0.27924)
(-2.18494 -1.30868 -2.15399)
(-7.62386 -7.08321 -25.1576)
(27.8886 -10.4083 16.5982)
(-6.57768 -1.32664 -11.5768)
(0.907684 -5.98216 6.31146)
(-15.3439 -0.0371786 5.47115)
(-24.1743 -0.554397 20.2029)
(-8.74806 -5.35407 -6.86634)
(4.5787 -5.26565 4.14882)
(-3.20903 -0.444431 2.40235)
(2.21961 -6.95526 1.68704)
(-1.87308 -0.195636 -0.865613)
(6.56065 -2.42799 -2.20137)
(-1.83612 -1.44416 -4.01093)
(10.0162 -11.3948 8.01379)
(-5.18633 -7.25114 0.537711)
(3.14092 -4.05561 1.03877)
(-3.49798 -0.68511 -2.14769)
(-5.79902 -13.7394 -7.42031)
(-0.588847 -1.05193 1.71542)
(7.64766 -2.71249 2.91714)
(0.913464 -4.18768 -1.92729)
(-19.6375 -1.27077 -6.87044)
(3.08229 -0.678004 -0.850632)
(-1.88131 -3.0527 8.38934)
(0.211659 -7.20705 8.4144)
(-1.0956 -1.87426 13.3248)
(2.57742 -4.79492 4.191)
(-3.38951 -5.32402 4.49692)
(-8.02365 -9.11656 11.0591)
(3.73781 -0.0546646 -0.93161)
(11.588 -17.2499 3.78809)
(-6.06046 -3.26491 0.799443)
(-3.51151 -4.69993 14.9258)
(-0.0578057 -2.07014 5.78907)
(-6.0404 -2.37005 -3.52613)
(15.541 -0.876068 2.21554)
(-4.20341 -1.35346 9.71274)
(8.76287 -8.66956 -10.1444)
(0.713988 -0.836887 -0.261006)