/*--------------------------------*- C++ -*----------------------------------*\
  =========                 |
  \\      /  F ield         | OpenFOAM: The Open Source CFD Toolbox
   \\    /   O peration     | Website:  https://openfoam.org
    \\  /    A nd           | Version:  7
     \\/     M anipulation  |
\*---------------------------------------------------------------------------*/
FoamFile
{
    version     2.0;
    format      ascii;
    class       scalarField;
    location    "0.7/lagrangian/reactingCloud1";
    object      yH2O;
}
// * * * * * * * * * * * * * * * * * * * * * * * * * * * * * * * * * * * * * //


2453
(
0.022
0.022
0.022
0.022
0.022
0.022
0.022
0.022
0.022
0.022
0.022
0.022
0.022
0.022
0.022
0.022
0.022
0.022
0.022
0.022
0.022
0.022
0.022
0.022
0.022
0.022
0.022
0.022
0.022
0.022
0.022
0.022
0.022
0.022
0.022
0.022
0.022
0.022
0.022
0.022
0.022
0.022
0.022
0.022
0.022
0.022
0.022
0.022
0.022
0.022
0.022
0.022
0.022
0.022
0.022
0.022
0.022
0.022
0.022
0.022
0.022
0.022
0.022
0.022
0.022
0.022
0.022
0.022
0.022
0.022
0.022
0.022
0.022
0.022
0.022
0.022
0.022
0.022
0.022
0.022
0.022
0.022
0.022
0.022
0.022
0.022
0.022
0.022
0.022
0.022
0.022
0.022
0.022
0.022
0.022
0.022
0.022
0.022
0.022
0.022
0.022
0.022
0.022
0.022
0.022
0.022
0.022
0.022
0.022
0.022
0.0219964
0.022
0.0219996
0.022
0.022
0.022
0.022
0.022
0.022
0.022
0.022
0.022
0.022
0.022
0.022
0.022
0.022
0.022
0.022
0.022
0.022
0.02023
0.0219994
0.0106626
0.022
0.0219999
0.0205234
0.022
0.022
0.0179798
0.0219997
0.0219945
0.0219999
0.0167977
0.022
0.022
0.0216453
0.022
0.0219881
0.0202173
0.0219993
0.022
0.0215339
0.0219978
0.022
0.022
0.022
0.0123712
0.0218899
0.022
0.0219458
0.022
0.022
0.0191462
0.0182288
0.0219471
0.022
0.0219979
0.022
0.0190031
0.0201871
0.0219857
0.0194094
0.000560543
0.022
0.00865388
0.0219998
0.0130498
0.0219999
0.0214095
0.0149473
0.0192561
0.0215282
0.0217637
0.0219473
0.0209316
0.0216726
0.0219999
0.021998
0.0219586
0.022
0.0219885
0.0216927
0.0214893
0.022
0.0178735
0.022
0.022
0.0201615
0.0219034
0.0111688
0.0219907
0.0219995
0.0166983
0.0219999
0.0219671
0.0187539
0.0219807
0.0172702
0.0218725
0.0219838
0.0219991
0.0219959
0.022
0.00847432
0.00915975
0.0219887
0.0219997
0.022
0.0155455
0.022
0.0149086
0.0219988
0.0219521
0.0195723
0.0219864
0.0202206
0.0146179
0.0218557
0.022
0.0219645
0.0101596
0.00937554
0.0210802
0.0219962
0.0219999
0.0149858
0.0219147
0.022
0.000459888
0.0192386
0.0185505
0.022
0.022
0.022
0.022
0.022
0.022
0.022
0.022
0.022
0.022
0.022
0.022
0.00799206
0.0179045
0.0160546
0.0219905
0.0206431
0.022
0.021994
0.0219996
0.0219647
0.0181097
0.0130412
0.0219057
0.0219863
0.0219999
0.0219479
0.0156155
0.0146523
0.0156969
0.0211737
0.0200317
0.0177516
0.0201365
0.0219855
0.0169461
0.021987
0.0219983
0.0141508
0.0182476
0.0132519
0.0165348
0.0144868
0.00979212
0.0219894
0.0219976
0.022
0.0135449
0.00820714
0.0219797
0.021999
0.0157858
0.022
0.0219964
0.00823792
0.0219943
0.0166702
0.0217976
0.0215124
0.0122078
0.0111502
0.0219978
0.0214327
0.013453
0.022
0.0169271
0.00886136
0.0219997
0.0158434
0.021932
0.0218971
0.0190488
0.00771326
0.022
0.0219994
0.0219998
0.0219987
0.0219992
0.0219979
0.0219984
0.0219987
0.0219998
0.0219994
0.0219999
0.0219987
0.0219985
0.022
0.0219996
0.000709055
0.0219997
0.008965
0.00971565
0.0160616
0.00169703
0.0219976
0.00595163
0.0219884
0.0156476
0.0219412
0.0219906
0.0128669
0.0125606
0.0121439
0.0219959
0.0197268
0.0125606
0.0176834
0.013656
0.00303544
0.0123036
0.0170139
0.00395519
0.0219721
0.0119871
0.0145288
0.0134719
0.021988
0.0168913
0.0219893
0.000144951
0.0195916
0.0057632
0.0124636
0.0121396
0.00195739
0.0219657
0.019894
0.0210763
0.0089012
0.0182377
0.00774144
0.00737012
0.0206434
0.0135797
0.0127907
0.0167977
0.0218295
0.0192467
0.015658
0.0219927
0.0165628
0.010165
0.0154062
0.0129605
0.0122078
0.0203336
0.021878
0.021997
0.0219693
0.0210841
0.0219981
0.0193651
0.0217999
0.0219911
0.0211273
0.0167669
0.0203022
0.0207701
0.0108704
0.0160676
0.0219997
0.0219298
0.0219828
0.0219996
0.0219904
0.0219976
0.0186091
0.0114756
0.0219557
0.0219778
0.0219754
0.0219868
0.0219838
0.0219376
0.0219838
0.021982
0.0219923
0.0219045
0.0219923
0.0219754
0.0219938
0.021993
0.0219045
0.0219944
0.0219308
0.0219944
0.0219944
0.0219944
0.021995
0.0219754
0.02198
0.021995
0.0219854
0.021993
0.0219914
0.0219147
0.0219968
0.0219438
0.0219376
0.00345707
0.0124204
0.00834531
0.0159301
0.0188335
0.0164692
0.0174409
0.0219697
0.0061397
0.00890402
0.00292628
0.0160322
0.0134174
0.00813406
0.0178657
0.00520503
0.0043248
0.00949784
0.00856165
0.0189461
0.000108579
0.00862634
0.0130431
0.0109359
0.00988985
0.00939427
0.00726568
0.013959
0.0142864
0.00914221
0.0172485
0.0120775
0.0185749
0.0140452
0.0218833
0.00624378
0.0194316
0.0129769
0.0129769
0.00369791
0.00941189
0.00658172
0.00658172
0.0147933
0.0157938
0.017476
0.0138754
0.0162151
0.00670535
0.0172287
0.0166397
0.00284041
0.0219839
0.00556759
0.0122312
0.0118938
0.0219927
0.0152739
0.0130432
0.0210392
0.0177731
0.0103234
0.0202638
0.0134517
0.0148203
0.0219955
0.0104983
0.0219271
0.0219734
0.00187171
0.0127455
0.000867746
0.0155474
0.0136647
0.0132721
0.016704
0.0201189
0.0153495
0.0144856
0.021166
0.0125243
0.0180767
0.0157948
0.0213287
0.0193702
0.0207249
0.0213287
0.0171634
0.0157948
0.016247
0.0157948
0.0213287
0.0180767
0.0204419
0.0214588
0.0171634
0.016247
0.0201189
0.0207249
0.0214588
0.0132721
0.0121692
0.0207249
0.0149126
0.0215621
0.0149126
0.0149126
0.0128919
0.0217087
0.0128919
0.0125243
0.016704
0.0140694
0.0140694
0.0215621
0.0189559
0.0136647
0.0193702
0.0140694
0.0201189
0.0144856
0.0193702
0.0214588
0.0132721
0.0157948
0.0125243
0.0121692
0.0128919
0.021802
0.021166
0.0197599
0.0132721
0.0204419
0.0176221
0.0218334
0.0214588
0.016247
0.0218577
0.0180767
0.0121692
0.0193702
0.0176221
0.0217605
0.0180767
0.0171634
0.0128919
0.0204419
0.0201189
0.0121692
0.0140694
0.0218768
0.0189559
0.00335528
0.00312923
0.003057
0.00440561
0.00235523
0.00190654
0.00563506
0.00803607
0.00945119
0.00983678
0.00669595
0.00831106
0.00934828
0.0109043
0.00768841
0.00971181
0.00361413
0.0102599
0.011704
0.00430715
0.00857903
0.00539176
0.0113079
0.00854988
0.01057
0.01057
0.00738241
0.00621574
0.0107375
0.0102739
0.0120977
0.000753149
0.011375
0.00230792
0.00835425
0.00516074
0.0119965
0.00426844
0.00483831
0.0100733
0.00800304
0.00946407
0.0106496
0.0146205
0.00567085
0.00750302
0.00239284
0.0149089
0.00896901
0.00851235
0.00970917
0.000419498
0.00741567
0.00862724
0.000238761
0.0157753
0.0109588
0.0150336
0.0116123
0.00469774
0.0118515
0.00757255
0.013835
0.00497394
0.0160835
0.00318123
0.0160835
0.00308333
0.0118896
0.00913014
0.0118896
0.00158921
0.0132144
0.00567502
0.00476557
0.0134356
0.00325148
0.0183069
0.0165928
0.0122741
0.011217
0.0113889
0.00142824
0.0101083
0.0022813
0.00289615
0.013307
0.0102538
0.00394894
0.0121943
0.00833876
0.00436554
0.0146892
0.0114644
0.0109266
0.00394859
0.00889695
0.016066
0.0154502
0.011636
0.00568833
0.00794833
0.021166
0.0156774
0.0004839
0.00804106
0.0156774
0.00692211
0.00656286
0.0215621
0.0162142
0.0146626
0.00938788
0.00766432
0.0214288
0.0151827
0.0218921
0.0126319
0.009781
0.0185619
0.00490858
0.0188768
0.0134207
0.00568478
0.0109049
0.0177179
0.0215908
0.0214877
0.00614245
0.0156844
0.0112012
0.00974473
0.0152293
0.0149119
0.0104417
0.00957305
0.00827907
0.00855075
0.010367
0.00714257
0.00859552
0.00818961
0.00533078
0.00881063
0.00903434
0.00781383
0.00838863
0.00781383
0.00881063
0.00630353
0.00838863
0.00606117
0.00903434
0.00881063
0.00903434
0.00606117
0.00542513
0.00763643
0.00838863
0.00643119
0.00630353
0.00643119
0.00746562
0.00630353
0.0068425
0.00714257
0.00950902
0.00533078
0.0059461
0.00714257
0.00714257
0.00859552
0.0068425
0.00781383
0.00670046
0.00838863
0.00950902
0.00562325
0.00542513
0.00552258
0.00763643
0.00583486
0.00903434
0.00799812
0.00552258
0.00746562
0.00781383
0.0059461
0.00818961
0.0068425
0.00730109
0.0068425
0.0068425
0.00618026
0.00583486
0.00656343
0.00903434
0.00562325
0.0059461
0.00838863
0.00976075
0.00859552
0.00542513
0.00542513
0.00781383
0.00781383
0.00542513
0.0068425
0.00730109
0.00533078
0.00552258
0.00542513
0.00926701
0.00606117
0.00670046
0.00606117
0.00542513
0.00799812
0.00630353
0.0102949
0.00656343
0.0100226
0.00799812
0.00630353
0.0102949
0.00643119
0.0102949
0.00542513
0.00583486
0.00781383
0.00881063
0.00818961
0.00670046
0.00533078
0.00881063
0.00799812
0.00698979
0.00838863
0.00656343
0.0068425
0.00552258
0.00926701
0.00670046
0.00730109
0.00643119
0.0100226
0.00781383
0.00656343
0.0105782
0.00562325
0.00763643
0.0105782
0.0102949
0.00583486
0.00799812
0.00643119
0.00976075
0.00799812
0.0057273
0.00976075
0.00799812
0.00618026
0.0108726
0.00799812
0.0068425
0.00926701
0.00818961
0.00606117
0.00799812
0.0100226
0.00881063
0.00618026
0.00746562
0.00838863
0.00714257
0.00630353
0.00976075
0.0108726
0.00950902
0.0108726
0.0100226
0.00881063
0.00643119
0.00950902
0.00656343
0.0105782
0.0057273
0.00763643
0.00746562
0.00542513
0.00763643
0.00714257
0.0111787
0.00698979
0.00730109
0.00656343
0.0111787
0.00562325
0.0057273
0.00746562
0.00781383
0.00799812
0.00781383
0.00542513
0.00542513
0.0108726
0.00606117
0.00818961
0.0114966
0.00606117
0.00746562
0.00799812
0.0114966
0.00670046
0.00926701
0.00799812
0.0102949
0.0114966
0.00698979
0.00583486
0.0114966
0.0114966
0.00562325
0.0108726
0.00552258
0.0111787
0.00533078
0.00859552
0.00583486
0.0118267
0.0118267
0.000511132
0.00838863
0.00859552
0.00137234
0.00268708
0.00198429
0.00391431
0.00505215
0.00387319
6.32177e-05
0.000464348
0.00407156
0.00256607
0.00524825
0.00160282
0.00533078
0.00255255
0.00332429
0.00497771
0.00533896
0.00461359
0.00522919
0.00233498
0.00442915
0.00370144
0.000802716
0.00490605
0.00524915
0.00467736
0.00188033
0.00358992
0.00521628
0.00497872
0.00407391
0.00572765
0.0018056
0.00569361
0.00590611
0.00330295
0.00617862
0.00222212
0.00275379
0.00525334
0.00573464
0.0023012
0.00615663
0.00818961
0.00556502
0.00606813
0.0042985
0.00583505
0.00551642
0.00643119
0.00182571
0.00602452
0.00610249
0.00621819
0.00457258
0.00401717
0.0118267
0.00353992
0.00580111
0.00280019
0.00579176
0.00629983
0.00600411
0.0054535
0.00653516
0.00595227
0.00289324
0.00654639
0.00702579
0.00729309
0.00602551
0.00698144
0.00356837
0.00666124
0.0118267
0.00560681
0.00466543
0.00654482
0.00118198
0.00694093
0.00799812
0.000430397
0.0100226
0.0118267
0.00379503
0.00560676
0.00781598
0.0082133
0.00568162
0.00122416
0.00171927
0.00228904
0.00192322
0.00349415
0.00836867
0.0016427
0.00583381
0.00765911
0.00707147
0.0074133
0.00331563
0.00877676
0.0036569
0.00926236
0.00912479
0.00441123
0.00580222
0.00387327
0.00908494
0.00828802
0.00704149
0.0088227
0.00746071
0.00858198
0.00959779
0.00886134
0.00749161
0.00800663
0.0037716
0.00769925
0.00762438
0.00214095
0.00527807
0.00741871
0.00286812
0.00741871
0.00993406
0.00674493
0.0042102
0.00429637
0.00121894
0.00948463
0.00717857
0.00742108
0.00895073
0.00667215
0.00620092
0.00933013
0.0107308
0.00753742
0.00179823
0.0101633
0.00752401
0.00558343
0.00369093
0.00378501
0.00388381
0.0032744
0.00427345
0.00347304
0.00388381
0.00373741
0.00373741
0.00415453
0.00351488
0.00427345
0.00398781
0.00453228
0.00415453
0.00335192
0.00446478
0.00343197
0.00351488
0.00404191
0.00453228
0.00404191
0.00373741
0.00421317
0.00355753
0.00351488
0.00453228
0.00373741
0.00331286
0.00388381
0.00388381
0.00467332
0.00351488
0.00347304
0.00433544
0.00351488
0.00360105
0.00398781
0.00409746
0.00343197
0.00388381
0.00351488
0.00421317
0.00388381
0.00347304
0.00388381
0.00427345
0.00421317
0.00398781
0.00369093
0.00415453
0.00383379
0.00460177
0.00369093
0.00460177
0.00388381
0.00331286
0.00343197
0.00378501
0.00364549
0.00347304
0.00453228
0.00474701
0.00421317
0.00467332
0.00482294
0.00439918
0.00378501
0.00404191
0.00343197
0.00335192
0.00383379
0.00331286
0.00335192
0.00398781
0.00373741
0.00364549
0.00427345
0.00439918
0.00404191
0.00421317
0.00482294
0.00343197
0.00360105
0.00453228
0.00378501
0.00378501
0.00373741
0.00351488
0.00433544
0.00433544
0.00335192
0.00427345
0.00347304
0.00446478
0.00490119
0.00453228
0.00409746
0.0032744
0.00343197
0.00498186
0.00490119
0.00421317
0.00378501
0.00388381
0.00331286
0.00331286
0.00388381
0.00355753
0.00446478
0.00383379
0.00498186
0.00498186
0.00373741
0.00347304
0.00360105
0.00498186
0.00421317
0.00460177
0.00482294
0.00355753
0.00498186
0.00373741
0.00409746
0.00347304
0.00446478
0.00490119
0.00498186
0.00360105
0.00498186
0.00506505
0.00433544
0.0032744
0.00355753
0.00421317
0.00498186
0.00439918
0.00506505
0.00490119
0.00369093
0.00439918
0.00506505
0.00446478
0.00506505
0.00364549
0.00467332
0.00333751
0.00506505
0.00388381
0.00490119
0.00360105
0.00467332
0.00339161
0.00506505
0.00506505
0.00506505
0.00506505
0.00343197
0.00453228
0.00355753
0.0032744
0.00421317
0.0032744
0.00347304
0.00415453
0.00515085
0.00351488
0.00373741
0.00339161
0.00343197
0.00498186
0.00415453
0.00515085
0.00506505
0.00409746
0.00404191
0.00383379
0.00474701
0.00515085
0.00515085
0.00439918
0.00515085
0.00421317
0.00460177
0.00415453
0.00506505
0.00404191
0.00421317
0.00467332
0.00467332
0.00506505
0.00364549
0.00515085
0.00388381
0.00351488
0.00446478
0.00364549
0.00355753
0.00523939
0.00523939
0.00409746
0.00523939
0.00490119
0.00339161
0.00373741
0.00339161
0.00383379
0.00393513
0.00523939
0.00523939
3.7243e-05
0.000589087
0.00190777
0.00163922
0.00128319
0.00307191
0.00278768
0.00331251
0.0029306
0.00318385
0.00283998
0.00223993
0.00334353
0.00262414
0.00327073
0.000565879
0.0033339
0.0032872
0.00335228
0.0022775
0.00339891
0.00150681
0.00319951
0.00270596
0.00154506
0.00270704
0.00266613
0.00347178
0.00274757
0.00117961
0.0028107
0.00320682
0.00330317
0.00216254
0.00219545
0.00160539
0.00210064
0.00142589
0.00353377
0.00281506
0.00310516
0.00358457
0.00351935
0.00107223
0.00177718
0.00357453
0.00228182
0.00364491
0.0032861
0.0034535
0.00377966
0.00269165
0.00383379
0.00348895
0.00383051
0.00460177
0.00382547
0.00383379
0.000544978
0.00383051
0.0028339
0.00266137
0.00308778
0.00383486
0.00337534
0.00307877
0.00221425
0.00255343
0.00298056
0.00392925
0.00439918
0.00388426
0.00240227
0.0040936
0.00409557
0.0039493
0.00394192
0.00415053
0.000868643
0.00355375
0.00129315
0.00407369
0.00313761
0.00387329
0.00393508
0.00313651
0.00397402
0.00204869
0.00391492
0.00396464
0.00389432
0.0036427
0.00433099
0.00194415
0.00341821
0.00342434
0.00437729
0.00420731
0.00415016
0.004364
0.00363119
0.00448453
0.00404944
0.00414404
0.00418842
0.00174094
0.00352896
0.00391447
0.00415529
0.00415502
0.00466175
0.00195641
0.00418277
0.000620121
0.0047206
0.0040599
0.0021938
0.00312822
0.00456316
0.00249831
0.0047584
0.00370556
0.00318728
0.00284159
0.00448823
0.00453854
0.0042944
0.00478026
0.00476455
0.004809
0.0049809
0.00498186
0.00255191
0.00457928
0.00447009
0.0020785
0.00301896
0.00491705
0.00327443
0.00136785
0.00515085
0.00110129
0.00453608
0.00511854
0.0050593
0.00248742
0.0021649
0.00242481
0.00230394
0.00213907
0.00227491
0.00294973
0.00251916
0.00218844
0.00298426
0.00274731
0.00227491
0.00248742
0.00291547
0.0030191
0.00255113
0.0023335
0.0026812
0.00251916
0.00251916
0.00236353
0.00258335
0.00245597
0.00242481
0.00224644
0.0022186
0.00248742
0.0030191
0.00294973
0.00242481
0.00258335
0.00213907
0.00213907
0.00245597
0.00291547
0.00274731
0.00288146
0.00281404
0.00227491
0.00274731
0.00261577
0.0021649
0.0023335
0.00255113
0.0030191
0.00284765
0.00294973
0.00284765
0.0026812
0.00227491
0.00251916
0.00264839
0.00305429
0.00248742
0.00230394
0.00224644
0.00236353
0.0027806
0.00308985
0.00248742
0.00227491
0.00230394
0.00251916
0.00245597
0.00255113
0.00236353
0.00294973
0.00219141
0.00308985
0.00245597
0.00308985
0.00281404
0.00288146
0.00284765
0.00312583
0.0022186
0.00291547
0.00236353
0.00308985
0.00271418
0.00308985
0.00236353
0.00291547
0.00271418
0.00261577
0.00294973
0.00298426
0.00298426
0.0030191
0.0027806
0.00261577
0.00205096
0.00312583
0.00288146
0.00242481
0.00298426
0.0026812
0.0023335
0.0021649
0.00264839
0.00271418
0.00255113
0.0030191
0.0023335
0.00242481
0.00316223
0.0021649
0.00271418
0.0022186
0.00316223
0.0030191
0.00224644
0.0023335
0.00213907
0.00230394
0.00213907
0.00284765
0.0023335
0.0021649
0.0021649
0.00316223
0.00305429
0.0027806
0.00236353
0.00261577
0.0022186
0.00308985
0.00219141
0.00319911
0.00213907
0.00288146
0.00316223
0.00224644
0.00319911
0.00298426
0.00251916
0.00255113
0.00224644
0.0023335
0.00319911
0.00319911
0.00312583
0.00319911
0.00291547
0.00291547
0.00312583
0.0023335
0.00219141
0.00227491
0.00319911
0.00213907
0.00319911
0.00219141
0.0023335
0.0030191
0.0021649
0.00294973
0.0022186
0.0021649
0.00319911
0.00248742
0.00271418
0.00274731
0.00245597
0.00284765
0.00251916
0.00258335
0.0027806
0.0023335
0.00319911
0.00294973
0.00248742
0.00274731
0.00323649
0.00281404
0.0021649
0.00294973
0.00245597
0.0026812
0.00319911
0.000591908
0.00213907
0.00227491
0.000913369
0.000372462
0.00245597
0.00146199
0.00128341
0.00105271
0.00166104
0.00161876
0.00104246
0.00175435
8.98568e-05
0.00138321
0.00189287
0.00160142
0.00090575
0.00160041
0.00177715
0.00212869
0.0023335
0.00207816
0.00150574
0.00207348
0.0012121
0.000718971
0.000463098
0.00146437
0.00184234
0.00217438
0.00101563
0.00200794
0.002191
0.00211322
0.00206743
0.00162261
0.0022233
0.00166203
0.00205054
0.000967098
0.00291547
0.00215578
0.00185005
0.00215846
0.00174336
0.00217272
0.00139134
0.00159284
0.00224494
0.00149496
0.0018649
0.0013214
0.00188494
0.00115002
0.00227336
0.00230056
0.00195695
0.00124914
0.00203808
0.00165697
0.00188879
0.000730989
0.00236304
0.0022215
0.00167745
0.00225827
0.00235179
0.00144328
0.000621596
0.00189545
0.00235579
0.00117689
0.00175902
0.00214246
0.00242374
0.00162277
0.00189094
0.00196477
0.00120145
0.00232793
0.00145674
0.00205338
0.00217072
0.000583385
0.00210512
0.00305429
0.00241054
0.00235672
0.00316223
0.00238578
0.00242464
0.00235294
0.000693183
0.00191696
0.00142677
0.00244284
0.00241659
0.00149434
0.00305429
0.000906024
0.00232316
0.00251013
0.00245973
0.00251496
0.00241833
0.00253977
0.00251963
0.00129502
0.00253458
0.00255095
0.00255447
0.00173501
0.00234951
0.00254313
0.00246312
0.00253458
0.00178663
0.00153456
0.00227699
0.00253458
0.0020863
0.00155469
0.00258235
0.00255089
0.00251622
0.00249643
0.00264707
0.00188892
0.00238191
0.00216486
0.00260133
0.00117756
0.00238706
0.00263275
0.00264165
0.0023009
0.000573353
0.00249143
0.00148529
0.00257665
0.00241192
0.0025842
0.00166563
0.00215996
0.00124469
0.000807741
0.000406253
0.00246845
0.00228255
0.001986
0.00115292
0.00276666
0.00220975
0.00277911
0.00278283
0.00281251
0.00280231
0.00272422
0.00157745
0.0024636
0.00319911
0.00278058
0.000902674
0.0013454
0.00172657
0.00144567
0.00242344
0.00284405
0.00277936
0.00252385
0.00323649
0.00264214
0.00291124
0.00284925
0.00285637
0.00238346
0.00202216
0.00240338
0.00297585
0.00229629
0.00276248
0.00226867
0.00173936
0.00301729
0.00239688
0.00239688
0.00298164
0.00303328
0.0017132
0.00296781
0.00323649
0.00292849
0.00282595
0.00304551
0.00282595
0.0025846
0.0031164
0.00309052
0.00175806
0.00300168
0.00274944
0.00207611
0.00270579
0.00305848
0.00295012
0.000145685
0.0031988
0.00302872
0.0010806
0.00185725
0.00316743
0.00197206
0.00290209
0.00303954
0.00191809
0.00286001
0.00204198
0.00186096
0.00133856
0.00164959
0.00169701
0.00174442
0.00176802
0.00140278
0.00167327
0.00201894
0.00153307
0.00204198
0.00186096
0.00162599
0.00172074
0.00162599
0.00133856
0.00133856
0.00155601
0.00197368
0.00146628
0.00176802
0.00140278
0.00188373
0.00192884
0.00133856
0.00195125
0.00164959
0.00181483
0.00151044
0.00144476
0.00181483
0.00192884
0.00151044
0.0017915
0.00169701
0.00174442
0.00164959
0.00174442
0.00188373
0.00197368
0.00197368
0.00197368
0.00188373
0.00172074
0.00128728
0.00190635
0.00160251
0.00186096
0.00142361
0.00172074
0.00148817
0.00133856
0.00140278
0.00142361
0.00151044
0.00160251
0.00169701
0.00146628
0.00153307
0.00172074
0.00133856
0.00157917
0.00148817
0.00164959
0.0013609
0.00155601
0.00140278
0.0017915
0.00197368
0.00131454
0.00169701
0.00197368
0.00195125
0.00153307
0.00186096
0.00169701
0.00172074
0.00140278
0.00197368
0.00162599
0.00195125
0.00199621
0.00151044
0.00206544
0.00204198
0.00206544
0.00174442
0.00162599
0.00140278
0.00201894
0.00204198
0.00188373
0.00181483
0.00169701
0.00144476
0.00204198
0.00172074
0.00148817
0.00201894
0.0017915
0.00155601
0.00195125
0.00206544
0.00172074
0.00144476
0.00133856
0.00155601
0.00199621
0.00208938
0.00153307
0.00148817
0.00153307
0.00133856
0.00183799
0.00133856
0.00131454
0.00167327
0.00151044
0.00188373
0.00174442
0.00138204
0.00148817
0.00146628
0.00186096
0.00172074
0.00142361
0.00144476
0.00133856
0.00157917
0.00138204
0.00153307
0.00155601
0.00174442
0.00160251
0.00176802
0.00197368
0.00188373
0.00188373
0.00201894
0.0017915
0.00157917
0.00208938
0.00174442
0.00172074
0.00176802
0.00199621
0.00174442
0.00144476
0.00148817
0.00204198
0.00186096
0.0017915
0.00204198
0.00190635
0.00144476
0.0013609
0.00133856
0.00208938
0.00204198
0.00160251
0.00162599
0.00181483
0.00131454
0.00176802
0.00201894
0.00183799
0.00174442
0.0017915
0.00142361
0.00162599
0.00160251
0.00142361
0.00206544
0.00199621
0.00153307
0.00160251
0.00188373
0.00155601
0.00206544
0.00169701
0.00160251
0.00160251
0.00190635
0.00208938
0.00160251
0.00172074
0.00133856
0.00146628
0.00211391
0.00131454
0.00211391
0.00201894
0.00172074
0.00151044
0.00201894
0.00162599
0.00211391
0.00148817
0.00181483
0.00144476
0.00146628
0.000302396
0.00151044
0.00204198
0.000302396
0.000102983
0.000614307
0.000437492
0.00190635
0.000591718
0.000542512
0.00140278
0.000940648
0.00122392
0.00127355
0.00204198
0.000894551
0.000255516
0.000498598
6.68524e-05
0.000891368
0.000995545
0.00127355
0.00110787
0.00114323
0.0012583
0.0013143
0.000859808
0.000873203
0.00160251
0.0013069
0.000312161
0.000872855
0.00132509
0.00162599
0.00129807
0.00131403
0.00131677
0.00109365
0.00135854
0.00118686
0.00107853
0.00129429
0.000891678
0.00133067
0.000702723
0.00144476
0.000588977
0.00128965
0.00133707
0.00104551
0.00118411
0.00113931
0.00136086
0.0012369
0.00122978
0.00120762
0.00126198
0.0013349
0.00125052
0.0013349
0.00136876
0.00155601
0.00119939
0.000817018
0.00164959
0.00125895
0.000971731
0.000423635
0.00127664
0.00153307
0.000489909
3.72477e-05
0.00137273
0.00136876
0.000970381
0.0012286
0.000932355
0.00138421
0.00132577
0.00131085
0.000758041
0.00133869
6.57049e-05
0.00138548
0.000968155
0.00140233
0.000584952
0.00140182
0.000467759
3.71403e-05
0.00206544
0.00140821
0.00144476
0.00127241
0.000748172
0.00172074
0.0013867
0.00137361
0.00130798
0.00132577
0.00132149
0.00140939
0.00206544
0.00141634
0.001421
0.00124009
0.00137319
0.00133959
0.00132577
0.00134224
0.00119509
0.00160251
0.00134998
0.00119928
0.00125822
0.000622497
0.00141899
0.000143007
0.00137122
0.00143886
0.00124372
0.000998727
0.0010833
0.00109823
0.00127396
0.00132931
0.00148817
0.00146522
0.00136066
0.00201894
0.00141231
0.00116169
0.00146017
0.00143794
0.00128154
0.00192884
0.000858334
0.00135338
0.00146231
0.00147237
0.00137122
0.00140769
0.00146683
0.00118519
0.00148183
0.00146181
0.000788986
0.00143456
0.000365032
0.00124796
0.00114854
0.00149535
0.000966478
0.00153307
0.00146181
0.00211391
3.71388e-05
0.00140469
0.001423
0.000431813
0.00148983
0.0007581
0.00117991
0.00150152
0.00150929
0.00134177
0.000114559
0.00147553
0.00115955
0.0014705
0.00149571
0.00150335
0.00151323
0.00151172
0.00211391
0.00110057
0.00153149
7.94569e-05
0.00148855
0.00160251
0.00197368
0.0012572
0.00149642
0.00145271
0.000251372
0.00139111
0.00155142
0.0009915
0.00137083
0.0015148
0.000846549
0.00201894
0.00155944
3.7134e-05
0.00155601
0.00128556
0.00125529
0.00137466
0.001579
0.00137026
0.00174442
0.00155601
0.00128888
0.00153908
0.00136135
0.00156742
0.00137729
0.00153015
0.00160119
0.00154531
0.00145482
0.00140883
0.00133864
0.00159904
0.00156097
0.000564734
0.00108468
0.00157875
0.00162304
0.00211391
0.00172074
0.00162534
0.00150037
0.00151852
0.0017915
0.0015078
3.7134e-05
0.00115606
0.00107328
0.00206544
0.0016026
0.00154553
0.00163799
0.00128182
0.00190635
0.00159229
0.000455867
0.00158679
0.00119498
0.00195125
0.00162029
0.00158957
0.00159229
0.00156198
0.00153487
0.00119244
0.00158979
0.00055773
0.00150971
0.00128808
0.000635393
0.00116161
0.000473506
0.00165555
0.00160383
0.00183799
0.00147607
0.00165228
0.00134102
0.000224103
0.00144564
0.00169038
0.00169133
0.00169133
0.00165902
0.00165732
0.000832234
0.00161339
0.00162443
0.00158566
0.00170646
0.00142304
0.00153212
0.00163494
0.00158978
0.000832234
0.00132968
0.000919247
0.00174442
0.0012391
0.00171999
0.00170624
0.00147717
0.00144887
0.00173384
0.00174435
0.00211391
0.00138439
0.00143168
0.00174225
0.000855867
0.00174326
0.00171927
0.000855867
0.00170381
0.00129463
0.00170653
0.000298888
0.00110393
0.00127728
0.000781895
0.00174203
0.00176634
0.00175117
0.000953082
0.00174203
0.00119416
0.00176634
0.00137209
0.00172484
0.00103423
0.00206544
0.00120744
0.00167743
0.00139034
0.00155129
0.0012841
0.00181483
0.00163245
0.00156273
0.00164239
0.00186096
0.000946266
0.00170339
0.00211391
0.00190635
0.00179686
0.00180712
0.00177689
0.00168956
0.00183799
0.00186096
3.7134e-05
0.00159563
0.00183614
0.00181042
0.00183401
0.00151863
0.00117094
0.0014336
0.000997912
0.00183585
0.000544782
0.000628581
0.00183144
0.000803107
0.0012661
3.7134e-05
0.00151863
0.00188233
0.00177687
0.00183163
0.00111975
0.000223721
0.00165112
0.00189149
0.00185573
0.00173367
0.00159765
0.000511602
0.00195125
0.00178285
0.000787499
0.00100082
0.00182418
0.00185263
0.00125432
0.00192221
0.000863749
0.00119855
0.00125432
0.00130172
0.00173964
0.00191525
0.00194319
0.0018908
0.00195125
0.00176187
0.00174982
0.00195919
0.00193928
0.000704582
0.00197368
0.00197263
0.00195136
0.00173124
0.00176187
0.00162477
0.00195136
0.00199016
0.00178428
0.00194894
0.00192452
0.00184265
0.00199744
0.0010023
0.000543479
0.000630691
0.00154867
0.00202969
0.00196165
0.00167857
0.00196576
0.000945709
0.00173517
0.00186037
0.00204083
0.00204015
0.00111081
0.00197825
0.0019349
0.00172038
0.00159362
0.00203224
0.00208903
0.00189021
0.00166245
0.00197559
0.00141199
0.00190858
0.00163774
0.00211391
3.7134e-05
0.00177234
0.00208151
0.00210541
0.0018887
0.0021138
)


// ************************************************************************* //
