/*--------------------------------*- C++ -*----------------------------------*\
  =========                 |
  \\      /  F ield         | OpenFOAM: The Open Source CFD Toolbox
   \\    /   O peration     | Website:  https://openfoam.org
    \\  /    A nd           | Version:  7
     \\/     M anipulation  |
\*---------------------------------------------------------------------------*/
FoamFile
{
    version     2.0;
    format      ascii;
    class       volScalarField;
    location    "0.13";
    object      alphat;
}
// * * * * * * * * * * * * * * * * * * * * * * * * * * * * * * * * * * * * * //

dimensions      [1 -1 -1 0 0 0 0];

internalField   nonuniform List<scalar> 
48560
(
0.00510933
0.00505724
0.00500394
0.00495162
0.00490091
0.00485225
0.00480616
0.004763
0.00472315
0.00468694
0.00465466
0.00462658
0.00460296
0.00458404
0.00457005
0.0045612
0.00455773
0.00455986
0.00456783
0.00458189
0.00460229
0.00462932
0.00466329
0.00470452
0.00475341
0.00481036
0.00487574
0.00494965
0.00505951
0.00518418
0.00532267
0.00547357
0.00563416
0.00580098
0.0059693
0.00614113
0.00631568
0.00649727
0.00668965
0.00690637
0.00715038
0.00742026
0.00771503
0.0080152
0.00828194
0.00837762
0.0079731
0.00694019
0.00546868
0.00391593
0.00126478
0.000499803
0.000550339
0.00057458
0.000615285
0.000635962
0.0006815
0.000708558
0.000775468
0.000834871
0.000960503
0.00103639
0.00108339
0.000986559
0.00108372
0.000849224
0.000856304
0.000890368
0.000947918
0.00101945
0.00110953
0.00120322
0.00130716
0.00140071
0.00148573
0.00153804
0.00154223
0.00146079
0.00128432
0.0010751
0.000947195
0.000984854
0.00104474
0.00104342
0.00101931
0.000973674
0.000931097
0.000894686
0.000871945
0.000857052
0.000854229
0.000853004
0.000852291
0.000848707
0.000843067
0.000831384
0.000813981
0.000787493
0.000751128
0.000702829
0.00484585
0.00483089
0.00481648
0.00480365
0.00479292
0.00478471
0.00477945
0.00477744
0.00477903
0.00478446
0.00479403
0.00480795
0.00482646
0.00484976
0.00487807
0.00491161
0.00495059
0.00499517
0.0050455
0.00510164
0.00516375
0.00523188
0.00530616
0.00538657
0.00547311
0.00556562
0.00566384
0.00576678
0.00591608
0.00607268
0.00623814
0.00641067
0.0065929
0.00678583
0.00699805
0.00723606
0.00750601
0.00781055
0.00815235
0.00852676
0.00893076
0.00933447
0.00965628
0.00973682
0.00945504
0.00871785
0.00757382
0.00623732
0.00511143
0.00460691
0.00507327
0.00904728
0.00945956
0.00991219
0.0103093
0.01061
0.0102356
0.0104
0.0097142
0.00989573
0.00897488
0.00868236
0.00777498
0.00820604
0.00716813
0.00711939
0.00693648
0.00696788
0.00676145
0.00672301
0.00669262
0.00676881
0.00685389
0.00699397
0.00712505
0.00718041
0.00700452
0.00648413
0.00673289
0.00642508
0.00704642
0.00995714
0.00904562
0.00847816
0.0081916
0.00817035
0.00856038
0.00958177
0.0107124
0.012142
0.0136121
0.0151027
0.0167037
0.0185533
0.0205782
0.0229583
0.0258311
0.0300275
0.0369559
0.0528135
0.00520554
0.00522044
0.00523796
0.00525817
0.00528148
0.00530818
0.00533854
0.0053727
0.00541081
0.00545294
0.00549918
0.00554954
0.00560416
0.00566304
0.00572627
0.0057938
0.00586564
0.00594165
0.00602173
0.00610636
0.00619536
0.00628899
0.00638732
0.00649067
0.00659919
0.00671334
0.00683354
0.00695963
0.00715457
0.00737077
0.00760867
0.00787345
0.00816568
0.00848997
0.00884808
0.0092413
0.00967007
0.0101216
0.0105699
0.0109345
0.0111542
0.0110999
0.0107369
0.0100237
0.0090342
0.00787468
0.0068914
0.00625212
0.00621193
0.00693544
0.00896761
0.014204
0.0146892
0.0152066
0.0148706
0.0159231
0.0148242
0.0161095
0.0141407
0.0149853
0.0131527
0.0126932
0.0114297
0.0115838
0.0104462
0.010715
0.0108317
0.0114201
0.0112229
0.0118133
0.0117094
0.0116265
0.0116034
0.0116001
0.0116406
0.0116795
0.0117036
0.0115213
0.0113873
0.0102251
0.0145452
0.0230199
0.0211959
0.020149
0.0198092
0.0165165
0.0190669
0.0195392
0.0258855
0.0318223
0.0386258
0.0429633
0.0475671
0.0529654
0.0592815
0.0672685
0.0697768
0.0636186
0.0592189
0.0580421
0.00629856
0.00632825
0.0063617
0.00639978
0.00644175
0.00648885
0.00654029
0.00659693
0.00665792
0.00672395
0.00679456
0.00687047
0.00695141
0.00703804
0.00713028
0.00722877
0.00733365
0.00744566
0.00756528
0.00769284
0.00782875
0.00797352
0.00812739
0.00829102
0.00846506
0.00865037
0.00884752
0.00905752
0.00937539
0.00972065
0.0100926
0.010492
0.0109128
0.0113469
0.01177
0.0121502
0.0124374
0.0125723
0.0125143
0.012213
0.0116745
0.0108999
0.0100028
0.00909914
0.00828871
0.00771661
0.00754572
0.00789062
0.00883871
0.0105877
0.0138508
0.0181511
0.0194493
0.0206601
0.0196316
0.0210331
0.0191191
0.0200132
0.0179698
0.0183776
0.0164769
0.0156706
0.0145916
0.0145782
0.0144101
0.0144292
0.0154212
0.0164503
0.0168048
0.0170125
0.0173072
0.0176551
0.0180519
0.0184746
0.0185946
0.0167343
0.0139864
0.0134947
0.0149953
0.0173609
0.0297882
0.0434108
0.0412316
0.0402566
0.0324961
0.030083
0.0328657
0.0306776
0.033176
0.033682
0.0377839
0.0409484
0.0464348
0.0509813
0.0565193
0.0610301
0.0641498
0.0647124
0.0641721
0.0638483
0.00814576
0.00818883
0.00824001
0.0082997
0.00836717
0.00844366
0.00852846
0.00862256
0.00872519
0.00883722
0.00895812
0.00908877
0.0092288
0.00937902
0.00953915
0.00970991
0.00989099
0.0100829
0.0102854
0.0104988
0.0107227
0.0109572
0.0112029
0.0114598
0.0117275
0.0120049
0.0122894
0.012579
0.0129565
0.0133246
0.013649
0.013917
0.0140882
0.0141475
0.0140706
0.0138425
0.0134496
0.0128965
0.0121949
0.0114626
0.0107006
0.00999369
0.00939353
0.00898905
0.00886949
0.00913346
0.00984332
0.0110332
0.0128053
0.0145264
0.0185544
0.0205018
0.0221461
0.0229203
0.0228977
0.0237654
0.0227115
0.0232876
0.0218372
0.0220476
0.0205884
0.0197336
0.0188536
0.0189804
0.0198201
0.0194333
0.0216724
0.0224366
0.0245049
0.025303
0.0265941
0.0270816
0.0270483
0.0258979
0.0234248
0.0202021
0.0174896
0.0170815
0.0170714
0.0221088
0.0336045
0.0407553
0.0428447
0.028638
0.0266608
0.0273296
0.0286563
0.0288287
0.0324392
0.0341971
0.0393583
0.0430437
0.0495121
0.0550696
0.0622131
0.0667028
0.0685924
0.0697147
0.0709072
0.0717008
0.011363
0.0114118
0.0114789
0.0115606
0.0116583
0.0117705
0.011898
0.0120397
0.0121958
0.0123654
0.0125486
0.0127447
0.0129536
0.0131748
0.0134077
0.0136512
0.0139035
0.0141618
0.0144219
0.0146805
0.0149319
0.015171
0.0153895
0.0155811
0.0157389
0.0158597
0.0159406
0.0159952
0.0159353
0.0158173
0.0155729
0.0152479
0.0148005
0.0142702
0.0136797
0.0130637
0.0124303
0.0118162
0.0112477
0.0107659
0.0104017
0.0102154
0.0102584
0.0105947
0.0112725
0.0123166
0.0137279
0.0155527
0.0156262
0.0173174
0.0204857
0.0222784
0.0242927
0.0255333
0.0261314
0.0263966
0.0263609
0.0262242
0.02561
0.0252509
0.0244495
0.0236182
0.0234069
0.0240629
0.0258449
0.0253862
0.0284871
0.0290089
0.0322177
0.0324188
0.0346492
0.0336117
0.0333111
0.0301688
0.0266212
0.022432
0.0201856
0.0202035
0.0210771
0.0262431
0.0335043
0.0377305
0.0377156
0.0299633
0.0307796
0.0303185
0.0316324
0.03213
0.0350262
0.037143
0.0416608
0.0451479
0.0508313
0.0561783
0.0631549
0.0693888
0.0730202
0.0753358
0.0770306
0.0780991
0.0164158
0.0164098
0.0164372
0.0164844
0.0165594
0.0166513
0.0167643
0.0168881
0.0170234
0.0171613
0.0173016
0.0174362
0.0175635
0.017676
0.0177712
0.0178433
0.0178906
0.0179092
0.0178934
0.0178417
0.0177509
0.0176205
0.0174492
0.0172386
0.0169895
0.0167055
0.0163898
0.0160605
0.015568
0.0150891
0.0145631
0.0140626
0.0135458
0.0130758
0.0126254
0.0122447
0.0119261
0.0117175
0.0116262
0.0117014
0.0119655
0.0124659
0.0132231
0.0142581
0.0155672
0.0171393
0.0189973
0.0189295
0.0184367
0.0203955
0.0224521
0.0239231
0.0260082
0.0273755
0.0279915
0.0282542
0.028362
0.0282468
0.0278261
0.0275133
0.0271079
0.0268351
0.0272492
0.0286766
0.0308334
0.0307703
0.0338548
0.0345522
0.0376535
0.0380387
0.040129
0.0387583
0.037909
0.0338295
0.0297643
0.0255255
0.0236306
0.0231697
0.0244189
0.0290098
0.0327359
0.0350721
0.0335573
0.0306312
0.0321504
0.0322161
0.0338246
0.0349211
0.0378831
0.0404928
0.0450397
0.0495479
0.0560859
0.0627206
0.0693353
0.0747066
0.0781278
0.0809556
0.0828151
0.0840066
0.0219643
0.021762
0.0215763
0.0213995
0.0212382
0.0210785
0.0209242
0.0207622
0.0205953
0.0204126
0.0202172
0.0200012
0.0197678
0.0195113
0.0192349
0.0189353
0.0186163
0.0182785
0.0179328
0.0175748
0.0172122
0.0168434
0.0164746
0.016106
0.0157428
0.0153862
0.0150404
0.0147153
0.0143519
0.0140548
0.013774
0.0135602
0.0133907
0.0133062
0.0132947
0.0133935
0.0136027
0.0139569
0.0144657
0.0151579
0.0160374
0.0171158
0.0183829
0.0198317
0.0214507
0.0232689
0.0230966
0.0210813
0.0211817
0.0227999
0.0239302
0.0251868
0.0274889
0.0289667
0.0294505
0.0297574
0.0298468
0.0296924
0.0293346
0.0289294
0.0288515
0.029008
0.030117
0.032126
0.0345878
0.0352148
0.0379907
0.0388992
0.0417747
0.0426551
0.0442915
0.0429773
0.0411164
0.036443
0.0318882
0.0280286
0.0265498
0.0262178
0.0276737
0.0309502
0.0329553
0.0352374
0.0340836
0.0336402
0.0347207
0.0353357
0.0366745
0.0382457
0.0409586
0.0440936
0.0486075
0.0537845
0.0603503
0.0674875
0.0747173
0.0803069
0.0839378
0.0869143
0.0889197
0.0902094
0.0235074
0.0230862
0.022657
0.0222419
0.0218328
0.0214335
0.0210394
0.0206513
0.0202682
0.0198901
0.019518
0.0191512
0.0187922
0.0184401
0.0180978
0.0177646
0.0174439
0.0171351
0.0168416
0.0165643
0.0163075
0.0160727
0.0158655
0.0156883
0.0155476
0.0154478
0.0153971
0.0154066
0.0154302
0.0155363
0.0156963
0.0159356
0.0162427
0.0166366
0.0171203
0.0177173
0.0184205
0.019252
0.020201
0.021282
0.0224743
0.0237846
0.0251925
0.0267165
0.0283687
0.027928
0.024856
0.0235565
0.023654
0.0247996
0.0251945
0.0263198
0.0286485
0.0300434
0.0303635
0.030661
0.0306034
0.0304849
0.0300302
0.0296609
0.0297553
0.0303055
0.0318339
0.0342305
0.0369784
0.0383386
0.0405619
0.0416109
0.0442236
0.0453913
0.0465792
0.0454419
0.0429671
0.0384841
0.0341575
0.030938
0.0294896
0.0291054
0.0303195
0.0321993
0.0332388
0.0353657
0.0350004
0.03581
0.0368512
0.0378795
0.0392819
0.0413298
0.0442421
0.0479711
0.0528797
0.0587244
0.0658693
0.0732562
0.0804823
0.0860837
0.0900455
0.0930329
0.0952298
0.0965955
0.0214522
0.0211009
0.0207433
0.020409
0.0200814
0.0197726
0.0194722
0.0191893
0.0189183
0.0186664
0.0184314
0.0182176
0.018024
0.0178537
0.0177074
0.017588
0.017498
0.0174408
0.0174213
0.0174441
0.0175163
0.0176444
0.0178379
0.018106
0.0184615
0.0189173
0.0194914
0.0202013
0.0206409
0.0211491
0.0217001
0.0223113
0.0229563
0.0236507
0.0244036
0.0252353
0.0261228
0.0270863
0.0281038
0.0291929
0.0303328
0.0315434
0.0328163
0.0341882
0.0328506
0.0292724
0.0269311
0.0257486
0.0257146
0.0263743
0.0262428
0.0272323
0.0294311
0.0306961
0.0308615
0.0311001
0.0308868
0.0307611
0.0301767
0.0298166
0.0300084
0.0308069
0.0325648
0.0351695
0.0381927
0.0401383
0.0418666
0.0430255
0.0454252
0.0468001
0.0478787
0.0470122
0.0444238
0.0403481
0.036441
0.0337638
0.0323304
0.0318353
0.0323821
0.0332618
0.0339652
0.0363994
0.0367992
0.0382462
0.0393427
0.0405857
0.0421547
0.0445096
0.0477932
0.0519339
0.0574649
0.063843
0.0717085
0.0793207
0.0868535
0.0921459
0.0963931
0.0992328
0.101679
0.103093
0.0199064
0.0197749
0.019642
0.0195324
0.0194282
0.0193449
0.0192708
0.0192198
0.0191851
0.0191794
0.0191993
0.0192554
0.0193449
0.0194756
0.0196472
0.0198677
0.0201399
0.0204726
0.0208715
0.021347
0.0219077
0.0225652
0.0233308
0.0242181
0.0252402
0.0264115
0.0277471
0.0292538
0.0298529
0.0304733
0.0311007
0.0317459
0.0323837
0.0330246
0.0336952
0.0344076
0.0351419
0.0359113
0.0367019
0.037529
0.0383871
0.0392993
0.0402719
0.0368728
0.0337256
0.030753
0.0287748
0.0275189
0.0273418
0.0275575
0.0271001
0.027932
0.0298713
0.0309599
0.0309559
0.0310873
0.0307424
0.030578
0.0298746
0.0295262
0.0297544
0.0306751
0.0324702
0.0351415
0.0383349
0.0406883
0.0421468
0.043453
0.0456328
0.0472763
0.0485013
0.0481283
0.0459332
0.0425693
0.0392034
0.0367892
0.0350442
0.0341725
0.0340055
0.0341647
0.0347619
0.0374439
0.0385249
0.0404534
0.0418034
0.0432606
0.0451163
0.0478118
0.0516317
0.0562424
0.0625865
0.0694453
0.0781148
0.0856685
0.0935209
0.0984469
0.102958
0.1056
0.108287
0.109741
0.0206823
0.020784
0.0208934
0.021027
0.0211695
0.0213366
0.0215182
0.0217301
0.021967
0.0222447
0.0225612
0.0229316
0.0233537
0.0238378
0.0243817
0.0249957
0.0256812
0.0264484
0.0273002
0.028247
0.0292927
0.0304451
0.0317101
0.0330916
0.0345911
0.036206
0.0379308
0.0397443
0.0401639
0.0405705
0.0409656
0.0413585
0.041734
0.0420949
0.0424744
0.0428749
0.0432828
0.0437037
0.044135
0.0434454
0.0424478
0.0409386
0.0392487
0.0368881
0.0345217
0.0319673
0.0301135
0.0288861
0.0284815
0.0283578
0.0276908
0.0284323
0.0299885
0.0308786
0.0306952
0.0307024
0.030266
0.030046
0.0292646
0.0289227
0.0291614
0.0301036
0.0318175
0.0344299
0.0376756
0.0403243
0.0418816
0.0433568
0.0453705
0.0474441
0.0490418
0.0494329
0.0479232
0.0453255
0.042347
0.0398971
0.0376296
0.0362325
0.0353721
0.0350717
0.0357028
0.0386886
0.0403552
0.0427349
0.0444147
0.046087
0.0482458
0.0513436
0.0557587
0.0609449
0.0681473
0.075511
0.0849221
0.0923909
0.100389
0.104978
0.109644
0.112162
0.115006
0.116515
0.023871
0.0242047
0.0245581
0.0249383
0.0253321
0.0257529
0.0261917
0.0266632
0.0271631
0.0277074
0.0282958
0.0289444
0.0296544
0.0304358
0.0312825
0.0321997
0.0331816
0.034232
0.0353453
0.0365233
0.037761
0.0390583
0.0404012
0.0417807
0.0431774
0.0445723
0.0459417
0.0472661
0.0473757
0.0471216
0.0461407
0.0443646
0.0434725
0.0423923
0.041636
0.0408701
0.0402278
0.0394744
0.0388754
0.0382204
0.0377275
0.037115
0.0365238
0.0355485
0.0342088
0.0325816
0.0311475
0.0298535
0.029233
0.0288348
0.0280504
0.028819
0.0298658
0.0305098
0.0301183
0.0299922
0.0295005
0.0292279
0.0284113
0.0280814
0.0283278
0.0292364
0.030797
0.0332499
0.0364358
0.0393586
0.0413178
0.0429587
0.0448725
0.0475117
0.049652
0.0511119
0.0505475
0.0487643
0.0459094
0.0430279
0.0401106
0.0380844
0.0365703
0.0359377
0.0365946
0.0398317
0.0420611
0.0449362
0.0470839
0.0490501
0.0515429
0.0551648
0.0602399
0.066165
0.0742289
0.082144
0.0920933
0.0995065
0.107436
0.11173
0.116376
0.118838
0.121751
0.123327
0.0286391
0.029186
0.029762
0.0303643
0.0309799
0.0316177
0.0322672
0.0329373
0.0336214
0.0343305
0.0350628
0.0358316
0.0366382
0.037494
0.03839
0.0393206
0.0402696
0.0412278
0.0421785
0.0431105
0.0440057
0.0448455
0.0456053
0.0462637
0.0467945
0.0471768
0.0460299
0.0441998
0.0438355
0.0411323
0.0406503
0.0390285
0.0384373
0.0373583
0.0367187
0.0360279
0.0354526
0.0349229
0.0343458
0.0338509
0.0333565
0.0329381
0.0325807
0.032302
0.0321208
0.0318046
0.0311656
0.0303061
0.0297251
0.029133
0.028376
0.0290921
0.0295542
0.0298656
0.0292438
0.0289934
0.028486
0.028201
0.0274178
0.0271257
0.0273766
0.0282177
0.0295756
0.0317916
0.0348199
0.0379726
0.0405092
0.0423688
0.0442643
0.0475953
0.0504613
0.0532981
0.0538778
0.052807
0.0496827
0.0460173
0.0423969
0.0396903
0.0376654
0.0367379
0.0374123
0.0408376
0.0435782
0.0470393
0.0498158
0.0521625
0.0550355
0.0593109
0.0651268
0.071951
0.0808752
0.0894149
0.0996946
0.10702
0.114663
0.11866
0.123099
0.125537
0.128436
0.13008
0.033505
0.0341769
0.0348777
0.035598
0.0363239
0.0370598
0.0377922
0.0385225
0.039238
0.0399397
0.0406187
0.0412793
0.0419192
0.0425465
0.0431618
0.0437581
0.0443123
0.0448038
0.0452071
0.0455012
0.0450482
0.0440945
0.043266
0.0423673
0.0413861
0.0402412
0.0392729
0.0381801
0.0380426
0.0358506
0.0358006
0.0343868
0.0341885
0.0332984
0.0329704
0.032503
0.0320653
0.0317897
0.0313305
0.0309561
0.0305539
0.0302433
0.0299474
0.029788
0.0297265
0.0297551
0.0298589
0.0300506
0.0298863
0.0296172
0.0288644
0.0294109
0.0292744
0.0290911
0.0281345
0.027714
0.0271988
0.0269285
0.0262071
0.0259617
0.0262378
0.0270311
0.028202
0.0301752
0.0329854
0.0362543
0.0392773
0.0414879
0.0436905
0.0475834
0.0514781
0.0558739
0.0578398
0.0572719
0.0534514
0.0487837
0.0443781
0.041032
0.0386339
0.0374332
0.0380819
0.041595
0.0448199
0.0490015
0.0524957
0.0554801
0.0588743
0.0638804
0.0705875
0.0784321
0.0882378
0.0973456
0.107738
0.114879
0.122067
0.125722
0.129757
0.132136
0.134948
0.13665
0.0368338
0.0374724
0.038127
0.0387876
0.0394403
0.0400878
0.0407158
0.0413214
0.0418882
0.0424093
0.042868
0.0432569
0.0435649
0.0437915
0.0439362
0.0440072
0.0433595
0.0419391
0.0402483
0.0386209
0.0371357
0.0359132
0.034934
0.0341638
0.03349
0.0328331
0.0323328
0.0319297
0.0320041
0.0304084
0.0307628
0.0295348
0.029741
0.0290723
0.0290802
0.0288144
0.0285785
0.0284511
0.0281829
0.0280753
0.0279679
0.0279741
0.027988
0.0280468
0.028097
0.0282101
0.0285109
0.0289488
0.0294193
0.0298425
0.0294223
0.0296611
0.0288495
0.0279766
0.0266585
0.0260974
0.0256344
0.0254788
0.0249537
0.0248241
0.0251387
0.0258788
0.0268376
0.0285201
0.0309699
0.0341472
0.0373835
0.0402092
0.0432877
0.04726
0.0526661
0.0585402
0.0621426
0.0617389
0.0568433
0.0511785
0.0461128
0.0422643
0.0395553
0.0381215
0.0386769
0.0422119
0.0459639
0.0509237
0.0552496
0.0593511
0.0634878
0.0692271
0.077067
0.0859671
0.096683
0.106076
0.116201
0.122868
0.129453
0.132755
0.136226
0.138425
0.141068
0.142811
0.0375258
0.037974
0.0384178
0.0388524
0.0392658
0.039661
0.0400277
0.0403623
0.0406485
0.0408806
0.0410407
0.041116
0.0410869
0.0409419
0.0406701
0.0377857
0.0359849
0.0349062
0.0335769
0.0318955
0.0301814
0.0286615
0.0274103
0.0264912
0.0258644
0.0254602
0.0253125
0.0254189
0.0258363
0.0252154
0.0261042
0.025047
0.0256186
0.0250766
0.0253654
0.0251348
0.0251515
0.0249717
0.0249371
0.0249712
0.0250605
0.0252046
0.0255022
0.0258348
0.0263301
0.0267941
0.0273328
0.0278351
0.0285967
0.0294841
0.0300613
0.0302258
0.0291267
0.027334
0.0252421
0.0242287
0.023721
0.0236664
0.0233442
0.0232916
0.0236551
0.0244143
0.0252225
0.0267289
0.0288036
0.0318315
0.0350961
0.0385716
0.0426297
0.0465955
0.0536479
0.0608994
0.0661514
0.065596
0.0596076
0.0530393
0.0475034
0.0433688
0.0404266
0.0388132
0.0392061
0.0427108
0.0470498
0.05287
0.0584561
0.0643207
0.069572
0.0762619
0.0855941
0.0955314
0.106999
0.116039
0.125096
0.130595
0.136281
0.139396
0.142346
0.144187
0.146441
0.148167
0.035397
0.0355754
0.0357319
0.035869
0.0359777
0.0360622
0.0361171
0.036139
0.0361157
0.036045
0.0359174
0.0357229
0.0354456
0.0350703
0.0345795
0.0339618
0.0324303
0.0296372
0.0280227
0.026476
0.0245931
0.0226431
0.0210192
0.019777
0.0190168
0.0186524
0.0185863
0.0174829
0.0179495
0.018412
0.0188577
0.0193699
0.0199297
0.0205996
0.0212886
0.0217868
0.0221391
0.0220595
0.0223019
0.0223807
0.0226131
0.0227468
0.023103
0.0234074
0.0239809
0.0246229
0.0254933
0.0263775
0.0274005
0.0286027
0.0296237
0.0301392
0.0282863
0.0255441
0.0230038
0.0217297
0.0212632
0.021485
0.0216965
0.0219912
0.0223907
0.0233202
0.0238754
0.0252172
0.0266641
0.0293117
0.0323952
0.036146
0.0406818
0.0461362
0.0535622
0.0627025
0.0689705
0.0679801
0.0611851
0.0542126
0.0485457
0.0443841
0.0413641
0.0396377
0.0398143
0.0431759
0.0478999
0.0546339
0.061922
0.070191
0.0774878
0.0860827
0.0973702
0.108541
0.119938
0.127576
0.134374
0.138111
0.142392
0.145523
0.148248
0.149648
0.150974
0.152392
0.0310511
0.0309794
0.030879
0.0307578
0.0306107
0.0304406
0.0302427
0.030016
0.0297554
0.029462
0.0291301
0.0287581
0.0283374
0.0278604
0.0273129
0.0266809
0.0259472
0.0251023
0.0241464
0.021863
0.0199682
0.0179868
0.0160838
0.0145499
0.013477
0.0128494
0.012608
0.0113172
0.0117068
0.0120793
0.0124332
0.0128594
0.0133126
0.0138742
0.0144511
0.0150949
0.0157718
0.0165098
0.0172941
0.0181526
0.019088
0.0201284
0.0206329
0.0209356
0.0214853
0.0221562
0.0231719
0.0243621
0.025901
0.0277406
0.0296827
0.0324043
0.0320694
0.027928
0.0229438
0.0201022
0.0189295
0.0189786
0.0192449
0.0200104
0.0202416
0.0214603
0.0217339
0.0231824
0.024198
0.0268612
0.0298308
0.0335963
0.0378693
0.0452923
0.0528459
0.0637084
0.070587
0.0688229
0.0616021
0.0545903
0.0490235
0.0449189
0.0419393
0.0400669
0.0397874
0.0423755
0.0475244
0.0549686
0.0639349
0.0748165
0.0856432
0.0966629
0.109304
0.12161
0.129054
0.133022
0.137076
0.141118
0.145053
0.148741
0.15202
0.153949
0.154688
0.155554
0.0254657
0.0252311
0.0249698
0.0246925
0.0243968
0.0240833
0.0237493
0.0233951
0.023019
0.0226221
0.0222023
0.0217598
0.0212916
0.0207959
0.0202668
0.0196977
0.0190765
0.0183898
0.0176217
0.0167627
0.01582
0.0148045
0.0134785
0.0111375
0.00943136
0.00846319
0.00826014
0.00730573
0.00752608
0.00774864
0.00795022
0.00822027
0.00850527
0.00888149
0.00927048
0.00972517
0.0102083
0.0107532
0.0113339
0.0119861
0.0127047
0.0135246
0.0144465
0.0155013
0.0166937
0.0180408
0.0195315
0.0209277
0.0225593
0.024474
0.0262335
0.0277691
0.0287831
0.0254613
0.019771
0.0176461
0.0171574
0.0173054
0.0177632
0.019229
0.0192852
0.0207563
0.020903
0.0223475
0.0228709
0.0249311
0.0268261
0.0301927
0.0341523
0.0405085
0.0501124
0.0582595
0.0646082
0.0631946
0.058002
0.0523312
0.047886
0.0444579
0.0417644
0.0398839
0.0393499
0.0417036
0.0464092
0.0532178
0.062735
0.0741059
0.0874876
0.0952921
0.0989343
0.102936
0.107319
0.112105
0.117307
0.122913
0.128866
0.135074
0.141342
0.147345
0.152581
0.156372
0.0196241
0.0193297
0.019016
0.0186921
0.0183586
0.018014
0.0176583
0.0172908
0.0169116
0.0165205
0.0161171
0.0157016
0.0152733
0.0148324
0.0143779
0.0139095
0.0134245
0.0129191
0.0123845
0.0118081
0.0111734
0.0104686
0.00969961
0.00887369
0.00735136
0.00587804
0.00546193
0.00512527
0.00517014
0.00523531
0.00529699
0.0054106
0.005536
0.00572238
0.00591707
0.00616126
0.00642387
0.00673467
0.00706796
0.00745625
0.00788913
0.00839359
0.00898479
0.00968228
0.0104958
0.0114407
0.0125161
0.0137154
0.0150063
0.016342
0.0176415
0.0188365
0.0194469
0.0198792
0.0203855
0.0211832
0.0188642
0.0172731
0.0170912
0.0190855
0.018599
0.0204972
0.0204269
0.0212729
0.0217455
0.0227809
0.0257278
0.0297909
0.034848
0.0402152
0.0534664
0.056802
0.0565167
0.0564344
0.0552673
0.049067
0.0445175
0.0414808
0.0392294
0.0376136
0.0363602
0.0364191
0.0390693
0.0450336
0.0544757
0.0605342
0.0627889
0.0656887
0.0687374
0.0722294
0.0762277
0.0808178
0.086064
0.0921109
0.0990871
0.107189
0.116556
0.127251
0.138942
0.150368
0.0143736
0.0141079
0.0138312
0.0135489
0.013264
0.0129732
0.0126788
0.0123785
0.0120739
0.0117636
0.0114486
0.0111281
0.0108026
0.0104718
0.0101362
0.00979562
0.00945026
0.00909967
0.00874231
0.0083757
0.00799096
0.00757464
0.0071118
0.00660382
0.00605133
0.00493546
0.0038424
0.00403844
0.00405203
0.00402224
0.00399667
0.00400936
0.0040311
0.00408812
0.00415063
0.00424155
0.00434075
0.00446701
0.00460183
0.0047654
0.00494932
0.00516997
0.00543382
0.00576084
0.00615687
0.00663615
0.00720082
0.00785606
0.00858485
0.0093657
0.0101539
0.010913
0.0112649
0.0114578
0.0115949
0.0118087
0.00946829
0.00959922
0.0147005
0.0206135
0.0225664
0.025581
0.0264287
0.028042
0.0290673
0.0290952
0.0308664
0.029278
0.0287868
0.028926
0.031652
0.0334642
0.0330735
0.0328267
0.0326492
0.0324683
0.0322728
0.0320552
0.0315152
0.0301561
0.0290851
0.0296072
0.0308563
0.0313192
0.0317293
0.0322984
0.0333938
0.0350793
0.0368734
0.03899
0.0414666
0.0443941
0.0478316
0.0519971
0.0571062
0.063607
0.0721155
0.0837675
0.100424
0.125293
0.0103885
0.010209
0.0100247
0.00983702
0.00965033
0.00946032
0.00927023
0.00907694
0.00888271
0.00868534
0.00848626
0.00828394
0.00807896
0.00787021
0.00765778
0.00744137
0.00722151
0.00699913
0.00677517
0.0065501
0.00632307
0.0060911
0.00583868
0.00553625
0.0051563
0.0045119
0.00270568
0.00298449
0.00347691
0.00345336
0.00339587
0.00338091
0.00335785
0.0033639
0.00336458
0.00338399
0.00340097
0.00342997
0.00345567
0.00349183
0.00353197
0.00358758
0.00365874
0.00375322
0.00387453
0.00403182
0.00422857
0.00446615
0.00474143
0.00504136
0.00534682
0.00563551
0.00576286
0.00579736
0.0057618
0.00573179
0.00578229
0.00628957
0.00861141
0.010947
0.0114769
0.0119757
0.0127212
0.013532
0.0141801
0.015059
0.0157902
0.016334
0.0168691
0.0167817
0.0153313
0.0156792
0.0154197
0.0147451
0.0143863
0.014075
0.0137924
0.0135798
0.01327
0.0130256
0.0127614
0.0127777
0.0129699
0.0130033
0.0128
0.0126728
0.0129072
0.0133885
0.0138619
0.0144561
0.0151923
0.016089
0.0171315
0.0184127
0.0199876
0.0220596
0.0249074
0.0292281
0.0366542
0.0539218
0.00750331
0.00740219
0.00729579
0.00718514
0.00707328
0.00695682
0.00683855
0.00671525
0.0065894
0.00645802
0.00632322
0.00618225
0.00603667
0.005884
0.0057254
0.00555895
0.00538519
0.00520182
0.00500841
0.00480318
0.00458758
0.0043615
0.00412225
0.00385869
0.0035493
0.00318456
0.00275578
0.000638854
0.000618584
0.000613316
0.000606687
0.000607361
0.000609433
0.000614666
0.00062026
0.000626345
0.000632408
0.000637493
0.000641081
0.00064245
0.000642451
0.000641148
0.000639423
0.0006381
0.00063814
0.000640103
0.000644174
0.000651013
0.000660485
0.000672942
0.000687141
0.000699377
0.000704798
0.000705108
0.00070167
0.000695768
0.000683672
0.000649544
0.000672563
0.000733417
0.000780289
0.000824324
0.000858455
0.000891226
0.000918739
0.000946409
0.000971184
0.00100788
0.00104763
0.00109388
0.00114319
0.00118107
0.0012133
0.00123602
0.00124348
0.00124204
0.00123294
0.00121667
0.00119516
0.00117003
0.00114483
0.00113424
0.00112301
0.00110728
0.00108731
0.00106339
0.0010385
0.00101774
0.00099978
0.000984182
0.000969962
0.000956386
0.000941699
0.000924998
0.000904902
0.000880374
0.000850295
0.000813764
0.000769871
0.000717688
0.000376872
0.0196669
0.0223962
0.0224854
0.0224883
0.0224879
0.0224875
0.0224868
0.0224863
0.0224857
0.0224854
0.0224854
0.0224856
0.0224861
0.0224867
0.0224872
0.0224877
0.022488
0.0224884
0.0224886
0.00040302
0.0176242
0.0222159
0.0224617
0.0224721
0.0224721
0.0224717
0.0224711
0.0224706
0.0224702
0.02247
0.0224704
0.0224714
0.0224729
0.0224744
0.0224759
0.0224772
0.0224781
0.022479
0.0224795
0.000427818
0.0161198
0.0219891
0.0224322
0.0224558
0.0224567
0.0224564
0.0224559
0.0224556
0.0224552
0.0224553
0.0224561
0.0224578
0.0224603
0.0224629
0.0224653
0.0224674
0.022469
0.0224703
0.0224711
0.000451211
0.0149563
0.0217302
0.0223967
0.0224394
0.0224417
0.0224415
0.0224412
0.0224409
0.0224407
0.022441
0.0224422
0.0224447
0.0224482
0.0224518
0.0224551
0.022458
0.0224602
0.022462
0.0224632
0.000473208
0.0140185
0.0214488
0.0223546
0.0224226
0.0224269
0.022427
0.0224268
0.0224266
0.0224265
0.022427
0.0224287
0.022432
0.0224365
0.0224412
0.0224454
0.022449
0.0224519
0.0224541
0.0224556
0.000493884
0.0132074
0.0211481
0.0223057
0.0224051
0.0224121
0.0224126
0.0224125
0.0224126
0.0224127
0.0224134
0.0224156
0.0224196
0.0224251
0.0224308
0.022436
0.0224404
0.022444
0.0224466
0.0224485
0.000513244
0.0124531
0.0208272
0.0222496
0.0223866
0.0223974
0.0223984
0.0223985
0.0223987
0.022399
0.0224001
0.0224028
0.0224076
0.0224141
0.0224208
0.022427
0.0224322
0.0224364
0.0224396
0.0224416
0.000531394
0.0117425
0.0204879
0.0221863
0.022367
0.0223827
0.0223842
0.0223847
0.0223851
0.0223857
0.022387
0.0223903
0.0223959
0.0224034
0.0224112
0.0224183
0.0224244
0.0224292
0.0224329
0.0224352
0.000548355
0.0110855
0.0201344
0.0221158
0.0223462
0.022368
0.0223703
0.022371
0.0223717
0.0223726
0.0223743
0.0223781
0.0223846
0.0223931
0.022402
0.0224101
0.0224169
0.0224225
0.0224266
0.0224292
0.000564242
0.0104897
0.0197712
0.0220382
0.0223241
0.0223533
0.0223565
0.0223577
0.0223586
0.0223597
0.0223619
0.0223663
0.0223737
0.0223832
0.0223932
0.0224022
0.0224099
0.0224161
0.0224207
0.0224236
0.000579062
0.00995636
0.0194033
0.0219539
0.0223006
0.0223385
0.022343
0.0223445
0.0223457
0.0223473
0.0223498
0.0223549
0.0223631
0.0223737
0.0223848
0.0223948
0.0224033
0.0224102
0.0224153
0.0224184
0.000592924
0.00948182
0.0190352
0.0218632
0.0222758
0.0223237
0.0223297
0.0223317
0.0223332
0.0223352
0.0223382
0.0223439
0.022353
0.0223646
0.0223768
0.0223878
0.0223972
0.0224047
0.0224103
0.0224138
0.000605817
0.00906095
0.0186707
0.0217668
0.0222496
0.022309
0.0223167
0.0223191
0.0223211
0.0223235
0.022327
0.0223334
0.0223434
0.0223561
0.0223693
0.0223813
0.0223916
0.0223998
0.0224059
0.0224097
0.000617844
0.00868768
0.0183128
0.0216653
0.022222
0.0222943
0.022304
0.022307
0.0223094
0.0223123
0.0223163
0.0223234
0.0223343
0.0223481
0.0223623
0.0223754
0.0223865
0.0223954
0.0224021
0.0224061
0.000628967
0.0083554
0.017964
0.0215594
0.0221932
0.0222796
0.0222917
0.0222953
0.0222982
0.0223015
0.0223062
0.022314
0.0223259
0.0223407
0.022356
0.0223701
0.0223822
0.0223917
0.0223989
0.0224032
0.000639219
0.00805459
0.0176262
0.0214501
0.0221631
0.0222652
0.0222799
0.0222842
0.0222876
0.0222915
0.0222967
0.0223053
0.0223181
0.022334
0.0223505
0.0223656
0.0223785
0.0223888
0.0223965
0.022401
0.000648549
0.00778228
0.0173007
0.0213381
0.0221321
0.0222511
0.0222687
0.0222737
0.0222777
0.0222822
0.022288
0.0222973
0.0223111
0.0223281
0.0223458
0.0223619
0.0223757
0.0223867
0.0223949
0.0223997
0.000657002
0.00753562
0.016989
0.0212244
0.0221004
0.0222375
0.0222582
0.022264
0.0222687
0.0222738
0.0222803
0.0222904
0.0223051
0.0223233
0.022342
0.0223592
0.0223739
0.0223856
0.0223943
0.0223994
0.000664446
0.00731242
0.0166922
0.0211103
0.0220683
0.0222245
0.0222486
0.0222553
0.0222607
0.0222664
0.0222736
0.0222845
0.0223002
0.0223195
0.0223394
0.0223577
0.0223733
0.0223856
0.0223949
0.0224003
0.00067112
0.00711074
0.0164115
0.020997
0.0220363
0.0222124
0.02224
0.0222479
0.022254
0.0222604
0.0222683
0.02228
0.0222967
0.0223171
0.0223382
0.0223575
0.022374
0.022387
0.0223969
0.0224026
0.000676548
0.00692914
0.0161482
0.020886
0.0220048
0.0222016
0.0222329
0.0222421
0.0222489
0.0222559
0.0222645
0.022277
0.0222947
0.0223162
0.0223385
0.0223589
0.0223762
0.02239
0.0224004
0.0224064
0.000681128
0.00676656
0.0159041
0.0207791
0.0219745
0.0221925
0.0222276
0.0222383
0.0222458
0.0222534
0.0222626
0.0222759
0.0222946
0.0223172
0.0223406
0.0223621
0.0223803
0.0223948
0.0224058
0.022412
0.000684662
0.00662211
0.0156802
0.0206782
0.0219459
0.0221856
0.0222248
0.022237
0.022245
0.0222532
0.022263
0.022277
0.0222967
0.0223204
0.0223448
0.0223674
0.0223866
0.0224017
0.0224132
0.0224198
0.000686671
0.00648862
0.015471
0.0205835
0.0219194
0.0221815
0.0222252
0.0222388
0.0222472
0.0222558
0.022266
0.0222807
0.0223013
0.0223261
0.0223516
0.0223752
0.0223953
0.0224111
0.0224231
0.02243
0.000689625
0.00634955
0.0152565
0.0204903
0.0218947
0.0221813
0.0222298
0.0222445
0.022253
0.0222618
0.0222723
0.0222875
0.0223088
0.0223346
0.0223612
0.0223858
0.0224067
0.0224233
0.0224357
0.022443
0.000696015
0.00620447
0.0150323
0.0201348
0.0218728