/*--------------------------------*- C++ -*----------------------------------*\
  =========                 |
  \\      /  F ield         | OpenFOAM: The Open Source CFD Toolbox
   \\    /   O peration     | Website:  https://openfoam.org
    \\  /    A nd           | Version:  7
     \\/     M anipulation  |
\*---------------------------------------------------------------------------*/
FoamFile
{
    version     2.0;
    format      ascii;
    class       volScalarField;
    location    "0.13";
    object      rho;
}
// * * * * * * * * * * * * * * * * * * * * * * * * * * * * * * * * * * * * * //

dimensions      [1 -3 0 0 0 0 0];

internalField   nonuniform List<scalar> 
48560
(
0.395757
0.395856
0.395925
0.395968
0.395991
0.395998
0.395993
0.395979
0.395956
0.395928
0.395893
0.395855
0.395812
0.395764
0.395713
0.395658
0.395599
0.395535
0.395466
0.395391
0.39531
0.395222
0.395127
0.395023
0.394911
0.394789
0.394651
0.394467
0.394197
0.393901
0.393563
0.393168
0.392692
0.39208
0.391247
0.390302
0.389196
0.388018
0.386811
0.385797
0.384654
0.383379
0.38187
0.379871
0.377307
0.374003
0.370666
0.369446
0.371648
0.377134
0.393967
0.456577
0.478819
0.504481
0.525055
0.544197
0.559967
0.576124
0.589021
0.602434
0.611734
0.621262
0.623464
0.624892
0.62469
0.622236
0.620683
0.619321
0.617187
0.615379
0.613316
0.610978
0.608007
0.604282
0.599225
0.59235
0.582753
0.567765
0.539769
0.501115
0.501342
0.512874
0.508141
0.506709
0.499976
0.496599
0.494405
0.496176
0.498695
0.505879
0.51455
0.523123
0.53122
0.538779
0.545492
0.551377
0.556286
0.560239
0.563025
0.564143
0.395709
0.395808
0.395865
0.395895
0.395897
0.395881
0.395847
0.395802
0.395745
0.39568
0.395607
0.395528
0.395441
0.395345
0.395241
0.395126
0.395
0.394863
0.394714
0.394554
0.39438
0.394192
0.393988
0.393766
0.393522
0.393253
0.392949
0.392546
0.391885
0.391123
0.390265
0.389282
0.388208
0.387034
0.385872
0.384641
0.383417
0.382056
0.38062
0.378947
0.377032
0.374949
0.372655
0.370588
0.370043
0.372283
0.375487
0.379605
0.382738
0.391634
0.413435
0.45805
0.478984
0.506136
0.524845
0.545497
0.560703
0.577696
0.590566
0.604394
0.614127
0.623413
0.626019
0.628241
0.628054
0.625263
0.625263
0.62431
0.622797
0.621659
0.619786
0.617892
0.614942
0.611378
0.605987
0.598769
0.587535
0.569656
0.544783
0.526712
0.523833
0.520818
0.517751
0.514188
0.510576
0.510225
0.510311
0.511972
0.514683
0.519682
0.524893
0.531623
0.537882
0.544414
0.549895
0.554995
0.558783
0.561755
0.563568
0.564166
0.395058
0.395154
0.395184
0.395189
0.395146
0.39509
0.395001
0.394905
0.394788
0.394665
0.394521
0.394363
0.394182
0.393984
0.393762
0.393518
0.393245
0.392941
0.392596
0.392232
0.391829
0.3914
0.390929
0.390428
0.389885
0.38931
0.388697
0.387977
0.386958
0.385996
0.3849
0.383816
0.382589
0.381309
0.379865
0.378286
0.376646
0.374873
0.373115
0.371301
0.370063
0.369865
0.371385
0.374116
0.378176
0.381162
0.384414
0.387189
0.392465
0.403491
0.426079
0.458979
0.482015
0.507834
0.526542
0.546614
0.562261
0.57877
0.592198
0.60573
0.616043
0.624706
0.627984
0.630094
0.629996
0.628037
0.629029
0.627671
0.62702
0.6257
0.624341
0.622245
0.619437
0.615446
0.609799
0.601645
0.589222
0.570009
0.546082
0.531062
0.527345
0.524078
0.519413
0.515322
0.511869
0.511863
0.511948
0.513724
0.516587
0.52147
0.52688
0.533149
0.539124
0.545187
0.550533
0.555491
0.559303
0.562118
0.563706
0.564183
0.393159
0.393239
0.393196
0.393138
0.392989
0.392838
0.392623
0.392414
0.392146
0.391872
0.391542
0.391199
0.390807
0.390403
0.38996
0.389508
0.389029
0.38855
0.388061
0.387554
0.38703
0.386486
0.385909
0.385307
0.38467
0.384005
0.383301
0.382531
0.381388
0.380174
0.378839
0.377458
0.375974
0.374511
0.372952
0.37149
0.370328
0.369672
0.370326
0.371272
0.373602
0.375971
0.378818
0.381517
0.383856
0.385466
0.387539
0.390683
0.397102
0.410347
0.432583
0.460845
0.483085
0.507355
0.526045
0.545843
0.561844
0.578386
0.592262
0.605877
0.616638
0.625232
0.629186
0.631232
0.63119
0.630009
0.631095
0.629378
0.629217
0.627296
0.626018
0.623167
0.620119
0.615231
0.608996
0.599607
0.586206
0.567546
0.548932
0.537346
0.531685
0.527092
0.522567
0.520002
0.518796
0.519138
0.519468
0.521178
0.523757
0.527766
0.532346
0.537769
0.543056
0.548406
0.553046
0.557172
0.560256
0.562494
0.563797
0.564189
0.389458
0.389469
0.389368
0.389227
0.389009
0.388775
0.388488
0.388197
0.387856
0.387505
0.387105
0.38669
0.386231
0.385757
0.385241
0.384708
0.384136
0.383543
0.382909
0.382248
0.381546
0.380806
0.380044
0.379268
0.378471
0.37766
0.376828
0.376002
0.374764
0.373567
0.372387
0.371409
0.370667
0.370531
0.370772
0.37157
0.372882
0.374564
0.376142
0.378304
0.380342
0.382203
0.38378
0.385045
0.386182
0.387599
0.389871
0.394082
0.402226
0.416391
0.437315
0.462659
0.484429
0.507163
0.526122
0.545229
0.561626
0.577874
0.592133
0.605605
0.616537
0.624882
0.629196
0.631205
0.631328
0.630764
0.631537
0.630087
0.629971
0.628002
0.626729
0.62367
0.620523
0.615263
0.608689
0.598573
0.584711
0.566803
0.551135
0.5412
0.534874
0.529329
0.525096
0.522858
0.522225
0.522501
0.52297
0.524588
0.527152
0.530917
0.535233
0.540101
0.54496
0.549827
0.554206
0.558011
0.5608
0.562705
0.563817
0.564156
0.385141
0.385105
0.38498
0.384768
0.384495
0.384169
0.383806
0.383411
0.382977
0.382508
0.381994
0.381446
0.380854
0.380232
0.379571
0.378886
0.378168
0.377433
0.376675
0.375921
0.375173
0.374462
0.373786
0.373163
0.372617
0.372205
0.371986
0.372295
0.372049
0.37249
0.372838
0.373711
0.374558
0.375569
0.376728
0.378098
0.37947
0.380784
0.381994
0.383186
0.384111
0.384939
0.385643
0.386446
0.387538
0.389171
0.392104
0.397399
0.406611
0.420934
0.440532
0.463836
0.484982
0.506464
0.525242
0.543955
0.560398
0.57661
0.590963
0.604456
0.615368
0.623675
0.628185
0.630327
0.630659
0.630384
0.630809
0.629736
0.629368
0.627479
0.625962
0.622783
0.619328
0.613726
0.60663
0.595982
0.582325
0.566492
0.553455
0.544179
0.537503
0.531954
0.528452
0.526858
0.526604
0.526734
0.527295
0.528785
0.53117
0.534509
0.538451
0.542844
0.5473
0.551636
0.555491
0.558774
0.561199
0.562838
0.563813
0.564116
0.38083
0.380678
0.380518
0.380188
0.37986
0.379431
0.379018
0.378536
0.37805
0.377508
0.37696
0.376383
0.375816
0.37526
0.374751
0.374308
0.373975
0.373766
0.37361
0.373593
0.373667
0.373889
0.374214
0.374678
0.375231
0.375873
0.376532
0.377426
0.377668
0.378758
0.37919
0.38029
0.380791
0.381784
0.382336
0.383202
0.383669
0.384353
0.384728
0.385275
0.3856
0.386137
0.386706
0.387577
0.388817
0.390965
0.394607
0.400757
0.410458
0.42452
0.442855
0.464694
0.485104
0.505616
0.524152
0.542434
0.5589
0.574975
0.589403
0.602788
0.613635
0.621841
0.626525
0.628858
0.629462
0.629343
0.62963
0.628885
0.628383
0.626696
0.625022
0.621887
0.618181
0.612395
0.604874
0.594012
0.580761
0.566631
0.555227
0.54637
0.539618
0.534313
0.531298
0.530061
0.529935
0.530023
0.53065
0.532039
0.534303
0.537354
0.540986
0.544987
0.549051
0.55299
0.556496
0.559394
0.561521
0.562943
0.563805
0.564079
0.378005
0.377906
0.377864
0.377646
0.377501
0.377255
0.377105
0.376917
0.376842
0.376768
0.3768
0.376849
0.376997
0.377172
0.377428
0.377703
0.37802
0.378334
0.378759
0.379193
0.379701
0.38021
0.380756
0.381286
0.38182
0.382321
0.382808
0.383461
0.383292
0.384049
0.384076
0.384638
0.384659
0.385098
0.385144
0.385492
0.385562
0.385871
0.386012
0.386342
0.386623
0.387136
0.387739
0.388793
0.390362
0.393024
0.397244
0.403918
0.413738
0.42731
0.444504
0.465214
0.484795
0.504449
0.522662
0.540567
0.556989
0.572951
0.587395
0.600679
0.611451
0.619612
0.624464
0.627017
0.627858
0.627865
0.628098
0.627558
0.626985
0.625428
0.623605
0.620445
0.616456
0.610449
0.602587
0.591833
0.579454
0.567005
0.556685
0.548216
0.54169
0.536869
0.53432
0.533378
0.533276
0.53337
0.533969
0.535257
0.537335
0.540111
0.543413
0.547035
0.550715
0.554238
0.557354
0.559913
0.561782
0.563027
0.563795
0.564045
0.378853
0.379301
0.379716
0.380049
0.380386
0.380672
0.380998
0.381305
0.381676
0.382049
0.382483
0.382903
0.383358
0.383778
0.384208
0.384587
0.38496
0.385278
0.385585
0.38583
0.386059
0.386227
0.386377
0.386472
0.386553
0.38659
0.386629
0.386744
0.386333
0.386583
0.386445
0.386598
0.386517
0.386667
0.386621
0.386767
0.386755
0.386941
0.387035
0.387341
0.387634
0.388221
0.388973
0.390272
0.392181
0.395275
0.399902
0.406838
0.416544
0.429519
0.445692
0.465403
0.484168
0.503073
0.520911
0.538468
0.554808
0.570644
0.585074
0.598231
0.608941
0.617084
0.622136
0.624941
0.626028
0.626158
0.626387
0.625994
0.625422
0.623972
0.622069
0.618892
0.614702
0.608552
0.600535
0.590094
0.578618
0.567432
0.557931
0.549898
0.54373
0.539357
0.53712
0.536335
0.536242
0.536355
0.536911
0.538122
0.54002
0.542565
0.545566
0.548859
0.552177
0.55534
0.558104
0.560359
0.562001
0.563097
0.563783
0.564012
0.383258
0.384269
0.385076
0.385874
0.386501
0.387108
0.387594
0.388068
0.388473
0.388878
0.389252
0.389612
0.389925
0.390191
0.390398
0.390539
0.390618
0.390625
0.390577
0.390463
0.390307
0.390099
0.38987
0.389608
0.389346
0.389072
0.388829
0.388664
0.388217
0.388201
0.387965
0.387977
0.387846
0.387917
0.38786
0.387967
0.387951
0.388099
0.38819
0.388491
0.388841
0.389513
0.390442
0.39197
0.394196
0.397607
0.402502
0.409512
0.418969
0.43131
0.446557
0.465304
0.483258
0.501461
0.518896
0.536124
0.552354
0.568066
0.582456
0.59549
0.606151
0.614316
0.619587
0.622663
0.624011
0.624276
0.624512
0.624223
0.623683
0.622308
0.620353
0.617138
0.612787
0.606544
0.598552
0.588631
0.57812
0.567953
0.559125
0.551584
0.545838
0.541885
0.539879
0.539183
0.539084
0.539196
0.539694
0.540808
0.542522
0.54484
0.547545
0.55052
0.553492
0.556314
0.558757
0.560745
0.56219
0.563157
0.563771
0.563982
0.388414
0.389711
0.390696
0.391702
0.392406
0.393098
0.393543
0.393981
0.394243
0.394522
0.394697
0.394904
0.395017
0.395113
0.395103
0.395047
0.394889
0.394675
0.394376
0.394028
0.39362
0.393179
0.392709
0.392229
0.39175
0.391285
0.390861
0.390545
0.390013
0.389803
0.389485
0.389375
0.389205
0.389196
0.389138
0.3892
0.389198
0.389309
0.389425
0.389729
0.390163
0.390931
0.392053
0.393797
0.3963
0.399943
0.405005
0.411963
0.421106
0.43281
0.447201
0.46498
0.482123
0.499637
0.516644
0.533549
0.549648
0.565236
0.579567
0.592481
0.603111
0.611327
0.616841
0.620217
0.621859
0.62229
0.622531
0.622329
0.621848
0.620542
0.618575
0.615341
0.610901
0.604664
0.596849
0.587529
0.577906
0.568588
0.560358
0.553316
0.547973
0.544342
0.542482
0.541826
0.541719
0.541822
0.542264
0.543275
0.544817
0.546912
0.549344
0.552018
0.554669
0.557175
0.559331
0.561081
0.562353
0.563209
0.563761
0.563954
0.392224
0.393682
0.394845
0.396008
0.396847
0.397635
0.398128
0.398574
0.398796
0.399013
0.399092
0.399215
0.399248
0.399286
0.399203
0.399083
0.398838
0.398536
0.398114
0.397635
0.397064
0.396447
0.395786
0.395102
0.394413
0.393735
0.393101
0.392601
0.391883
0.391458
0.391009
0.390749
0.390511
0.390417
0.390343
0.390365
0.390372
0.39046
0.390608
0.390942
0.391479
0.392372
0.393696
0.395654
0.398401
0.402228
0.407387
0.414232
0.423031
0.434114
0.447701
0.464484
0.480794
0.497604
0.514153
0.53073
0.546681
0.562145
0.576405
0.589209
0.599823
0.608116
0.61389
0.617593
0.619569
0.6202
0.620471
0.62034
0.619932
0.618695
0.616745
0.613515
0.609056
0.602917
0.595413
0.586749
0.577944
0.569348
0.561684
0.555127
0.550146
0.546758
0.54498
0.544326
0.544201
0.544283
0.544665
0.545561
0.546935
0.54881
0.550983
0.553367
0.555722
0.557938
0.559837
0.561376
0.562496
0.563255
0.563751
0.563929
0.39468
0.3963
0.397705
0.399091
0.400196
0.401207
0.401927
0.402534
0.402893
0.403178
0.403301
0.403419
0.40347
0.403537
0.403502
0.403407
0.403164
0.402825
0.402323
0.401715
0.400985
0.400201
0.399311
0.398389
0.397423
0.39647
0.395553
0.394811
0.393845
0.393193
0.39257
0.392154
0.391819
0.391631
0.391521
0.391508
0.391519
0.391589
0.391756
0.39212
0.39275
0.393766
0.395274
0.397429
0.400403
0.404409
0.409641
0.416356
0.424812
0.4353
0.448115
0.463871
0.479308
0.495375
0.511423
0.527653
0.543442
0.558785
0.572974
0.58568
0.596289
0.604673
0.610718
0.614775
0.617136
0.618017
0.618353
0.618286
0.617965
0.61681
0.614915
0.611731
0.607333
0.601388
0.594284
0.586275
0.578177
0.570243
0.563122
0.557015
0.552338
0.549113
0.547361
0.546674
0.54652
0.546576
0.546893
0.54767
0.548881
0.550541
0.55247
0.554582
0.556664
0.558615
0.560285
0.561637
0.562624
0.563297
0.563743
0.563907
0.396471
0.398258
0.399916
0.401566
0.403005
0.404344
0.405421
0.406339
0.40699
0.407487
0.407775
0.407978
0.408075
0.408174
0.408194
0.408137
0.407931
0.407583
0.407054
0.40637
0.405523
0.404526
0.403386
0.402154
0.400856
0.399552
0.398296
0.397262
0.395961
0.394995
0.394108
0.393453
0.392969
0.392649
0.392501
0.392443
0.392464
0.392511
0.392695
0.393081
0.393802
0.394955
0.396686
0.399105
0.402331
0.406481
0.411742
0.418358
0.426503
0.43643
0.448474
0.463181
0.477695
0.492954
0.508438
0.524286
0.539894
0.555123
0.569239
0.581864
0.592486
0.600972
0.607293
0.611724
0.614526
0.615738
0.616193
0.616184
0.615965
0.614912
0.613114
0.610026
0.60577
0.600097
0.593453
0.58608
0.578601
0.571286
0.564682
0.558983
0.55455
0.551422
0.549643
0.548889
0.548688
0.548715
0.548964
0.549619
0.550667
0.55212
0.553818
0.555676
0.557506
0.559217
0.560682
0.561868
0.562739
0.563336
0.563737
0.563887
0.39795
0.399872
0.401735
0.403622
0.405372
0.407054
0.408531
0.40985
0.410905
0.41175
0.412331
0.412727
0.412939
0.413069
0.413148
0.413178
0.413074
0.412811
0.412331
0.411626
0.41067
0.409481
0.408073
0.406498
0.404803
0.403059
0.401344
0.399868
0.398167
0.396822
0.395651
0.394729
0.394089
0.393597
0.393378
0.393266
0.393284
0.393311
0.39349
0.393881
0.394642
0.395871
0.397728
0.400326
0.403803
0.408245
0.413731
0.420286
0.428147
0.437564
0.448823
0.462474
0.476014
0.490382
0.505214
0.520622
0.536027
0.551156
0.565226
0.577789
0.588429
0.59701
0.603594
0.608398
0.611695
0.613341
0.614018
0.614046
0.61395
0.613033
0.611381
0.608449
0.604408
0.599074
0.592918
0.586148
0.579239
0.572486
0.566361
0.561022
0.556784
0.5537
0.551853
0.550988
0.55071
0.55071
0.550884
0.551416
0.552304
0.553556
0.555035
0.556657
0.558257
0.559751
0.561034
0.562074
0.562842
0.563371
0.563732
0.56387
0.399254
0.401266
0.403264
0.405319
0.407299
0.409262
0.411091
0.412811
0.414317
0.415618
0.416639
0.417408
0.417905
0.418202
0.418344
0.418436
0.418445
0.418307
0.41794
0.417301
0.416339
0.415045
0.413418
0.411501
0.409356
0.407076
0.404771
0.402705
0.400511
0.39867
0.397141
0.395881
0.395062
0.39437
0.39404
0.393852
0.393845
0.393893
0.394065
0.394483
0.395277
0.396586
0.398548
0.401292
0.404932
0.409555
0.415219
0.421944
0.429729
0.438691
0.449202
0.461785
0.474282
0.487641
0.501695
0.51657
0.531731
0.546767
0.560797
0.57332
0.584019
0.592714
0.599572
0.604758
0.608594
0.610783
0.611818
0.611916
0.611951
0.61121
0.609749
0.607041
0.603281
0.598335
0.592669
0.58643
0.580073
0.573846
0.568158
0.563139
0.559054
0.555971
0.554008
0.552994
0.552608
0.552564
0.552662
0.553071
0.553801
0.554863
0.556136
0.55754
0.558928
0.560226
0.561346
0.562256
0.562934
0.563405
0.56373
0.563856
0.400413
0.402474
0.40455
0.406699
0.408814
0.410957
0.413049
0.415096
0.416994
0.418755
0.420289
0.421581
0.422564
0.42325
0.423643
0.423822
0.423878
0.423882
0.423693
0.423236
0.422406
0.421148
0.41941
0.417209
0.414594
0.411684
0.408635
0.405795
0.403025
0.400528
0.39858
0.396857
0.395806
0.394914
0.394481
0.394225
0.39416
0.39424
0.39443
0.39484
0.395649
0.39701
0.399063
0.401941
0.405745
0.410545
0.416366
0.423205
0.431029
0.439827
0.449652
0.461206
0.472656
0.484922
0.498047
0.512245
0.527089
0.542064
0.556153
0.56868
0.579432
0.588204
0.595278
0.600789
0.605153
0.607966
0.609542
0.609833
0.610002
0.609475
0.608252
0.605836
0.60241
0.597886
0.592702
0.586947
0.581093
0.575345
0.570054
0.56532
0.561365
0.558254
0.556134
0.554937
0.554405
0.554288
0.554314
0.5546
0.555175
0.556051
0.557129
0.558329
0.559526
0.560646
0.561619
0.562414
0.563014
0.563434
0.563728
0.563845
0.401413
0.40349
0.405604
0.407789
0.409965
0.412195
0.414437
0.416677
0.418822
0.420896
0.422844
0.424632
0.426179
0.427439
0.428351
0.428916
0.429173
0.42923
0.429219
0.429028
0.428487
0.427471
0.42584
0.423527
0.420508
0.416895
0.412903
0.409026
0.405659
0.402216
0.399922
0.397583
0.396315
0.3952
0.394664
0.394364
0.394298
0.394355
0.39453
0.394928
0.395746
0.397136
0.399251
0.402231
0.406172
0.411143
0.417136
0.424119
0.431987
0.440653
0.450054
0.460665
0.470982
0.481973
0.493959
0.507301
0.521716
0.536609
0.550723
0.56328
0.574191
0.583117
0.590495
0.596383
0.601334
0.604844
0.607167
0.607879
0.608127
0.607842
0.606928
0.60485
0.601813
0.597725
0.592989
0.587708
0.582322
0.577011
0.57208
0.567598
0.563748
0.560585
0.558271
0.556847
0.556123
0.55589
0.555857
0.556022
0.556443
0.557138
0.558032
0.559039
0.560057
0.561016
0.561857
0.562549
0.563079
0.563456
0.563725
0.563834
0.402214
0.404288
0.406424
0.408622
0.410832
0.413096
0.41537
0.417657
0.419905
0.422139
0.424313
0.426435
0.428432
0.430273
0.431862
0.433138
0.434015
0.434489
0.434616
0.434565
0.434364
0.433742
0.432455
0.430255
0.42696
0.422585
0.4174
0.412131
0.408365
0.403552
0.400904
0.398028
0.396495
0.39515
0.394499
0.394148
0.394095
0.394177
0.394314
0.394738
0.395545
0.396972
0.399116
0.402178
0.406226
0.411352
0.417513
0.42467
0.432661
0.441305
0.450397
0.460252
0.469702
0.479565
0.490257
0.502451
0.516193
0.531028
0.545478
0.558156
0.569203
0.578169
0.585715
0.591749
0.597126
0.601217
0.604464
0.605912
0.606422
0.606341
0.605798
0.604093
0.601495
0.597836
0.593505
0.58864
0.583657
0.578725
0.574107
0.56985
0.566099
0.562889
0.560406
0.558723
0.55777
0.557384
0.557282
0.557344
0.557627
0.558151
0.558866
0.559692
0.560546
0.561358
0.562079
0.562675
0.563138
0.563474
0.563719
0.563823
0.402776
0.404844
0.406996
0.409194
0.411421
0.413679
0.415947
0.418231
0.420509
0.422791
0.425056
0.427311
0.429524
0.431685
0.433734
0.435618
0.437223
0.438446
0.439173
0.439405
0.439292
0.439029
0.438234
0.436501
0.433376
0.428479
0.421847
0.414463
0.410438
0.404307
0.401199
0.397866
0.396104
0.394583
0.393872
0.393509
0.393482
0.393615
0.393767
0.394232
0.395052
0.396505
0.398693
0.401813
0.405938
0.411164
0.417465
0.424768
0.432888
0.44155
0.450409
0.459453
0.467595
0.475883
0.4851
0.496014
0.508964
0.523655
0.538293
0.550998
0.562565
0.571703
0.579735
0.586178
0.592276
0.59714
0.601528
0.603951
0.605106
0.605065
0.60493
0.603645
0.601482
0.598213
0.594302
0.589845
0.585269
0.580683
0.576346
0.572292
0.568644
0.565402
0.56262
0.560591
0.559333
0.558748
0.558556
0.558536
0.558697
0.559072
0.559624
0.560294
0.561009
0.561696
0.562309
0.562815
0.563208
0.563497
0.563716
0.563815
0.402926
0.404971
0.407133
0.409311
0.411544
0.413782
0.416052
0.418318
0.420595
0.422863
0.425127
0.427376
0.429609
0.43182
0.433997
0.436127
0.438171
0.440073
0.441712
0.44293
0.443543
0.443502
0.443081
0.44204
0.439465
0.434283
0.425592
0.414675
0.410991
0.403888
0.400461
0.396835
0.394899
0.393289
0.392565
0.392223
0.392262
0.392473
0.392699
0.393204
0.39414
0.395581
0.397848
0.401002
0.405219
0.410517
0.416938
0.424377
0.432663
0.441483
0.450437
0.459463
0.467341
0.474722
0.482355
0.491345
0.502499
0.516474
0.532226
0.545438
0.55721
0.566429
0.574729
0.581054
0.587375
0.592403
0.597584
0.60127
0.603635
0.603919
0.604112
0.603285
0.601497
0.598611
0.595005
0.590882
0.586577
0.582259
0.578156
0.574255
0.57065
0.567318
0.564582
0.562296
0.560706
0.559852
0.559563
0.55949
0.559549
0.559797
0.560236
0.560798
0.561419
0.562019
0.562553
0.562984
0.563314
0.563556
0.563741
0.563828
0.402103
0.404119
0.406298
0.408448
0.410691
0.412901
0.415174
0.417412
0.419688
0.42193
0.424191
0.426418
0.428651
0.430854
0.433055
0.435228
0.437379
0.43947
0.441463
0.443293
0.444734
0.445477
0.445243
0.444366
0.442413
0.437815
0.428265
0.412136
0.409729
0.401767
0.397641
0.393923
0.391822
0.39034
0.389645
0.389448
0.389581
0.389972
0.390333
0.390889
0.391855
0.393401
0.395684
0.398976
0.403279
0.408729
0.415299
0.422911
0.431367
0.440331
0.449312
0.457914
0.464769
0.470423
0.47497
0.480423
0.489472
0.503662
0.52031
0.533536
0.54598
0.555892
0.564897
0.571938
0.579323
0.585718
0.59273
0.598516
0.602679
0.603932
0.604058
0.603739
0.602416
0.599933
0.596703
0.59283
0.588758
0.584607
0.580605
0.5768
0.573337
0.570173
0.567046
0.564104
0.561838
0.560497
0.560036
0.55993
0.559965
0.560161
0.560561
0.561076
0.561671
0.562244
0.56276
0.563164
0.563465
0.563676
0.563833
0.563905
0.398282
0.400258
0.402428
0.404524
0.406748
0.408901
0.411151
0.413334
0.415584
0.417771
0.42
0.422167
0.42435
0.42646
0.428543
0.430527
0.432454
0.434302
0.436138
0.437936
0.439733
0.441446
0.442827
0.443258
0.442204
0.439688
0.430445
0.405886
0.404489
0.396757
0.392134
0.388525
0.38648
0.385112
0.384652
0.384635
0.38511
0.3857
0.3864
0.387176
0.388289
0.389953
0.392623
0.395976
0.400474
0.406024
0.412807
0.420549
0.429208
0.438358
0.447665
0.456888
0.464509
0.470603
0.475425
0.480765
0.488416
0.499973
0.515112
0.529356
0.542659
0.552164
0.561141
0.567922
0.574886
0.580786
0.58736
0.593533
0.599969
0.602544
0.602625
0.602405
0.601049
0.598717
0.595579
0.591908
0.58801
0.584109
0.580377
0.576761
0.573329
0.569886
0.566973
0.564193
0.561856
0.560176
0.559572
0.559473
0.559572
0.5598
0.560254
0.560808
0.561466
0.562097
0.56269
0.563166
0.563534
0.563779
0.56396
0.564048
0.384677
0.386497
0.388444
0.390321
0.392277
0.394147
0.396079
0.397914
0.399793
0.401568
0.403376
0.405074
0.406778
0.408348
0.409893
0.411318
0.412747
0.414097
0.415449
0.416737
0.418117
0.419572
0.421035
0.422051
0.421551
0.420024
0.415221
0.397432
0.394788
0.386313
0.381476
0.377097
0.375357
0.373346
0.373309
0.372804
0.37377
0.374078
0.375348
0.375964
0.377631
0.379093
0.381886
0.385145
0.389957
0.395894
0.403003
0.41112
0.419843
0.429077
0.438177
0.447142
0.455118
0.461579
0.465506
0.465907
0.466529
0.468267
0.487653
0.512881
0.526956
0.538107
0.547105
0.555325
0.562674
0.569997
0.578641
0.588081
0.598286
0.602076
0.601073
0.601562
0.600113
0.597092
0.593556
0.58985
0.585837
0.581976
0.578286
0.574628
0.571407
0.56836
0.565354
0.562355
0.559082
0.55641
0.555449
0.555547
0.555905
0.556472
0.557378
0.558185
0.559054
0.559958
0.560822
0.561633
0.562355
0.562993
0.563527
0.563985
0.245935
0.245959
0.245955
0.245958
0.245957
0.245958
0.245958
0.245958
0.245958
0.245959
0.245959
0.245959
0.245959
0.24596
0.24596
0.24596
0.24596
0.24596
0.24596
0.24596
0.245921
0.245956
0.245953
0.245956
0.245956
0.245957
0.245957
0.245958
0.245959
0.245959
0.24596
0.245961
0.245961
0.245961
0.245962
0.245962
0.245962
0.245962
0.245962
0.245962
0.245902
0.24595
0.245949
0.245953
0.245953
0.245954
0.245956
0.245958
0.24596
0.245961
0.245963
0.245964
0.245965
0.245966
0.245966
0.245967
0.245968
0.245968
0.245968
0.245968
0.245882
0.245944
0.245945
0.245949
0.24595
0.245952
0.245955
0.245958
0.24596
0.245963
0.245965
0.245967
0.245968
0.24597
0.245971
0.245972
0.245973
0.245973
0.245974
0.245974
0.245862
0.245936
0.245939
0.245945
0.245947
0.24595
0.245953
0.245957
0.245961
0.245965
0.245967
0.24597
0.245972
0.245975
0.245976
0.245978
0.245979
0.24598
0.245981
0.245981
0.245839
0.245927
0.245933
0.245939
0.245942
0.245947
0.245952
0.245957
0.245962
0.245967
0.245971
0.245975
0.245978
0.245981
0.245984
0.245986
0.245988
0.245989
0.24599
0.245991
0.245814
0.245915
0.245924
0.245932
0.245937
0.245943
0.24595
0.245957
0.245964
0.24597
0.245975
0.24598
0.245985
0.245989
0.245993
0.245996
0.245998
0.246
0.246001
0.246003
0.245786
0.245901
0.245914
0.245924
0.24593
0.245939
0.245947
0.245957
0.245965
0.245973
0.24598
0.245987
0.245993
0.245999
0.246004
0.246008
0.246011
0.246013
0.246015
0.246016
0.245756
0.245884
0.245901
0.245913
0.245922
0.245933
0.245945
0.245957
0.245967
0.245977
0.245987
0.245995
0.246003
0.24601
0.246016
0.246021
0.246026
0.246029
0.246031
0.246032
0.245722
0.245865
0.245886
0.245902
0.245914
0.245928
0.245942
0.245957
0.24597
0.245982
0.245994
0.246005
0.246014
0.246023
0.246031
0.246037
0.246042
0.246046
0.246049
0.24605
0.245687
0.245843
0.245869
0.245888
0.245904
0.245921
0.245939
0.245957
0.245973
0.245988
0.246002
0.246015
0.246027
0.246038
0.246047
0.246055
0.246061
0.246066
0.246069
0.246071
0.245648
0.245818
0.24585
0.245873
0.245892
0.245914
0.245936
0.245957
0.245976
0.245995
0.246012
0.246027
0.246042
0.246054
0.246065
0.246075
0.246082
0.246088
0.246091
0.246093
0.245606
0.245791
0.245828
0.245855
0.24588
0.245906
0.245933
0.245958
0.245981
0.246002
0.246022
0.246041
0.246058
0.246073
0.246086
0.246097
0.246105
0.246112
0.246116
0.246118
0.245561
0.245759
0.245803
0.245836
0.245866
0.245898
0.24593
0.245959
0.245986
0.246011
0.246035
0.246057
0.246076
0.246094
0.246108
0.246121
0.246131
0.246138
0.246143
0.246146
0.245512
0.245725
0.245774
0.245815
0.245852
0.24589
0.245927
0.245961
0.245992
0.246022
0.246049
0.246074
0.246097
0.246117
0.246134
0.246148
0.246159
0.246168
0.246173
0.246176
0.245457
0.245685
0.245743
0.245792
0.245836
0.245882
0.245925
0.245964
0.246
0.246034
0.246065
0.246094
0.24612
0.246142
0.246162
0.246178
0.246191
0.2462
0.246206
0.246209
0.245396
0.245641
0.245707
0.245766
0.245819
0.245873
0.245924
0.245968
0.246009
0.246048
0.246084
0.246117
0.246146
0.246171
0.246193
0.246211
0.246225
0.246236
0.246242
0.246246
0.245324
0.245591
0.245667
0.245739
0.245801
0.245865
0.245923
0.245973
0.246021
0.246065
0.246105
0.246142
0.246175
0.246203
0.246228
0.246248
0.246264
0.246276
0.246283
0.246287
0.245243
0.245535
0.245622
0.24571
0.245783
0.245858
0.245924
0.245981
0.246035
0.246085
0.24613
0.246171
0.246208
0.24624
0.246267
0.246289
0.246306
0.246319
0.246327
0.246332
0.245146
0.245472
0.24557
0.245679
0.245765
0.245853
0.245926
0.24599
0.246052
0.246108
0.246159
0.246205
0.246245
0.24628
0.24631
0.246334
0.246354
0.246368
0.246376
0.246381
0.245037
0.2454
0.245512
0.245648
0.245746
0.245849
0.245929
0.246003
0.246072
0.246135
0.246192
0.246243
0.246287
0.246326
0.246358
0.246385
0.246406
0.246421
0.24643
0.246435
0.244891
0.245322
0.245446
0.245616
0.245729
0.245848
0.245936
0.24602
0.246098
0.246168
0.24623
0.246286
0.246335
0.246377
0.246412
0.246441
0.246464
0.24648
0.24649
0.246496
0.244709
0.245235
0.24537
0.245588
0.245712
0.245848
0.245946
0.246042
0.246128
0.246206
0.246275
0.246336
0.246389
0.246435
0.246473
0.246504
0.246528
0.246546
0.246556
0.246562
0.244479
0.245147
0.245285
0.245564
0.245698
0.245852
0.245962
0.24607
0.246165
0.246251
0.246326
0.246393
0.24645
0.246499
0.24654
0.246573
0.246599
0.246618
0.246628
0.246635
0.244165
0.245065
0.245193
0.245548
0.245687
0.245861
0.245984
0.246106
0.24621
0.246304
0.246386
0.246457
0.246519
0.246571
0.246615
0.24665
0.246677
0.246697
0.246708
0.246715
0.243872
0.244994
0.245101
0.24554
0.24568
0.245878
0.246014
0.24615
0.246264
0.246366
0.246454
0.24653
0.246596
0.246652
0.246698
0.246735
0.246763
0.246784
0.246795
0.246802
0.243687
0.244934
0.245025
0.245539
0.245677
0.245905
0.246054
0.246204
0.246327
0.246437
0.246531
0.246613
0.246682
0.246741
0.246789
0.246828
0.246857
0.246879
0.246889
0.246897
0.243578
0.244888
0.244978
0.245542
0.245682
0.245945
0.246106
0.24627
0.246402
0.246519
0.246619
0.246704
0.246777
0.246838
0.246889
0.246929
0.246959
0.246981
0.246992
0.247
0.243522
0.244865
0.244956
0.245552
0.245702
0.245999
0.246173
0.24635
0.246489
0.246613
0.246717
0.246807
0.246882
0.246945
0.246997
0.247038
0.24707
0.247092
0.247103
0.247111
0.243494
0.244858
0.244947
0.24558
0.245745
0.24607
0.246255
0.246444
0.246589
0.246719
0.246827
0.24692
0.246998
0.247062
0.247115
0.247157
0.247189
0.247211
0.247222
0.24723
0.243483
0.244864
0.244961
0.245638
0.245816
0.246162
0.246354
0.246554
0.246705
0.246839
0.24695
0.247045
0.247123
0.247189
0.247243
0.247285
0.247316
0.247339
0.24735
0.247358
0.243526
0.244912
0.24502
0.245733
0.245918
0.246278
0.246473
0.246681
0.246835
0.246974
0.247086
0.247182
0.247261
0.247327
0.24738
0.247422
0.247453
0.247475
0.247486
0.247493
0.243665
0.24503
0.245142
0.245871
0.246056
0.24642
0.246615
0.246828
0.246982
0.247122
0.247235
0.247331
0.24741
0.247475
0.247527
0.247568
0.247599
0.24762
0.24763
0.247637
0.243899
0.245224
0.245332
0.246053
0.246231
0.246592
0.246781
0.246994
0.247146
0.247285
0.247397
0.247491
0.247569
0.247633
0.247684
0.247724
0.247753
0.247773
0.247782
0.247789
0.244213
0.245487
0.245584
0.246277
0.246444
0.246793
0.246971
0.247181
0.247327
0.247463
0.247571
0.247663
0.247738
0.2478
0.247849
0.247887
0.247915
0.247934
0.247942
0.247949
0.244582
0.245801
0.245886
0.24654
0.246692
0.247022
0.247187
0.247388
0.247526
0.247656
0.247759
0.247846
0.247918
0.247976
0.248023
0.248059
0.248085
0.248103
0.248109
0.248115
0.244994
0.246153
0.246228
0.246835
0.246971
0.247275
0.247425
0.247613
0.247741
0.247863
0.247958
0.24804
0.248106
0.248161
0.248204
0.248237
0.248261
0.248277
0.248282
0.248287
0.245431
0.246532
0.2466
0.247157
0.247277
0.247551
0.247684
0.247856
0.247971
0.248082
0.248169
0.248243
0.248304
0.248353
0.248392
0.248421
0.248443
0.248457
0.248461
0.248465
0.245892
0.246931
0.246995
0.247499
0.247603
0.247845
0.247961
0.248113
0.248214
0.248313
0.248389
0.248455
0.248508
0.248552
0.248586
0.248611
0.248629
0.248641
0.248644
0.248647
0.246366
0.247346
0.247406
0.247857
0.247946
0.248154
0.248252
0.248383
0.248468
0.248553
0.248618
0.248674
0.24872
0.248756
0.248785
0.248806
0.24882
0.24883
0.24883
0.248832
0.246857
0.247773
0.247829
0.248227
0.248301
0.248474
0.248554
0.248662
0.248731
0.248801
0.248854
0.248899
0.248936
0.248965
0.248987
0.249004
0.249015
0.249021
0.24902
0.249021
0.247358
0.248209
0.248262
0.248605
0.248664
0.248803
0.248864
0.248949
0.249001
0.249055
0.249094
0.249129
0.249156
0.249177
0.249193
0.249204
0.249211
0.249214
0.249211
0.249211
0.24787
0.248652
0.2487
0.248992
0.249033
0.249138
0.24918
0.24924
0.249275
0.249312
0.249338
0.249361
0.249378
0.249391
0.2494
0.249406
0.249408
0.249409
0.249403
0.249402
0.248388
0.2491
0.249141
0.249383
0.249403
0.249477
0.249499
0.249535
0.249552
0.249571
0.249584
0.249594
0.249601
0.249605
0.249607
0.249607
0.249606
0.249603
0.249595
0.249593
0.248913
0.249551
0.249584
0.249778
0.249774
0.249817
0.249818
0.249829
0.249829
0.249831
0.249829
0.249827
0.249823
0.249819