/*--------------------------------*- C++ -*----------------------------------*\
  =========                 |
  \\      /  F ield         | OpenFOAM: The Open Source CFD Toolbox
   \\    /   O peration     | Website:  https://openfoam.org
    \\  /    A nd           | Version:  7
     \\/     M anipulation  |
\*---------------------------------------------------------------------------*/
FoamFile
{
    version     2.0;
    format      ascii;
    class       volVectorField;
    location    "0.13";
    object      U;
}
// * * * * * * * * * * * * * * * * * * * * * * * * * * * * * * * * * * * * * //

dimensions      [0 1 -1 0 0 0 0];

internalField   nonuniform List<vector> 
48560
(
(221.946 -5.36773 -4.90456e-11)
(221.754 -6.19691 -5.89238e-11)
(221.584 -7.02831 -7.81715e-11)
(221.437 -7.84033 -1.00116e-10)
(221.305 -8.63323 -1.31222e-10)
(221.185 -9.40119 -1.65894e-10)
(221.074 -10.147 -2.09085e-10)
(220.968 -10.8664 -2.55708e-10)
(220.866 -11.5638 -3.09328e-10)
(220.766 -12.2366 -3.65508e-10)
(220.666 -12.8902 -4.25999e-10)
(220.565 -13.5232 -4.87216e-10)
(220.462 -14.1407 -5.49515e-10)
(220.355 -14.7411 -6.0984e-10)
(220.243 -15.3283 -6.66264e-10)
(220.124 -15.9005 -7.17043e-10)
(219.996 -16.4602 -7.58844e-10)
(219.856 -17.006 -7.8983e-10)
(219.704 -17.5399 -8.06744e-10)
(219.534 -18.0608 -8.07779e-10)
(219.346 -18.5705 -7.89928e-10)
(219.134 -19.0683 -7.51126e-10)
(218.894 -19.5549 -6.89675e-10)
(218.621 -20.0296 -6.02822e-10)
(218.312 -20.4914 -4.92889e-10)
(217.959 -20.9395 -3.56778e-10)
(217.558 -21.3724 -1.9808e-10)
(217.04 -21.8648 1.69778e-11)
(216.286 -22.4137 3.11468e-10)
(215.393 -22.9119 5.96e-10)
(214.307 -23.3846 8.82124e-10)
(212.963 -23.8068 1.15986e-09)
(211.282 -24.1917 1.37815e-09)
(209.081 -24.5152 1.53865e-09)
(206.058 -24.7616 1.44285e-09)
(202.492 -24.8964 1.1945e-09)
(198.254 -24.8757 5.65361e-10)
(193.603 -24.7461 -1.40048e-10)
(188.789 -24.4532 -1.37785e-09)
(184.855 -24.0505 -2.54058e-09)
(180.812 -23.2556 -4.16546e-09)
(176.735 -22.6199 -4.55031e-09)
(172.878 -21.4533 -5.91345e-09)
(169.148 -20.0221 -6.40488e-09)
(165.804 -18.7132 -7.02742e-09)
(165.082 -16.0972 -9.50489e-09)
(171.77 -12.2479 -1.25231e-08)
(191.388 -6.88477 -1.71179e-08)
(221.309 -4.08061 -2.21821e-08)
(250.055 -7.78887 -2.6161e-08)
(271.685 -31.4681 -2.92608e-08)
(263.864 -74.158 -3.08626e-08)
(229.269 -57.6502 -2.9727e-08)
(214.681 -60.7852 -2.98132e-08)
(195.662 -51.6235 -2.92076e-08)
(183.877 -51.0944 -2.9247e-08)
(165.481 -43.5363 -2.86444e-08)
(153.75 -41.3576 -2.86589e-08)
(133.696 -34.3428 -2.80014e-08)
(121.443 -31.2415 -2.80395e-08)
(99.3229 -24.1237 -2.73106e-08)
(85.6831 -20.417 -2.73062e-08)
(66.0756 -11.0082 -2.64235e-08)
(66.3463 -8.54308 -2.67578e-08)
(55.7815 -5.57969 -2.62863e-08)
(52.6454 1.1277 -2.60724e-08)
(56.5748 2.2247 -2.63164e-08)
(58.8229 4.44237 -2.6534e-08)
(60.5568 6.5087 -2.67396e-08)
(63.5757 8.64363 -2.70239e-08)
(67.9238 11.4707 -2.74335e-08)
(73.4448 14.9745 -2.78824e-08)
(80.3088 19.2409 -2.83859e-08)
(88.7299 24.4694 -2.89266e-08)
(98.9291 30.8337 -2.95096e-08)
(111.36 38.4929 -3.01197e-08)
(127.427 48.2365 -3.07953e-08)
(149.438 61.6847 -3.15067e-08)
(182.284 78.9863 -3.22201e-08)
(220.441 84.7196 -3.28686e-08)
(259.689 66.4919 -3.37723e-08)
(254.786 60.4472 -3.40199e-08)
(246.368 53.3835 -3.43855e-08)
(251.803 56.0633 -3.43946e-08)
(256.211 56.6905 -3.46391e-08)
(267.566 53.7093 -3.53848e-08)
(271.759 43.0844 -3.55548e-08)
(275.782 36.6796 -3.59228e-08)
(275.79 26.9355 -3.60905e-08)
(275.43 19.8337 -3.63757e-08)
(273.263 14.3847 -3.64762e-08)
(270.017 8.44321 -3.66536e-08)
(266.521 3.74695 -3.68026e-08)
(263.136 -0.00116346 -3.69428e-08)
(260.008 -3.04811 -3.70493e-08)
(257.305 -5.5127 -3.71546e-08)
(255.074 -7.47894 -3.72346e-08)
(253.411 -8.90356 -3.7298e-08)
(252.353 -9.71776 -3.73437e-08)
(252.112 -9.95823 -3.73674e-08)
(221.191 -5.0879 -5.8971e-10)
(221.008 -5.94572 -6.17969e-10)
(220.84 -6.80028 -6.46847e-10)
(220.705 -7.64508 -6.73422e-10)
(220.577 -8.46256 -6.99048e-10)
(220.466 -9.26017 -7.18612e-10)
(220.355 -10.0283 -7.3575e-10)
(220.25 -10.7748 -7.43048e-10)
(220.14 -11.4972 -7.4561e-10)
(220.027 -12.2043 -7.34563e-10)
(219.908 -12.8957 -7.18473e-10)
(219.782 -13.573 -6.87739e-10)
(219.646 -14.2349 -6.47544e-10)
(219.498 -14.8797 -5.90245e-10)
(219.334 -15.507 -5.19804e-10)
(219.154 -16.114 -4.313e-10)
(218.952 -16.702 -3.28238e-10)
(218.728 -17.2692 -2.0874e-10)
(218.477 -17.8191 -7.6843e-11)
(218.197 -18.3515 6.60636e-11)
(217.882 -18.8697 2.22189e-10)
(217.528 -19.3711 3.85897e-10)
(217.127 -19.8552 5.59881e-10)
(216.671 -20.3192 7.35411e-10)
(216.146 -20.7628 9.17394e-10)
(215.537 -21.1841 1.09052e-09)
(214.826 -21.5814 1.25743e-09)
(213.848 -22.0214 1.41477e-09)
(212.234 -22.4904 1.51291e-09)
(210.279 -22.9014 1.4048e-09)
(208.019 -23.2593 1.2032e-09)
(205.368 -23.5389 6.84993e-10)
(202.471 -23.7666 1.11507e-10)
(199.346 -23.9087 -9.01323e-10)
(196.472 -23.9689 -1.93626e-09)
(193.656 -23.8485 -3.34143e-09)
(191.146 -23.7679 -3.79518e-09)
(188.657 -23.5227 -5.07345e-09)
(186.653 -23.2636 -5.89804e-09)
(184.845 -22.7269 -6.7701e-09)
(183.406 -22.2538 -7.20682e-09)
(183.041 -21.7387 -8.15465e-09)
(184.916 -20.8174 -1.0941e-08)
(190.626 -20.8877 -1.2564e-08)
(204.547 -21.4823 -1.69162e-08)
(229.834 -22.8104 -2.20602e-08)
(255.636 -23.867 -2.63476e-08)
(277.806 -24.7596 -2.96242e-08)
(288.943 -26.5144 -3.09986e-08)
(295.84 -34.6627 -3.23912e-08)
(287.449 -53.5422 -3.27523e-08)
(275.13 -72.0738 -3.32439e-08)
(246.996 -67.1274 -3.26828e-08)
(235.293 -67.3321 -3.25995e-08)
(216.33 -61.472 -3.22343e-08)
(206.916 -58.3939 -3.20976e-08)
(189.502 -52.6491 -3.17856e-08)
(179.974 -48.5889 -3.15806e-08)
(162.665 -42.4782 -3.12949e-08)
(152.775 -37.7518 -3.10344e-08)
(136.166 -31.2762 -3.07766e-08)
(125.728 -26.056 -3.0392e-08)
(113.384 -16.8047 -3.00688e-08)
(111.847 -12.2643 -2.98491e-08)
(107.958 -6.68257 -2.98543e-08)
(105.468 1.30449 -2.93701e-08)
(111.121 3.49159 -2.98189e-08)
(113.938 8.65579 -2.99e-08)
(116.835 11.7532 -3.01476e-08)
(121.023 15.5199 -3.0323e-08)
(124.798 18.9556 -3.06268e-08)
(130.436 23.1842 -3.08736e-08)
(135.909 27.5026 -3.12275e-08)
(143.594 32.9526 -3.15392e-08)
(151.846 39.109 -3.19451e-08)
(163.024 46.951 -3.2325e-08)
(176.868 56.9037 -3.28042e-08)
(197.309 71.4789 -3.32744e-08)
(221.3 90.2732 -3.38514e-08)
(241.907 94.6581 -3.44559e-08)
(258.387 73.9817 -3.50269e-08)
(263.721 63.9365 -3.55045e-08)
(266.057 61.5186 -3.57029e-08)
(270.263 62.6656 -3.61591e-08)
(272.857 63.466 -3.59408e-08)
(275.839 59.6065 -3.69387e-08)
(277.533 51.0351 -3.65107e-08)
(279.534 43.4011 -3.72368e-08)
(278.851 33.3396 -3.68507e-08)
(278.004 24.7954 -3.757e-08)
(274.971 16.7012 -3.71501e-08)
(272.278 10.845 -3.76932e-08)
(268.296 5.71674 -3.7365e-08)
(265.214 1.9854 -3.77581e-08)
(261.551 -1.19583 -3.74883e-08)
(258.96 -3.59794 -3.77614e-08)
(256.277 -5.6709 -3.75477e-08)
(254.712 -7.14224 -3.77079e-08)
(253.724 -7.74748 -3.75991e-08)
(253.359 -7.93816 -3.76214e-08)
(219.988 -4.79955 -1.82312e-10)
(219.792 -5.71124 -1.5721e-10)
(219.576 -6.62097 -1.04059e-10)
(219.424 -7.5253 -6.28476e-11)
(219.246 -8.39295 3.78006e-12)
(219.107 -9.24205 6.1649e-11)
(218.938 -10.0544 1.41709e-10)
(218.788 -10.8541 2.16419e-10)
(218.604 -11.6304 3.09216e-10)
(218.424 -12.396 3.98894e-10)
(218.207 -13.1355 5.0457e-10)
(217.981 -13.8554 6.10545e-10)
(217.717 -14.5413 7.26479e-10)
(217.429 -15.1989 8.40982e-10)
(217.094 -15.819 9.56691e-10)
(216.713 -16.4094 1.06468e-09)
(216.263 -16.9672 1.16e-09)
(215.732 -17.502 1.23294e-09)
(215.087 -18.0149 1.26612e-09)
(214.397 -18.5117 1.28281e-09)
(213.611 -18.9919 1.2524e-09)
(212.77 -19.4574 1.18911e-09)
(211.834 -19.9046 1.06269e-09)
(210.829 -20.3305 9.2041e-10)
(209.73 -20.7366 6.76563e-10)
(208.56 -21.1166 4.14077e-10)
(207.317 -21.4732 2.75441e-11)
(205.833 -21.8559 -4.54906e-10)
(203.894 -22.2597 -1.32115e-09)
(202.309 -22.6013 -2.15629e-09)
(200.52 -22.8638 -3.27205e-09)
(199.024 -23.0901 -3.59827e-09)
(197.414 -23.2614 -4.62337e-09)
(196.137 -23.3987 -5.19778e-09)
(194.945 -23.4174 -5.95151e-09)
(193.889 -23.3379 -6.42691e-09)
(193.273 -23.1709 -7.12835e-09)
(193.116 -22.9856 -8.07598e-09)
(194.53 -22.8286 -1.00612e-08)
(197.554 -23.0409 -1.1222e-08)
(204.155 -23.6031 -1.37605e-08)
(215.883 -24.703 -1.69585e-08)
(233.744 -26.1255 -2.1257e-08)
(253.356 -27.6656 -2.46776e-08)
(273.411 -28.0495 -2.86289e-08)
(287.785 -27.1182 -3.03351e-08)
(299.472 -26.4192 -3.21789e-08)
(305.307 -27.086 -3.26739e-08)
(307.593 -31.172 -3.32145e-08)
(303.598 -41.4128 -3.32803e-08)
(292.418 -57.7443 -3.32447e-08)
(276.518 -68.0655 -3.30839e-08)
(256.592 -61.9598 -3.29068e-08)
(244.507 -65.3499 -3.26526e-08)
(227.863 -57.5581 -3.24946e-08)
(217.675 -57.0995 -3.22061e-08)
(202.677 -49.8136 -3.20852e-08)
(192.626 -47.5255 -3.17739e-08)
(178.162 -40.712 -3.16909e-08)
(168.183 -37.2399 -3.1358e-08)
(155.111 -30.7833 -3.13087e-08)
(145.973 -26.3742 -3.0957e-08)
(137.71 -18.2056 -3.09164e-08)
(136.059 -13.8374 -3.06451e-08)
(135.387 -5.90471 -3.07396e-08)
(132.908 0.995017 -3.04445e-08)
(138.64 4.57929 -3.07954e-08)
(139.529 10.9696 -3.07373e-08)
(143.233 14.6249 -3.10245e-08)
(145.455 19.6312 -3.10681e-08)
(149.132 23.9291 -3.1379e-08)
(152.45 28.994 -3.15074e-08)
(156.904 34.149 -3.18499e-08)
(162.028 40.1001 -3.20617e-08)
(168.646 46.7089 -3.24525e-08)
(177.393 54.5428 -3.27587e-08)
(189.892 64.2626 -3.32289e-08)
(208.61 76.2671 -3.36593e-08)
(232.075 84.8542 -3.42134e-08)
(250.996 79.6589 -3.46666e-08)
(260.317 67.7103 -3.50167e-08)
(265.186 63.5584 -3.52857e-08)
(267.593 61.0895 -3.5582e-08)
(272.03 59.6339 -3.6102e-08)
(274.946 55.1726 -3.59253e-08)
(277.792 48.5679 -3.67505e-08)
(278.733 41.1951 -3.62547e-08)
(280.056 33.9935 -3.69657e-08)
(278.899 26.4906 -3.65756e-08)
(277.593 20.1403 -3.7099e-08)
(274.456 14.266 -3.68287e-08)
(271.703 9.30766 -3.71941e-08)
(267.975 5.10045 -3.69792e-08)
(264.962 1.73823 -3.72362e-08)
(261.557 -1.00203 -3.70569e-08)
(258.988 -3.07319 -3.72305e-08)
(256.461 -4.57347 -3.70808e-08)
(254.881 -5.47512 -3.71839e-08)
(253.926 -5.77581 -3.71088e-08)
(253.57 -5.88515 -3.7121e-08)
(216.943 -4.51606 6.0569e-10)
(216.667 -5.45254 6.62319e-10)
(216.271 -6.37375 6.72578e-10)
(216.012 -7.29294 7.05682e-10)
(215.632 -8.16736 7.03739e-10)
(215.343 -9.02755 7.07364e-10)
(214.929 -9.84958 6.85198e-10)
(214.568 -10.6652 6.52519e-10)
(214.092 -11.4557 5.99522e-10)
(213.657 -12.2357 5.2124e-10)
(213.124 -12.9853 4.23674e-10)
(212.618 -13.7172 2.878e-10)
(212.028 -14.4179 1.30116e-10)
(211.454 -15.0984 -7.59968e-11)
(210.811 -15.7499 -3.07809e-10)
(210.179 -16.3814 -5.93561e-10)
(209.504 -16.9859 -9.05363e-10)
(208.858 -17.5686 -1.26646e-09)
(208.222 -18.1218 -1.63977e-09)
(207.584 -18.6475 -2.07158e-09)
(206.951 -19.1412 -2.52582e-09)
(206.338 -19.6068 -3.03142e-09)
(205.713 -20.0195 -3.16373e-09)
(205.103 -20.4334 -3.64117e-09)
(204.492 -20.8072 -3.87666e-09)
(203.909 -21.1732 -4.33744e-09)
(203.342 -21.5008 -4.6389e-09)
(202.737 -21.8597 -5.14634e-09)
(202.043 -22.2178 -5.65349e-09)
(201.513 -22.5038 -6.1174e-09)
(200.992 -22.6711 -6.40257e-09)
(200.718 -22.7676 -6.94247e-09)
(200.62 -22.8607 -7.70012e-09)
(201.334 -23.0651 -9.16491e-09)
(202.718 -23.2559 -9.89057e-09)
(205.36 -23.7414 -1.14584e-08)
(209.955 -24.507 -1.31906e-08)
(217.06 -25.7165 -1.55833e-08)
(229.129 -27.4875 -1.87407e-08)
(242.034 -29.3751 -2.15375e-08)
(258.045 -31.3144 -2.50929e-08)
(272.301 -32.6021 -2.75548e-08)
(285.719 -33.2321 -2.99942e-08)
(296.951 -33.4719 -3.14361e-08)
(305.754 -33.1012 -3.28268e-08)
(311.08 -32.9131 -3.30311e-08)
(314.259 -33.5225 -3.3619e-08)
(315.308 -35.9813 -3.34162e-08)
(312.889 -41.2706 -3.35959e-08)
(306.176 -50.7482 -3.32301e-08)
(294.206 -61.8916 -3.31125e-08)
(279.335 -67.2207 -3.25957e-08)
(262.275 -65.1722 -3.2809e-08)
(249.867 -65.1664 -3.22621e-08)
(235.469 -59.8278 -3.24082e-08)
(224.749 -57.4533 -3.19113e-08)
(211.732 -51.4211 -3.20306e-08)
(201.411 -47.8927 -3.15911e-08)
(189.023 -41.7755 -3.17058e-08)
(179.179 -37.4836 -3.12974e-08)
(168.459 -31.2252 -3.14011e-08)
(160.276 -25.9414 -3.10485e-08)
(154.009 -18.3002 -3.1158e-08)
(152.301 -12.9599 -3.08674e-08)
(152.213 -5.03761 -3.10186e-08)
(150.306 0.596224 -3.0823e-08)
(154.922 5.91014 -3.10591e-08)
(154.343 11.8018 -3.09791e-08)
(158.262 16.0943 -3.12363e-08)
(158.94 21.0267 -3.12449e-08)
(162.825 25.4655 -3.15278e-08)
(164.794 30.3338 -3.16202e-08)
(169.395 35.4427 -3.19352e-08)
(173.53 41.0822 -3.21145e-08)
(180.515 47.6158 -3.24781e-08)
(189.029 55.3923 -3.27561e-08)
(202.267 65.3122 -3.31926e-08)
(219.259 76.2532 -3.35764e-08)
(237.754 81.7574 -3.40758e-08)
(252.198 74.5074 -3.44179e-08)
(260.429 66.6995 -3.46201e-08)
(265.766 64.3272 -3.48211e-08)
(269.16 61.9005 -3.53314e-08)
(272.983 59.8102 -3.5409e-08)
(274.784 54.6561 -3.56403e-08)
(276.836 47.8172 -3.59782e-08)
(277.628 41.2826 -3.58949e-08)
(278.355 34.4167 -3.621e-08)
(277.297 27.511 -3.61245e-08)
(275.953 21.1935 -3.63737e-08)
(273.187 15.3352 -3.62447e-08)
(270.511 10.5055 -3.64967e-08)
(267.077 6.3556 -3.63561e-08)
(264.133 3.06835 -3.65304e-08)
(260.949 0.376965 -3.64054e-08)
(258.489 -1.65743 -3.65232e-08)
(256.192 -3.03842 -3.64143e-08)
(254.762 -3.7422 -3.64795e-08)
(253.938 -3.9057 -3.64196e-08)
(253.624 -3.94778 -3.64344e-08)
(212.158 -3.91963 -2.46597e-09)
(211.787 -4.85681 -2.47452e-09)
(211.384 -5.76184 -2.76148e-09)
(211.092 -6.73356 -2.6854e-09)
(210.751 -7.63228 -2.94909e-09)
(210.487 -8.56927 -2.94908e-09)
(210.159 -9.44513 -3.2038e-09)
(209.887 -10.3467 -3.26856e-09)
(209.56 -11.1986 -3.52388e-09)
(209.292 -12.0654 -3.64381e-09)
(208.983 -12.8886 -3.90558e-09)
(208.732 -13.7158 -4.07117e-09)
(208.449 -14.5009 -4.33987e-09)
(208.22 -15.2776 -4.53956e-09)
(207.968 -16.0085 -4.81039e-09)
(207.765 -16.7154 -5.02872e-09)
(207.546 -17.366 -5.29028e-09)
(207.369 -17.9734 -5.50713e-09)
(207.176 -18.5128 -5.74266e-09)
(207.008 -18.9998 -5.93478e-09)
(206.821 -19.423 -6.11846e-09)
(206.639 -19.8027 -6.24909e-09)
(206.514 -20.1634 -6.73653e-09)
(206.486 -20.488 -7.04727e-09)
(206.552 -20.7975 -7.51215e-09)
(206.755 -21.0909 -7.94345e-09)
(207.1 -21.3865 -8.43428e-09)
(207.716 -21.7475 -9.04515e-09)
(208.713 -22.1502 -9.81163e-09)
(210.383 -22.6404 -1.07313e-08)
(212.691 -23.2255 -1.18374e-08)
(216.163 -24.0194 -1.32856e-08)
(220.885 -25.0411 -1.49534e-08)
(227.914 -26.4075 -1.70888e-08)
(236.38 -28.0218 -1.92042e-08)
(246.399 -29.917 -2.18115e-08)
(257.469 -31.8511 -2.41559e-08)
(268.779 -33.6123 -2.66023e-08)
(278.803 -34.7607 -2.83527e-08)
(289.195 -35.8189 -3.02302e-08)
(298.055 -36.4027 -3.15767e-08)
(305.611 -36.7808 -3.25815e-08)
(311.615 -36.7858 -3.33125e-08)
(315.957 -36.658 -3.35982e-08)
(318.798 -36.5517 -3.38516e-08)
(320.297 -37.0861 -3.36871e-08)
(320.671 -38.5036 -3.37703e-08)
(319.101 -41.5326 -3.33956e-08)
(314.899 -47.3941 -3.3388e-08)
(307.006 -55.6094 -3.28799e-08)
(295.352 -63.4395 -3.26905e-08)
(281.701 -66.2217 -3.20198e-08)
(266.447 -64.8273 -3.23857e-08)
(254.173 -64.14 -3.17438e-08)
(241.133 -59.1637 -3.20095e-08)
(230.155 -56.7096 -3.1458e-08)
(218.416 -50.6664 -3.16679e-08)
(207.93 -47.1978 -3.12188e-08)
(196.804 -40.9442 -3.14049e-08)
(187.068 -36.6866 -3.10086e-08)
(177.685 -30.2192 -3.11565e-08)
(170.217 -24.9366 -3.08575e-08)
(165.122 -17.4567 -3.10162e-08)
(163.387 -11.6318 -3.07584e-08)
(163.211 -4.12556 -3.09108e-08)
(162.016 1.01011 -3.07977e-08)
(165.117 7.60495 -3.0905e-08)
(164.316 12.9173 -3.08737e-08)
(167.5 18.063 -3.10365e-08)
(167.695 23.0784 -3.10676e-08)
(171.112 27.9678 -3.1277e-08)
(172.538 33.0225 -3.13817e-08)
(176.9 38.3655 -3.16472e-08)
(180.617 44.1487 -3.18358e-08)
(187.63 50.8064 -3.21652e-08)
(196.041 58.4527 -3.2447e-08)
(209.381 67.3724 -3.28571e-08)
(225.223 75.0111 -3.32315e-08)
(241.657 76.275 -3.36475e-08)
(252.951 70.3996 -3.38944e-08)
(260.631 65.5229 -3.40157e-08)
(266.073 62.6767 -3.40887e-08)
(269.843 59.9257 -3.49615e-08)
(273.194 55.7458 -3.47311e-08)
(274.783 49.937 -3.51947e-08)
(276.234 43.6947 -3.53643e-08)
(276.769 37.6642 -3.5359e-08)
(276.97 31.1405 -3.5434e-08)
(275.795 25.2207 -3.54818e-08)
(274.215 19.5076 -3.5597e-08)
(271.655 14.5163 -3.55196e-08)
(269.066 10.0867 -3.56973e-08)
(265.979 6.44387 -3.56132e-08)
(263.178 3.43752 -3.57326e-08)
(260.286 1.14875 -3.5644e-08)
(257.947 -0.52615 -3.57137e-08)
(255.908 -1.57928 -3.56341e-08)
(254.633 -2.11049 -3.56741e-08)
(253.925 -2.22352 -3.56304e-08)
(253.652 -2.25172 -3.56468e-08)
(212.222 -3.32316 -5.77423e-09)
(211.794 -4.30988 -5.80972e-09)
(211.473 -5.33806 -5.80007e-09)
(211.196 -6.35651 -5.97047e-09)
(210.985 -7.37022 -6.05261e-09)
(210.802 -8.36668 -6.21317e-09)
(210.647 -9.33745 -6.36274e-09)
(210.519 -10.2986 -6.53391e-09)
(210.413 -11.2226 -6.7367e-09)
(210.36 -12.1291 -6.93196e-09)
(210.339 -12.9859 -7.1799e-09)
(210.394 -13.8155 -7.40882e-09)
(210.493 -14.5884 -7.69898e-09)
(210.686 -15.3297 -7.96987e-09)
(210.942 -16.0177 -8.30429e-09)
(211.311 -16.6798 -8.62631e-09)
(211.764 -17.3018 -9.0128e-09)
(212.35 -17.9084 -9.39958e-09)
(213.046 -18.4855 -9.85595e-09)
(213.92 -19.0596 -1.03399e-08)
(214.97 -19.6271 -1.09142e-08)
(216.293 -20.2148 -1.15615e-08)
(217.894 -20.8258 -1.23176e-08)
(219.858 -21.4755 -1.30813e-08)
(222.269 -22.1797 -1.40082e-08)
(225.254 -22.96 -1.49902e-08)
(228.957 -23.8493 -1.61776e-08)
(234.328 -25.0548 -1.77114e-08)
(239.476 -26.2802 -1.91873e-08)
(246.605 -27.868 -2.10432e-08)
(253.441 -29.4137 -2.27534e-08)
(261.424 -31.1293 -2.4617e-08)
(269.005 -32.7207 -2.62602e-08)
(276.481 -34.1687 -2.77806e-08)
(283.813 -35.4975 -2.91604e-08)
(291.071 -36.6868 -3.04843e-08)
(297.836 -37.6766 -3.15334e-08)
(303.979 -38.4625 -3.24839e-08)
(309.352 -39.0638 -3.31006e-08)
(314.007 -39.4959 -3.36855e-08)
(317.653 -39.7206 -3.39033e-08)
(320.57 -39.7985 -3.41145e-08)
(322.603 -39.8208 -3.40651e-08)
(323.959 -39.9841 -3.40088e-08)
(324.645 -40.4554 -3.38399e-08)
(324.613 -41.5095 -3.36303e-08)
(323.564 -43.4857 -3.34401e-08)
(320.759 -47.1879 -3.31105e-08)
(315.552 -52.7773 -3.28991e-08)
(307.171 -59.4736 -3.24072e-08)
(296.055 -64.9363 -3.20999e-08)
(283.196 -66.6852 -3.14141e-08)
(269.205 -65.3299 -3.17974e-08)
(257.357 -63.9534 -3.1167e-08)
(245.12 -59.4788 -3.14454e-08)
(234.335 -56.3246 -3.09189e-08)
(223.217 -50.6289 -3.11418e-08)
(212.947 -46.5936 -3.07383e-08)
(202.441 -40.4926 -3.09365e-08)
(193.063 -35.7298 -3.05801e-08)
(184.39 -29.138 -3.07301e-08)
(177.555 -23.4467 -3.04883e-08)
(173.002 -16.144 -3.06626e-08)
(171.225 -10.0297 -3.04473e-08)
(170.781 -3.05354 -3.05912e-08)
(170.086 1.94695 -3.05321e-08)
(171.929 8.8614 -3.05491e-08)
(171.411 13.8274 -3.05675e-08)
(173.663 19.3879 -3.06468e-08)
(174.019 24.2364 -3.0711e-08)
(176.894 29.286 -3.08543e-08)
(178.493 34.2403 -3.09862e-08)
(182.679 39.573 -3.12066e-08)
(186.689 45.2741 -3.14132e-08)
(193.906 51.8486 -3.17103e-08)
(202.677 59.286 -3.20029e-08)
(215.656 67.332 -3.23779e-08)
(229.617 72.9248 -3.27382e-08)
(243.463 72.4297 -3.30938e-08)
(253.075 67.8683 -3.32887e-08)
(260.509 64.4321 -3.33817e-08)
(265.841 61.2143 -3.33781e-08)
(269.456 58.3607 -3.41487e-08)
(271.889 53.3212 -3.41727e-08)
(273.242 47.8194 -3.44052e-08)
(274.316 41.8416 -3.46538e-08)
(274.81 36.1822 -3.44954e-08)
(274.786 30.1199 -3.46336e-08)
(273.787 24.6458 -3.46564e-08)
(272.263 19.2628 -3.47738e-08)
(270.006 14.7102 -3.47292e-08)
(267.549 10.5605 -3.48384e-08)
(264.763 7.1985 -3.47986e-08)
(262.126 4.35519 -3.48747e-08)
(259.548 2.23241 -3.48153e-08)
(257.42 0.699568 -3.48533e-08)
(255.657 -0.170955 -3.47957e-08)
(254.53 -0.600816 -3.48176e-08)
(253.913 -0.688081 -3.47873e-08)
(253.672 -0.71109 -3.47949e-08)
(218.381 -2.39077 -1.01361e-08)
(217.83 -3.40165 -1.01179e-08)
(217.745 -4.42396 -1.03054e-08)
(217.563 -5.50719 -1.04028e-08)
(217.728 -6.56648 -1.06315e-08)
(217.84 -7.64774 -1.08241e-08)
(218.199 -8.69263 -1.11099e-08)
(218.562 -9.73714 -1.13863e-08)
(219.152 -10.7427 -1.17395e-08)
(219.825 -11.7527 -1.20998e-08)
(220.73 -12.7416 -1.25351e-08)
(221.792 -13.7444 -1.29925e-08)
(223.118 -14.7412 -1.35333e-08)
(224.686 -15.7624 -1.4116e-08)
(226.587 -16.7941 -1.47993e-08)
(228.856 -17.8656 -1.55541e-08)
(231.602 -18.9732 -1.64398e-08)
(234.843 -20.143 -1.74184e-08)
(238.335 -21.3343 -1.8454e-08)
(242.281 -22.5857 -1.95625e-08)
(246.5 -23.8594 -2.07222e-08)
(251.105 -25.1714 -2.19249e-08)
(255.928 -26.4831 -2.31479e-08)
(261.017 -27.7996 -2.43735e-08)
(266.202 -29.0903 -2.55915e-08)
(271.436 -30.3494 -2.67519e-08)
(276.501 -31.536 -2.78467e-08)
(281.877 -32.7975 -2.89293e-08)
(286.003 -33.853 -2.97326e-08)
(291.787 -35.1753 -3.08053e-08)
(295.878 -36.175 -3.14888e-08)
(301.106 -37.3516 -3.23502e-08)
(304.796 -38.2308 -3.28506e-08)
(309.211 -39.2078 -3.34658e-08)
(312.469 -39.9356 -3.38027e-08)
(316.088 -40.6617 -3.41942e-08)
(318.65 -41.146 -3.43347e-08)
(321.347 -41.6145 -3.45131e-08)
(323.156 -41.9227 -3.44769e-08)
(324.988 -42.2215 -3.44877e-08)
(326.061 -42.3778 -3.43062e-08)
(327.088 -42.5993 -3.42078e-08)
(327.597 -42.8711 -3.39338e-08)
(327.886 -43.356 -3.37685e-08)
(327.664 -44.1658 -3.34621e-08)
(326.854 -45.5837 -3.32428e-08)
(324.907 -48.0604 -3.29237e-08)
(321.356 -51.8979 -3.26251e-08)
(315.524 -56.9775 -3.22738e-08)
(307.162 -62.2505 -3.18331e-08)
(296.621 -66.1266 -3.14047e-08)
(284.467 -67.1612 -3.07793e-08)
(271.436 -65.6541 -3.11083e-08)
(260.081 -63.7117 -3.05422e-08)
(248.427 -59.3753 -3.07823e-08)
(237.904 -55.8015 -3.03179e-08)
(227.219 -50.1569 -3.05182e-08)
(217.162 -45.7939 -3.01784e-08)
(207.084 -39.6351 -3.03687e-08)
(197.995 -34.5527 -3.00595e-08)
(189.819 -27.767 -3.01981e-08)
(183.4 -21.8492 -3.00084e-08)
(179.157 -14.5953 -3.01826e-08)
(177.254 -8.41463 -3.00079e-08)
(176.595 -1.71459 -3.01387e-08)
(176.13 3.37493 -3.01144e-08)
(177.208 10.2514 -3.00774e-08)
(176.89 15.1669 -3.01216e-08)
(178.458 20.9976 -3.01449e-08)
(179.007 25.8186 -3.02255e-08)
(181.385 31.0636 -3.03192e-08)
(183.2 36.0228 -3.04673e-08)
(187.104 41.428 -3.06509e-08)
(191.374 47.1252 -3.08715e-08)
(198.513 53.5573 -3.11416e-08)
(207.437 60.4399 -3.14445e-08)
(219.773 66.9486 -3.17901e-08)
(232.43 70.337 -3.21301e-08)
(244.363 69.095 -3.24165e-08)
(252.935 65.7134 -3.25696e-08)
(260.126 62.6199 -3.26324e-08)
(265.226 58.8998 -3.2783e-08)
(268.566 55.6924 -3.32978e-08)
(270.583 50.1871 -3.35552e-08)
(271.736 45.2235 -3.36111e-08)
(272.61 39.4472 -3.38277e-08)
(273.04 34.272 -3.36917e-08)
(272.883 28.5952 -3.38528e-08)
(271.969 23.6549 -3.37932e-08)
(270.49 18.6672 -3.39425e-08)
(268.447 14.5368 -3.38812e-08)
(266.144 10.6729 -3.39802e-08)
(263.632 7.64464 -3.39502e-08)
(261.204 5.06235 -3.40055e-08)
(258.896 3.23522 -3.39616e-08)
(256.976 1.89501 -3.39821e-08)
(255.442 1.17732 -3.39404e-08)
(254.444 0.809593 -3.39476e-08)
(253.901 0.74027 -3.39276e-08)
(253.686 0.720367 -3.39298e-08)
(237.351 -1.01993 -1.73492e-08)
(237.224 -2.14017 -1.7471e-08)
(237.797 -3.32669 -1.77971e-08)
(238.321 -4.63356 -1.8058e-08)
(239.457 -5.9715 -1.84986e-08)
(240.621 -7.38478 -1.8906e-08)
(242.319 -8.80162 -1.94693e-08)
(244.103 -10.2527 -2.0023e-08)
(246.353 -11.7011 -2.07082e-08)
(248.733 -13.1877 -2.13958e-08)
(251.532 -14.696 -2.21895e-08)
(254.493 -16.2533 -2.2988e-08)
(257.812 -17.8371 -2.38656e-08)
(261.277 -19.4564 -2.47387e-08)
(265.001 -21.0812 -2.5656e-08)
(268.785 -22.7058 -2.65437e-08)
(272.652 -24.2949 -2.74275e-08)
(276.451 -25.8437 -2.82523e-08)
(280.438 -27.363 -2.91055e-08)
(284.347 -28.8285 -2.98973e-08)
(288.321 -30.2406 -3.06852e-08)
(292.179 -31.5864 -3.14048e-08)
(295.998 -32.864 -3.20957e-08)
(299.657 -34.0701 -3.27123e-08)
(303.194 -35.2031 -3.32838e-08)
(306.532 -36.2652 -3.37772e-08)
(309.693 -37.2548 -3.42191e-08)
(313.014 -38.3084 -3.46324e-08)
(314.433 -38.9682 -3.47121e-08)
(317.504 -39.9327 -3.50388e-08)
(319.001 -40.6042 -3.50514e-08)
(321.398 -41.3657 -3.52368e-08)
(322.619 -41.9437 -3.51516e-08)
(324.493 -42.5525 -3.52255e-08)
(325.485 -43.0419 -3.50635e-08)
(326.907 -43.5119 -3.50465e-08)
(327.644 -43.9 -3.48157e-08)
(328.643 -44.2414 -3.4727e-08)
(329.14 -44.5507 -3.44407e-08)
(329.777 -44.8104 -3.43039e-08)
(330.043 -45.1154 -3.39737e-08)
(330.355 -45.4445 -3.38028e-08)
(330.278 -45.9162 -3.34572e-08)
(330.101 -46.6003 -3.32577e-08)
(329.317 -47.7133 -3.29031e-08)
(327.964 -49.5088 -3.26711e-08)
(325.395 -52.2423 -3.22962e-08)
(321.345 -56.0127 -3.20001e-08)
(315.232 -60.4103 -3.15759e-08)
(307.108 -64.5992 -3.11661e-08)
(297.089 -67.4305 -3.06633e-08)
(285.514 -68.0527 -3.01119e-08)
(273.314 -66.1855 -3.03679e-08)
(262.447 -63.8997 -2.9874e-08)
(251.303 -59.4768 -3.00624e-08)
(241.082 -55.5222 -2.96663e-08)
(230.744 -49.8383 -2.98349e-08)
(220.924 -45.0868 -2.9561e-08)
(211.178 -38.8391 -2.97385e-08)
(202.373 -33.333 -2.94728e-08)
(194.561 -26.3599 -2.95975e-08)
(188.421 -20.1497 -2.94508e-08)
(184.309 -12.9555 -2.96231e-08)
(182.246 -6.74022 -2.94796e-08)
(181.403 -0.235385 -2.96001e-08)
(181.002 4.92907 -2.95987e-08)
(181.619 11.6001 -2.95309e-08)
(181.381 16.5628 -2.95856e-08)
(182.5 22.4551 -2.95748e-08)
(183.138 27.2373 -2.96584e-08)
(185.175 32.5479 -2.97195e-08)
(187.154 37.4159 -2.98745e-08)
(190.904 42.7938 -3.00342e-08)
(195.461 48.3362 -3.02647e-08)
(202.598 54.5004 -3.05165e-08)
(211.553 60.7102 -3.08234e-08)
(222.992 65.9067 -3.11408e-08)
(234.305 67.8767 -3.14543e-08)
(244.774 66.5144 -3.16926e-08)
(252.777 63.8007 -3.18356e-08)
(259.642 60.7031 -3.18943e-08)
(264.421 56.7395 -3.20628e-08)
(267.37 53.3143 -3.26186e-08)
(269.122 47.8473 -3.25882e-08)
(270.099 43.252 -3.30093e-08)
(270.898 37.7109 -3.27483e-08)
(271.244 32.9231 -3.30361e-08)
(271.061 27.5763 -3.29457e-08)
(270.208 23.0285 -3.30129e-08)
(268.832 18.3666 -3.30855e-08)
(266.97 14.5701 -3.30534e-08)
(264.86 10.9693 -3.31258e-08)
(262.582 8.21681 -3.31065e-08)
(260.377 5.83523 -3.31461e-08)
(258.314 4.22167 -3.31136e-08)
(256.6 3.04657 -3.31144e-08)
(255.255 2.44727 -3.30911e-08)
(254.37 2.1252 -3.30843e-08)
(253.886 2.06955 -3.30744e-08)
(253.693 2.05183 -3.30708e-08)
(268.096 -0.223206 -2.62545e-08)
(268.888 -1.59343 -2.65913e-08)
(270.057 -3.10187 -2.69987e-08)
(271.414 -4.76354 -2.74134e-08)
(273.121 -6.49624 -2.78949e-08)
(274.977 -8.31345 -2.83767e-08)
(277.134 -10.1494 -2.89177e-08)
(279.382 -12.0133 -2.94488e-08)
(281.862 -13.8602 -3.00249e-08)
(284.371 -15.7026 -3.05791e-08)
(287.046 -17.521 -3.1161e-08)
(289.712 -19.3381 -3.1709e-08)
(292.493 -21.1364 -3.22687e-08)
(295.232 -22.9271 -3.2784e-08)
(298.033 -24.6919 -3.32965e-08)
(300.758 -26.4352 -3.37565e-08)
(303.499 -28.1383 -3.42022e-08)
(306.14 -29.7993 -3.45932e-08)
(308.761 -31.3965 -3.49639e-08)
(311.244 -32.925 -3.52734e-08)
(313.67 -34.3717 -3.55572e-08)
(315.931 -35.7327 -3.57779e-08)
(318.103 -37.0019 -3.59707e-08)
(320.096 -38.1782 -3.61011e-08)
(321.979 -39.2605 -3.6203e-08)
(323.681 -40.2504 -3.62482e-08)
(325.259 -41.15 -3.62659e-08)
(326.798 -42.0694 -3.62261e-08)
(327.012 -42.5527 -3.60562e-08)
(328.316 -43.2839 -3.59884e-08)
(328.767 -43.8568 -3.57434e-08)
(329.646 -44.3267 -3.56487e-08)
(329.969 -44.8191 -3.53586e-08)
(330.646 -45.195 -3.5236e-08)
(330.882 -45.6448 -3.49177e-08)
(331.433 -45.9861 -3.47704e-08)
(331.589 -46.3981 -3.44327e-08)
(332.009 -46.6974 -3.42669e-08)
(332.079 -47.0671 -3.3913e-08)
(332.343 -47.3545 -3.37287e-08)
(332.26 -47.7475 -3.33715e-08)
(332.278 -48.1706 -3.31695e-08)
(331.875 -48.8187 -3.28108e-08)
(331.355 -49.7335 -3.25901e-08)
(330.16 -51.1371 -3.22255e-08)
(328.386 -53.1812 -3.1973e-08)
(325.364 -56.031 -3.15823e-08)
(321.019 -59.5409 -3.12746e-08)
(314.863 -63.3277 -3.08305e-08)
(307.046 -66.7144 -3.04307e-08)
(297.526 -68.854 -2.99059e-08)
(286.489 -69.1641 -2.941e-08)
(275.047 -66.8608 -2.96045e-08)
(264.64 -64.2934 -2.91677e-08)
(253.98 -59.6652 -2.9311e-08)
(244.061 -55.3762 -2.89711e-08)
(234.041 -49.5432 -2.91124e-08)
(224.451 -44.4373 -2.88955e-08)
(214.999 -38.0171 -2.90635e-08)
(206.454 -32.1189 -2.88344e-08)
(198.935 -24.9273 -2.89475e-08)
(192.979 -18.444 -2.88342e-08)
(188.897 -11.2325 -2.90029e-08)
(186.642 -4.95885 -2.88871e-08)
(185.606 1.45406 -2.89987e-08)
(185.163 6.63189 -2.90145e-08)
(185.494 13.1276 -2.89281e-08)
(185.25 18.1802 -2.89866e-08)
(186.057 24.0662 -2.89545e-08)
(186.696 28.8656 -2.90354e-08)
(188.504 34.2122 -2.90757e-08)
(190.567 39.0195 -2.92343e-08)
(194.232 44.3623 -2.93794e-08)
(198.961 49.7069 -2.96165e-08)
(206.02 55.4744 -2.98571e-08)
(214.783 60.7953 -3.01653e-08)
(225.356 64.6673 -3.04573e-08)
(235.624 65.6198 -3.07513e-08)
(245.023 64.3446 -3.09646e-08)
(252.602 61.838 -3.11037e-08)
(259.063 58.5645 -3.11616e-08)
(263.509 54.3918 -3.13234e-08)
(266.148 50.8362 -3.18395e-08)
(267.724 45.5752 -3.16812e-08)
(268.565 41.2759 -3.23885e-08)
(269.303 36.0339 -3.1782e-08)
(269.564 31.5861 -3.23314e-08)
(269.388 26.5825 -3.19653e-08)
(268.574 22.392 -3.23307e-08)
(267.319 18.0625 -3.21456e-08)
(265.606 14.5821 -3.23159e-08)
(263.692 11.263 -3.22462e-08)
(261.622 8.76869 -3.2314e-08)
(259.639 6.61221 -3.22774e-08)
(257.794 5.19043 -3.22998e-08)
(256.275 4.15091 -3.22594e-08)
(255.088 3.64013 -3.22627e-08)
(254.301 3.35388 -3.22472e-08)
(253.869 3.30822 -3.22405e-08)
(253.696 3.29226 -3.22374e-08)
(296.217 0.0228935 -3.31236e-08)
(297.11 -1.45633 -3.34418e-08)
(297.952 -3.11022 -3.3722e-08)
(299.163 -4.93858 -3.40462e-08)
(300.37 -6.86513 -3.43405e-08)
(301.849 -8.89009 -3.466e-08)
(303.334 -10.9469 -3.49552e-08)
(304.985 -13.0325 -3.52581e-08)
(306.623 -15.099 -3.55382e-08)
(308.329 -17.1504 -3.58106e-08)
(309.993 -19.1591 -3.60594e-08)
(311.662 -21.1453 -3.62886e-08)
(313.297 -23.0985 -3.6493e-08)
(314.911 -25.0273 -3.66699e-08)
(316.495 -26.9163 -3.68211e-08)
(318.035 -28.7661 -3.69388e-08)
(319.545 -30.5597 -3.70323e-08)
(320.993 -32.295 -3.70885e-08)
(322.403 -33.9558 -3.71205e-08)
(323.734 -35.5407 -3.71154e-08)
(325.021 -37.0367 -3.70875e-08)
(326.216 -38.4438 -3.70237e-08)
(327.36 -39.7524 -3.69389e-08)
(328.405 -40.9661 -3.68207e-08)
(329.396 -42.0784 -3.66855e-08)
(330.286 -43.0964 -3.65178e-08)
(331.113 -44.0164 -3.63374e-08)
(331.87 -44.9472 -3.61028e-08)
(331.882 -45.3687 -3.59009e-08)
(332.532 -46.0987 -3.56664e-08)
(332.642 -46.574 -3.53743e-08)
(333.072 -47.0423 -3.51637e-08)
(333.113 -47.4282 -3.48475e-08)
(333.434 -47.7893 -3.4632e-08)
(333.435 -48.1324 -3.43089e-08)