/*--------------------------------*- C++ -*----------------------------------*\
  =========                 |
  \\      /  F ield         | OpenFOAM: The Open Source CFD Toolbox
   \\    /   O peration     | Website:  https://openfoam.org
    \\  /    A nd           | Version:  7
     \\/     M anipulation  |
\*---------------------------------------------------------------------------*/
FoamFile
{
    version     2.0;
    format      ascii;
    class       labelField;
    location    "0.135/lagrangian/reactingCloud1";
    object      cellId;
}
// * * * * * * * * * * * * * * * * * * * * * * * * * * * * * * * * * * * * * //


1201
(
28
93
24
55
54
85
86
84
119
83
77
118
114
227
190
151
148
188
220
223
259
259
255
290
293
254
284
291
291
325
364
398
435
428
460
467
495
502
536
534
533
608
608
608
643
640
679
708
781
745
781
779
809
842
811
832
841
839
842
867
892
921
919
950
940
973
1000
1006
920
1042
1024
901
1007
983
964
965
944
880
907
886
740
861
821
841
825
500
791
761
743
731
721
725
701
690
666
643
621
613
615
260
562
542
521
460
488
491
470
442
430
280
385
240
361
354
300
327
310
292
274
273
244
231
212
184
190
173
143
122
136
107
81
69
64
52
31
27
3
1015
976
1000
1047
1049
917
919
939
943
923
736
859
797
909
866
842
822
676
803
800
806
761
740
723
742
724
657
705
658
686
596
597
619
649
619
579
611
601
455
545
548
496
496
476
522
502
502
489
436
447
438
425
437
409
399
1040
905
952
865
784
807
703
705
687
669
625
632
565
587
569
360
481
482
548
558
507
422
417
389
323
352
305
263
291
242
225
226
40
228
227
217
142
146
81
150
126
102
130
63
20
41
71
47
48
6
7
3
470
466
466
434
464
436
575
487
489
633
510
515
545
684
600
571
623
737
626
625
674
706
731
733
817
871
838
866
866
896
923
952
919
945
944
382
380
384
388
361
364
324
328
260
246
251
221
183
177
170
35
5
120
85
15
32
44
14
331
77
334
112
45
280
322
109
278
191
143
194
358
192
232
140
140
234
234
235
188
233
234
189
185
230
183
273
231
229
230
264
272
272
226
313
265
267
401
310
312
567
395
305
351
346
349
390
393
385
389
644
390
473
386
425
424
642
426
424
643
429
426
468
464
464
598
469
555
554
508
508
509
555
507
504
599
594
549
680
593
591
591
590
591
630
632
678
630
627
674
632
628
626
629
668
671
669
708
712
712
709
706
753
839
754
747
748
744
923
792
790
965
827
868
873
874
958
916
908
952
949
949
948
71
139
21
7
7
61
23
8
41
21
41
17
37
95
37
59
93
93
129
33
92
127
85
231
117
121
122
160
124
339
192
195
185
189
226
225
333
220
376
297
253
297
294
400
402
327
478
366
328
449
417
363
400
364
439
398
399
358
475
400
395
395
394
468
429
468
501
466
614
463
465
501
531
530
571
573
535
570
605
563
565
564
600
666
595
629
630
693
662
659
661
723
690
712
714
720
745
781
746
747
775
808
802
803
801
834
836
865
863
865
897
895
855
893
894
885
881
925
924
948
979
974
982
1004
1030
1057
1049
1051
1057
1005
468
489
820
834
499
611
753
561
2
41
0
10
6
30
96
91
19
49
50
148
73
84
76
107
17
47
56
15
170
116
82
144
139
144
48
44
115
46
82
201
139
73
102
105
102
207
166
102
166
132
224
134
138
131
131
170
193
132
220
132
191
190
161
160
231
221
222
160
190
218
355
221
219
278
228
217
245
336
310
276
278
277
306
305
274
337
273
273
315
276
313
274
296
302
302
310
392
393
303
391
374
335
421
393
331
421
361
421
373
360
360
421
357
358
419
373
330
357
359
359
422
357
447
447
386
417
385
422
416
413
443
414
474
443
536
503
469
441
447
502
469
530
502
469
502
497
471
497
499
499
528
528
531
529
505
555
507
554
588
584
586
617
573
616
586
534
568
611
604
614
609
641
560
670
637
701
637
637
621
699
589
729
698
591
698
731
693
697
693
728
694
725
648
757
721
756
753
721
724
756
756
756
689
753
647
786
749
709
779
786
749
782
751
782
779
777
813
737
812
809
742
839
837
806
839
839
835
871
868
866
868
898
866
834
761
897
894
861
788
819
927
920
889
924
889
923
922
919
924
816
954
953
917
856
978
854
980
978
979
974
973
979
973
1002
872
901
1017
1020
1018
1017
1013
1014
1012
954
927
1025
935
1040
1036
929
1032
1039
1036
1040
929
1039
1048
1044
1048
956
1049
1051
1056
1056
987
1052
1055
1055
1053
1058
36
34
15
214
56
57
140
27
87
80
5
105
48
154
48
24
25
74
77
24
51
75
3
75
48
130
72
256
99
105
96
98
128
96
125
150
122
121
146
145
198
302
226
120
146
168
127
247
144
173
171
223
222
171
229
220
197
168
168
219
221
240
356
377
241
242
323
240
240
348
371
266
265
264
358
265
290
391
295
361
288
288
290
340
369
322
364
360
336
366
336
338
394
471
365
439
414
360
473
340
360
470
394
360
440
338
362
389
384
414
363
384
467
384
384
494
521
432
491
409
67
481
388
408
465
408
436
456
484
488
540
457
540
510
510
480
553
535
480
504
480
535
509
504
529
505
531
554
480
506
613
532
531
529
531
528
528
556
504
559
582
552
557
635
552
607
578
576
576
605
576
600
635
662
604
578
628
605
602
602
602
605
281
606
631
685
600
624
625
707
678
626
650
624
679
651
677
736
652
677
709
675
675
699
695
696
672
696
695
750
697
695
722
723
719
720
775
745
747
748
774
741
742
741
771
768
766
798
795
764
764
769
765
791
815
815
787
810
846
819
810
840
833
838
835
833
837
834
834
856
835
835
885
857
879
860
882
878
878
878
527
882
878
882
879
937
902
900
900
905
927
923
930
927
922
922
922
922
926
927
922
936
947
951
944
944
947
967
974
977
967
969
968
984
997
970
971
967
966
988
989
1019
1002
1010
1011
1013
1010
647
1002
1011
1015
1012
1032
1034
1037
1024
1032
1026
1042
1034
1034
370
395
422
498
539
616
127
529
729
446
793
366
164
830
663
343
916
874
463
223
183
1007
958
800
)


// ************************************************************************* //
