/*--------------------------------*- C++ -*----------------------------------*\
  =========                 |
  \\      /  F ield         | OpenFOAM: The Open Source CFD Toolbox
   \\    /   O peration     | Website:  https://openfoam.org
    \\  /    A nd           | Version:  7
     \\/     M anipulation  |
\*---------------------------------------------------------------------------*/
FoamFile
{
    version     2.0;
    format      ascii;
    class       vectorField;
    location    "0.135/lagrangian/reactingCloud1";
    object      coordinates;
}
// * * * * * * * * * * * * * * * * * * * * * * * * * * * * * * * * * * * * * //


1201
(
(1.81484 0.111301 -1.52958e-08)
(1.74593 0.11349 -1.02175e-07)
(1.80553 0.0891374 1.38936e-07)
(1.78757 0.0855236 5.81345e-07)
(1.7842 0.0734974 -1.92007e-07)
(1.7672 0.0679123 4.24276e-07)
(1.74494 0.0736827 -2.1242e-07)
(1.76411 0.0583365 1.08946e-06)
(1.72532 0.0825879 7.48617e-08)
(1.75002 0.0569769 -4.95415e-08)
(1.74547 0.0173928 -5.25139e-14)
(1.71858 0.0794325 1.15347e-06)
(1.72964 0.0495264 -2.95763e-07)
(1.66336 0.0990432 -5.64151e-07)
(1.68334 0.0873929 5.01678e-08)
(1.69602 0.0643296 7.0683e-08)
(1.69643 0.0381398 -2.12047e-13)
(1.67558 0.0727903 -2.49774e-07)
(1.66144 0.0542926 1.62424e-07)
(1.6662 0.0746327 -4.7704e-08)
(1.63043 0.0843459 -2.84544e-08)
(1.61984 0.0795201 -1.27716e-07)
(1.62658 0.0524828 2.97059e-07)
(1.61924 0.0553249 -7.91935e-08)
(1.60897 0.0762225 2.68863e-07)
(1.62274 0.0464636 -1.24148e-12)
(1.61837 0.0150583 -6.28005e-14)
(1.6148 0.0575553 -8.15612e-08)
(1.60857 0.0627618 1.54905e-08)
(1.59261 0.0528387 7.64333e-08)
(1.5559 0.0812708 1.38012e-07)
(1.54965 0.0715915 9.21935e-09)
(1.51617 0.0885394 -3.5271e-07)
(1.51005 0.0352482 -1.93416e-13)
(1.50077 0.0189212 -8.13282e-13)
(1.49357 0.0687962 -3.20889e-07)
(1.48031 0.0214421 -4.06186e-13)
(1.47427 0.0692538 -2.35842e-08)
(1.46494 0.0600875 -3.45742e-09)
(1.46268 0.0473221 -1.24234e-12)
(1.45338 0.039986 -1.28994e-12)
(1.42005 0.0719872 -1.72824e-08)
(1.41745 0.0713009 -8.11778e-08)
(1.41361 0.071053 2.96762e-07)
(1.39631 0.0762742 4.90591e-08)
(1.39667 0.0531937 -3.47561e-07)
(1.37726 0.084999 -1.76974e-09)
(1.35892 0.0533057 -3.98215e-12)
(1.33324 0.0859172 2.05941e-07)
(1.33831 0.0719322 -2.56218e-08)
(1.32362 0.0825755 1.89163e-07)
(1.32136 0.0707248 -4.27272e-07)
(1.31116 0.0433152 -7.31835e-14)
(1.30064 0.0826123 -7.27415e-08)
(1.30338 0.0577431 -1.0183e-07)
(1.29915 0.021438 -1.44988e-14)
(1.29139 0.0801891 -1.69812e-07)
(1.29124 0.0678909 5.92136e-08)
(1.29453 0.0871608 -2.07152e-07)
(1.28149 0.0739962 1.03444e-07)
(1.26679 0.0587348 5.00457e-08)
(1.24871 0.0693402 -1.86312e-07)
(1.23718 0.0560981 -3.00512e-12)
(1.2264 0.0833025 2.07899e-07)
(1.22807 0.0174111 -5.38641e-12)
(1.21086 0.0591111 6.20239e-08)
(1.20535 0.0565504 -4.3799e-12)
(1.19492 0.0958187 -5.45839e-08)
(0.405914 0.146442 1.06995e-06)
(0.427922 0.13349 5.80489e-11)
(0.425714 0.116987 -8.55845e-12)
(0.400286 0.135252 -9.65047e-07)
(0.4194 0.0925439 4.32249e-11)
(0.416967 0.123857 -3.54927e-11)
(0.414076 0.119314 -1.45438e-12)
(0.410229 0.104885 -1.86784e-11)
(0.407989 0.117638 9.70787e-11)
(0.397954 0.136926 9.21288e-07)
(0.4001 0.0921524 -4.3303e-12)
(0.396948 0.100129 -5.07443e-12)
(0.366627 0.131355 -4.01992e-07)
(0.390277 0.133607 2.17213e-09)
(0.384241 0.130862 -3.82168e-07)
(0.385542 0.129406 -1.72809e-11)
(0.380618 0.0984208 -1.05845e-11)
(0.311024 0.125892 -2.64706e-07)
(0.370843 0.0554281 -3.97611e-12)
(0.371088 0.127559 -6.28668e-12)
(0.367009 0.111607 -7.97475e-11)
(0.360248 0.0592539 -1.37979e-11)
(0.362786 0.127721 -5.19517e-11)
(0.358604 0.0942383 -2.36256e-11)
(0.354702 0.12367 -2.702e-07)
(0.348617 0.0653093 -8.35421e-12)
(0.34653 0.0883911 -3.05537e-11)
(0.344043 0.108066 -1.45031e-11)
(0.340162 0.121662 -5.12878e-11)
(0.333656 0.042659 -3.83175e-12)
(0.329333 0.0262332 -2.82064e-13)
(0.249108 0.12907 1.69415e-07)
(0.324213 0.115402 -1.15285e-10)
(0.32027 0.110726 -1.77717e-10)
(0.315663 0.118784 -5.43887e-11)
(0.303026 0.124951 6.39127e-08)
(0.306826 0.0743931 1.40036e-11)
(0.302315 0.0554569 5.85379e-12)
(0.299302 0.0589579 -3.77962e-11)
(0.295389 0.110319 -7.87672e-11)
(0.290624 0.0636399 -3.26732e-11)
(0.256906 0.127586 -3.12621e-07)
(0.283041 0.0948319 2.21561e-11)
(0.244607 0.12753 -1.09787e-07)
(0.275517 0.121935 -1.35097e-11)
(0.271169 0.0333681 -4.61746e-12)
(0.260484 0.124746 9.87606e-13)
(0.263804 0.0829135 3.44599e-12)
(0.259056 0.0631231 5.6771e-13)
(0.255511 0.0474146 -4.83636e-12)
(0.25146 0.0348302 1.49728e-12)
(0.247889 0.0451179 -1.38491e-12)
(0.24402 0.102025 2.75217e-12)
(0.240102 0.0572242 -1.17024e-11)
(0.235168 0.0515284 -1.04465e-11)
(0.231607 0.102375 -1.56362e-12)
(0.227319 0.0601144 5.69652e-12)
(0.223852 0.0415036 -1.44855e-13)
(0.220216 0.107692 -3.10988e-13)
(0.21561 0.113187 1.62838e-11)
(0.2122 0.0254426 -1.13173e-12)
(0.207352 0.0820006 -1.3781e-13)
(0.203617 0.116638 3.17802e-13)
(0.199556 0.066542 5.46573e-12)
(0.195811 0.0992617 8.99956e-12)
(0.191569 0.0487829 -5.69972e-14)
(0.188139 0.0562066 2.1785e-12)
(0.183745 0.0780064 4.17027e-13)
(0.179761 0.106209 -4.69799e-12)
(0.563795 0.147191 5.93972e-07)
(0.552662 0.1404 -1.73306e-07)
(0.557429 0.11482 1.56726e-10)
(0.563412 0.0547175 -6.09434e-13)
(0.564286 0.041682 -3.54479e-13)
(0.541862 0.132779 3.69692e-07)
(0.539272 0.119634 -5.99763e-07)
(0.543945 0.12317 -1.02515e-13)
(0.544289 0.0867556 7.84703e-11)
(0.540757 0.0891545 4.22752e-12)
(0.503549 0.151318 1.41782e-07)
(0.527439 0.121942 1.00525e-11)
(0.515328 0.140688 3.17414e-08)
(0.535033 0.0425633 1.7588e-13)
(0.526555 0.0713338 6.40944e-11)
(0.525869 0.0961844 1.74439e-12)
(0.520304 0.098837 2.69604e-12)
(0.493491 0.151072 9.98705e-08)
(0.515493 0.0936117 5.14378e-11)
(0.514859 0.113865 3.71678e-11)
(0.515849 0.0697295 6.97437e-13)
(0.508592 0.108328 1.59727e-11)
(0.503857 0.117977 9.85306e-12)
(0.500241 0.0940192 1.9919e-11)
(0.502027 0.0983078 7.19652e-11)
(0.49745 0.0897894 5.40804e-11)
(0.485094 0.146726 -1.78751e-07)
(0.492986 0.0806705 8.86372e-13)
(0.485188 0.137611 4.12369e-11)
(0.49098 0.0709039 9.81867e-13)
(0.475229 0.154032 -3.49134e-08)
(0.475104 0.144506 -5.09352e-07)
(0.479874 0.125543 1.70403e-11)
(0.480074 0.0462647 -3.99761e-13)
(0.477636 0.124429 1.39952e-10)
(0.471904 0.127988 7.88681e-11)
(0.471964 0.0255431 1.8372e-11)
(0.472033 0.111164 3.44984e-11)
(0.4466 0.156499 7.11906e-07)
(0.463006 0.0767175 -1.02867e-11)
(0.460043 0.0531248 -3.36325e-12)
(0.45473 0.148686 4.88535e-10)
(0.451954 0.146158 3.19984e-07)
(0.448212 0.150257 -2.03729e-07)
(0.456501 0.104258 7.52141e-11)
(0.45355 0.104885 1.31026e-10)
(0.45351 0.10039 -1.97486e-13)
(0.448569 0.0416364 2.93593e-11)
(0.441468 0.145917 -2.16736e-07)
(0.439571 0.0636109 8.15583e-11)
(0.441741 0.128288 1.33479e-10)
(0.436821 0.0764747 -4.30968e-12)
(0.439303 0.142386 -2.05357e-07)
(0.429535 0.0441184 -1.05322e-11)
(0.434069 0.119001 -7.15547e-12)
(0.821409 0.0229123 -5.4609e-11)
(0.780648 0.0763128 4.83868e-11)
(0.793003 0.0395917 -1.21086e-10)
(0.765911 0.074758 2.94355e-08)
(0.743492 0.0798453 1.16118e-07)
(0.750891 0.0654673 -2.17257e-10)
(0.72403 0.0848743 -2.0854e-08)
(0.725624 0.0759554 1.89682e-11)
(0.718543 0.0648459 -6.90826e-13)
(0.714824 0.057196 1.26031e-11)
(0.704821 0.0820589 5.4763e-12)
(0.707488 0.040706 1.80855e-11)
(0.691603 0.0862426 1.75544e-10)
(0.694696 0.070383 2.37676e-11)
(0.691328 0.0612375 1.74919e-12)
(0.646531 0.125722 4.47994e-09)
(0.67488 0.108615 -5.05798e-07)
(0.672108 0.107991 4.6078e-08)
(0.685641 0.0648163 1.83685e-11)
(0.685057 0.0101708 -1.64741e-11)
(0.676235 0.0725636 4.15501e-13)
(0.661931 0.110288 -2.43543e-07)
(0.65698 0.015623 -1.41856e-11)
(0.650561 0.0682467 1.74506e-11)
(0.638172 0.10878 -1.86597e-11)
(0.642042 0.0471721 5.63223e-11)
(0.635274 0.0979753 -1.1042e-06)
(0.624603 0.111876 -3.64966e-08)
(0.62859 0.0577312 -4.58974e-14)
(0.623155 0.116833 2.12992e-07)
(0.618554 0.0980089 -1.89549e-11)
(0.617651 0.0942667 2.23599e-13)
(0.578926 0.149247 -2.74289e-09)
(0.615632 0.0767968 7.57787e-11)
(0.614432 0.0880151 -4.22581e-12)
(0.609995 0.019866 9.54102e-12)
(0.599275 0.123105 2.28961e-08)
(0.599641 0.0989653 1.3844e-10)
(0.586388 0.137592 -2.41452e-07)
(0.598445 0.0672648 -4.83942e-13)
(0.595416 0.096315 6.50933e-11)
(0.592033 0.12532 3.38653e-08)
(0.594893 0.0692604 2.59662e-11)
(0.584649 0.120808 -4.59561e-11)
(0.576377 0.148003 6.84698e-08)
(0.579634 0.137667 -5.74577e-08)
(0.580232 0.0645358 -3.81683e-12)
(0.57965 0.0904302 2.96025e-11)
(0.57709 0.089668 6.49718e-11)
(0.568482 0.100468 -1.25596e-11)
(0.568136 0.0914635 -2.55346e-12)
(0.568557 0.122484 -5.90945e-12)
(1.14646 0.106825 3.57166e-07)
(1.14724 0.0897115 -2.66186e-07)
(1.14506 0.085994 1.12508e-07)
(1.15435 0.0596979 -1.47617e-07)
(1.14665 0.0772777 -1.07895e-08)
(1.15673 0.0680645 -4.08795e-07)
(1.08535 0.0949909 7.99699e-08)
(1.12702 0.0479407 -4.92994e-13)
(1.12461 0.0633843 2.6974e-08)
(1.06653 0.107357 -6.2796e-07)
(1.11833 0.0264623 -3.55599e-14)
(1.11376 0.0571375 -6.90521e-07)
(1.09976 0.0752426 1.44694e-07)
(1.04493 0.0966128 -1.56981e-07)
(1.07967 0.0840984 -1.00159e-07)
(1.0848 0.0677514 -4.22131e-07)
(1.06568 0.0584169 3.99232e-08)
(1.02137 0.0937994 6.34157e-07)
(1.06226 0.0753826 4.26852e-09)
(1.06624 0.0670609 -4.0994e-08)
(1.04675 0.0384848 7.86483e-12)
(1.028 0.0677888 6.25656e-08)
(1.02548 0.0561202 9.6147e-08)
(1.01668 0.0677746 -2.98604e-07)
(0.98741 0.0853994 -5.45544e-08)
(0.967503 0.0876443 -4.69622e-07)
(0.976101 0.0457911 1.14721e-12)
(0.967026 0.0582525 -8.66994e-08)
(0.971173 0.0544271 2.12199e-12)
(0.960658 0.075006 -9.1396e-08)
(0.954172 0.0740192 -1.08346e-07)
(0.939801 0.0876782 3.40834e-07)
(0.948473 0.0504945 1.34905e-11)
(0.938132 0.0443988 7.38754e-12)
(0.937859 0.0364558 -2.35454e-12)
(0.90124 0.0666803 -3.09008e-09)
(0.90096 0.0793409 4.14729e-08)
(0.900716 0.0573973 -1.93888e-11)
(0.8987 0.0275101 -3.13317e-12)
(0.889435 0.0762946 3.67463e-07)
(0.88718 0.0535345 4.30842e-11)
(0.878233 0.0545307 3.72923e-11)
(0.877602 0.0317594 -9.72237e-12)
(0.856975 0.0791074 2.10685e-07)
(0.848476 0.0421648 2.75634e-14)
(0.849087 0.0166279 -9.12091e-12)
(0.839298 0.0737231 -9.65268e-08)
(0.828904 0.0614339 -4.02657e-11)
(0.825987 0.0918564 -9.9267e-07)
(0.819366 0.0452129 -8.98556e-12)
(4.58825 0.133121 -3.08826e-08)
(4.72104 0.135084 -7.98908e-08)
(4.37456 0.165448 -3.79842e-07)
(4.46989 0.150171 1.24834e-06)
(4.61007 0.093818 4.08693e-07)
(4.59627 0.113077 3.06154e-07)
(4.53401 0.0888928 -6.82009e-09)
(4.6365 0.0844097 -6.53796e-08)
(4.10381 0.197979 1.46078e-07)
(4.41361 0.0951445 -3.3946e-10)
(4.07533 0.223163 9.49473e-08)
(4.3602 0.117134 7.88382e-08)
(4.48009 0.0954376 -2.44292e-07)
(4.14917 0.127777 1.11939e-07)
(4.10439 0.13745 6.15672e-08)
(4.37075 0.08928 3.2253e-10)
(4.15181 0.113122 2.67453e-08)
(4.28177 0.0703909 -4.3967e-07)
(4.3184 0.025282 6.18795e-07)
(4.26478 0.0995424 4.88934e-07)
(3.9979 0.115051 2.08778e-07)
(4.24724 0.0871888 -1.39135e-07)
(4.22335 0.0686531 3.54635e-07)
(4.31325 0.00284776 1.23166e-08)
(4.33719 0.00420359 1.16409e-07)
(4.19198 0.0818556 2.48087e-08)
(4.21389 0.0805561 -1.70373e-07)
(4.17119 0.0895337 5.83369e-08)
(4.27892 0.0494941 -1.94328e-07)
(4.17978 0.0720717 -3.98942e-08)
(4.20119 0.0831263 -6.3808e-08)
(4.22896 0.0565244 -5.37387e-08)
(4.25222 0.0223834 -1.94988e-07)
(4.22318 0.0491491 5.47014e-07)
(4.24125 0.00796955 -2.4041e-08)
(4.13577 0.0750575 -1.85982e-08)
(4.16782 0.0573164 5.41638e-07)
(4.20854 0.0348584 2.61393e-07)
(4.18058 0.0484445 3.63013e-07)
(4.16 0.00577255 2.05519e-07)
(4.15903 0.0603356 1.01094e-07)
(4.12127 0.0668731 -3.29036e-08)
(4.17973 0.0161037 3.80873e-08)
(4.06777 0.0733983 -1.14477e-07)
(4.13095 0.0112626 4.14929e-07)
(4.12418 0.0193846 -6.86181e-08)
(3.94493 0.132735 -5.10173e-08)
(4.07569 0.0443473 7.97478e-08)
(4.05258 0.0601271 3.80312e-07)
(3.71313 0.157788 4.29754e-07)
(3.96432 0.087031 8.9079e-08)
(4.05125 0.0107412 2.72802e-07)
(4.04139 0.0534952 -3.40646e-07)
(4.0254 0.0145424 3.65802e-07)
(4.00118 0.0377071 -5.97901e-08)
(3.97664 0.0460487 -1.38114e-07)
(3.92955 0.0700876 -3.6082e-08)
(3.97771 0.0102249 1.98612e-10)
(3.96207 0.0401125 -5.35248e-08)
(3.63607 0.140655 -4.94388e-10)
(3.93482 0.0477922 -7.01595e-08)
(3.8664 0.0720132 1.69416e-07)
(3.95536 0.0131987 -1.99397e-07)
(3.92219 0.00780872 1.55529e-07)
(3.90232 0.00595504 -2.32801e-08)
(3.61996 0.134056 -1.9438e-07)
(3.90507 0.0125156 -2.37343e-07)
(3.89243 3.50894e-11 -1.84118e-13)
(3.59322 0.135746 1.40645e-07)
(3.88182 0.0386935 -6.98514e-08)
(3.88459 0.0163531 -1.25631e-07)
(3.85017 0.0316411 -2.23096e-07)
(3.86965 0.00577928 2.24234e-07)
(3.85634 0.00228075 2.81647e-07)
(3.66422 0.108457 -3.90028e-07)
(3.81995 0.040349 1.1911e-07)
(3.7384 0.0868863 6.16938e-08)
(3.73921 0.0755582 -4.93392e-08)
(3.77995 0.0317751 -8.97209e-08)
(3.78705 0.0294611 -1.61162e-07)
(3.77488 0.0374155 -1.82072e-08)
(3.70688 0.0848504 5.45339e-08)
(3.77381 0.0245423 -1.88242e-07)
(3.77416 2.19752e-11 9.00872e-14)
(3.65353 0.118025 -2.39381e-08)
(3.66066 0.0785119 -5.94589e-08)
(3.70537 0.0351345 1.65377e-07)
(3.56651 0.124108 1.42348e-08)
(3.67383 0.0690117 -6.14706e-07)
(3.68467 0.0540642 -3.00993e-07)
(3.66359 0.0514801 1.12716e-06)
(3.66622 0.0469826 -9.84647e-08)
(3.6476 0.0507893 2.59211e-07)
(3.64053 0.0448613 1.78744e-07)
(3.61962 0.0562267 -1.12686e-07)
(3.56548 0.108226 -5.89662e-08)
(3.62269 0.0458982 -1.26857e-07)
(3.62427 0.0236634 -1.01772e-07)
(3.57465 0.0818958 1.26027e-07)
(3.5967 0.0608057 2.17139e-07)
(3.59398 0.0299586 2.48571e-08)
(3.60227 0.0153857 -1.46674e-07)
(3.59506 0.0323481 2.3214e-07)
(3.54557 0.0285162 -2.01651e-07)
(3.53755 0.0548017 -5.89466e-08)
(3.5391 0.0334917 5.47653e-08)
(3.53214 0.0306358 -2.88777e-07)
(3.50044 0.0602249 -1.22953e-06)
(3.48665 0.0600491 2.85318e-07)
(3.49462 0.0342318 -4.53868e-08)
(3.48658 0.0164577 -3.56305e-13)
(3.46266 0.069679 4.75899e-08)
(3.36907 0.111969 2.75417e-08)
(3.44 0.0776182 4.74847e-07)
(3.44798 0.0195032 -7.29343e-08)
(3.44157 0.0262714 7.60839e-08)
(3.44535 0.00227007 -1.65155e-07)
(3.23229 0.133466 -7.63068e-08)
(3.38693 0.0570977 -5.0201e-08)
(3.39217 0.0415643 1.736e-07)
(3.18164 0.138636 1.70818e-07)
(3.3618 0.0206859 4.25738e-07)
(3.32608 0.0299761 -3.47049e-07)
(3.30931 0.0703225 1.25924e-07)
(3.29275 0.0729447 2.14235e-08)
(3.21937 0.105065 -5.6531e-07)
(3.26484 0.0901146 -8.00298e-07)
(3.24196 0.029678 1.00894e-07)
(3.22235 0.0568974 -2.41189e-08)
(3.1948 0.0316082 -8.93899e-07)
(3.19092 0.0360219 1.3864e-08)
(3.18359 0.0295853 -2.73758e-07)
(3.00566 0.144027 5.86704e-07)
(2.93749 0.144751 -6.18362e-07)
(3.12602 0.0609929 6.47325e-07)
(3.17564 0.0470604 -1.70956e-07)
(3.15095 0.05151 1.08886e-07)
(3.0144 0.0916372 -7.51741e-09)
(3.11899 0.070068 -1.87162e-08)
(3.15281 0.0588964 1.70627e-07)
(3.07912 0.072688 -1.57874e-07)
(3.10585 0.0580018 1.13281e-07)
(3.07211 0.0745011 -1.13833e-07)
(3.08652 0.0233796 -1.97912e-07)
(3.0523 0.043751 4.77147e-07)
(2.95964 0.0913421 1.15674e-07)
(3.07396 0.0427448 -4.41585e-07)
(3.02335 0.0748037 2.13705e-07)
(2.98351 0.0721465 -5.07108e-08)
(2.94885 0.0746761 -6.71608e-08)
(2.89474 0.0890835 -7.12569e-07)
(3.04771 0.0121361 2.91415e-07)
(2.96779 0.0598029 -2.34609e-07)
(2.902 0.0726185 5.46865e-07)
(2.96824 0.0121169 5.98866e-07)
(2.79088 0.088785 2.37516e-07)
(2.91748 2.41458e-09 6.4754e-12)
(2.9257 0.0284523 5.53473e-07)
(2.9102 0.0317354 2.27348e-08)
(2.85312 0.0624648 4.26772e-07)
(2.90064 0.0474822 -4.05276e-07)
(2.65029 0.122938 -8.43599e-08)
(2.84801 0.0471666 -5.38674e-08)
(2.80954 0.0681903 -1.82291e-07)
(2.84509 0.00407029 -2.81385e-07)
(2.8057 0.0271701 -4.32425e-07)
(2.7906 0.0462652 -4.37721e-08)
(2.79426 0.0418721 1.62495e-08)
(2.67122 0.0842945 3.29279e-07)
(2.76618 0.00914489 5.18314e-14)
(2.6108 0.131621 -1.6643e-07)
(2.71354 0.0708416 -7.01724e-08)
(2.74144 5.40767e-11 4.39118e-13)
(2.71366 0.070569 2.67546e-07)
(2.68834 0.0489918 1.12435e-08)
(2.56045 0.0805609 3.59774e-07)
(2.56796 0.0938827 4.34659e-07)
(2.6724 0.0390744 -6.1384e-08)
(2.51046 0.129551 2.18986e-07)
(2.6304 0.0754242 -4.94448e-09)
(2.65484 0.0436728 -1.00569e-08)
(2.5391 0.158014 4.49216e-07)
(2.57527 0.175957 9.03378e-08)
(2.62651 0.0543274 -4.20759e-08)
(2.57977 0.0774452 1.48561e-09)
(2.60433 0.0610177 -1.33567e-07)
(2.54422 0.111206 7.20382e-07)
(2.5908 0.0584606 -4.56856e-07)
(2.5899 0.0717867 -7.21046e-08)
(2.60352 0.020198 2.03854e-07)
(2.48893 0.120629 2.94077e-07)
(2.5699 0.0765822 -7.75208e-08)
(2.58892 0.038344 -2.44493e-10)
(2.58359 0.0402216 -4.14203e-07)
(2.56116 0.031936 -3.79858e-13)
(2.49505 0.0787255 5.07887e-07)
(2.53508 0.0381102 -1.7479e-07)
(2.49025 0.0749838 -1.00107e-06)
(2.47253 0.0659437 -8.87893e-08)
(2.47763 0.0629212 -6.03842e-07)
(2.34538 0.127727 4.10693e-08)
(2.48312 0.0379424 -1.63939e-07)
(2.47552 0.0520936 2.70553e-08)
(2.45423 0.0712542 -5.49015e-08)
(2.42757 0.0383484 -6.32223e-13)
(2.4207 0.0302602 3.85608e-07)
(2.37002 0.0855163 3.31207e-07)
(2.3647 0.0975473 -2.45876e-08)
(2.40224 0.0681838 4.32434e-08)
(2.3754 0.073873 2.18277e-09)
(2.34574 0.0809603 1.12706e-07)
(2.38962 0.0228895 1.83721e-07)
(2.36952 0.0331075 5.72535e-13)
(2.36323 0.0281438 -8.53377e-13)
(2.3555 0.0424384 2.62727e-07)
(2.27434 0.10028 -1.08185e-07)
(2.32947 0.0146517 -1.29823e-14)
(2.31284 0.0441884 -2.1992e-07)
(2.29819 0.0523687 1.10995e-07)
(2.24981 0.0852878 -9.28604e-08)
(2.27117 0.0752031 2.45219e-07)
(2.27559 0.048123 4.16159e-10)
(2.25972 0.0685881 -1.48955e-07)
(2.20209 0.0961646 4.56332e-07)
(2.2353 0.0640564 3.53406e-07)
(2.21574 0.0185945 -4.79899e-08)
(2.20629 0.0265313 8.77464e-14)
(2.19519 0.0733718 -9.13854e-08)
(2.16473 0.0446635 -3.97596e-07)
(2.13062 0.0917467 -8.17023e-07)
(2.15299 0.0532709 7.65934e-07)
(2.15471 0.0575984 -5.50724e-07)
(2.12682 0.0493388 -1.54176e-08)
(2.09904 0.0773057 9.75185e-08)
(2.10797 0.037651 3.95855e-07)
(2.09801 0.0398213 -3.9375e-13)
(2.08784 0.0276925 -1.14693e-12)
(2.08164 0.0557518 6.1286e-07)
(2.0744 0.0705912 1.94334e-07)
(2.04608 0.0710145 1.67196e-07)
(2.05035 0.0577069 -1.89447e-07)
(2.03795 0.0687252 -5.30133e-07)
(2.01589 0.0899839 -2.78247e-07)
(2.02426 0.0821183 -4.98191e-07)
(2.03566 0.00638359 -7.22908e-07)
(2.00796 0.0660329 -7.99171e-08)
(2.00203 0.0727312 1.05287e-07)
(2.00224 0.0123703 -8.93305e-14)
(2.04428 0.159334 2.89033e-08)
(1.96741 0.0864924 -6.66662e-08)
(1.96374 0.0776015 4.85647e-08)
(1.93696 0.0417991 -4.60252e-08)
(1.92716 0.0558928 -3.16892e-07)
(1.92525 0.0202394 1.21277e-13)
(1.91593 0.0754362 -9.18437e-08)
(1.89814 0.0383939 6.58526e-14)
(1.86692 0.0394567 -1.39406e-14)
(1.84325 0.0814003 -1.61378e-07)
(1.83714 0.0261097 1.2303e-07)
(1.83699 0.04311 -2.62929e-07)
(1.827 0.0816261 -1.11281e-08)
(6.42811 0.501567 -3.79294e-07)
(7.11271 0.434001 -5.6742e-07)
(6.94935 0.343143 -4.44046e-07)
(5.45053 0.267825 -5.7818e-08)
(5.36245 0.233444 -2.82835e-07)
(6.9076 0.269699 6.57097e-07)
(6.37013 0.26524 -3.78885e-07)
(5.69128 0.230586 -2.23928e-07)
(6.61479 0.249121 1.08588e-07)
(7.24407 0.16515 -1.09443e-06)
(7.1932 0.232014 3.13065e-09)
(7.21721 0.153922 2.10171e-07)
(7.24368 0.216007 -1.06245e-06)
(7.23641 0.188329 2.45405e-07)
(7.15455 0.156066 -4.35794e-07)
(7.01294 0.207587 -3.82604e-08)
(7.02331 0.177467 1.56347e-07)
(7.17891 0.0408037 -3.9562e-07)
(7.06104 0.0551081 2.24066e-07)
(7.06505 0.0598594 1.90368e-07)
(6.88687 0.167705 -5.39629e-08)
(7.04735 1.11639e-09 7.47865e-12)
(7.03707 0.123675 -3.1079e-07)
(7.03026 0.0292045 3.85603e-07)
(6.95137 0.0555848 -1.06379e-06)
(7.15795 0.0200002 -7.43478e-07)
(7.11664 0.0278794 1.0676e-09)
(7.05616 0.124782 -2.10323e-07)
(7.17316 6.97061e-10 1.0581e-12)
(6.79635 0.108469 1.15932e-07)
(6.96357 0.144148 -4.87579e-07)
(7.01016 0.0943399 1.59013e-09)
(6.85314 0.137488 7.44068e-08)
(6.84843 0.0822919 -7.41811e-10)
(6.90724 0.142146 -7.49875e-08)
(7.09996 0.0419444 -1.87423e-07)
(7.05873 1.35243e-10 -3.26312e-13)
(6.91188 0.138689 3.88027e-07)
(7.08589 0.0228679 -9.68046e-07)
(6.98291 0.0986887 1.35355e-07)
(6.7142 0.124716 4.82846e-07)
(6.90575 0.0801016 4.76951e-07)
(6.98562 0.00188378 -5.68863e-08)
(6.92195 0.00365541 1.43427e-07)
(6.92094 0.0273555 -6.97654e-08)
(6.97882 8.13501e-07 -7.08504e-09)
(6.75044 0.171603 2.7368e-08)
(6.81561 0.06436 -2.95281e-07)
(6.96677 1.7653e-10 8.16469e-13)
(6.77034 0.0563634 -2.68667e-08)
(6.90113 0.0108425 2.09383e-06)
(6.68927 0.0686668 1.08075e-07)
(6.86865 0.0270426 8.63568e-08)
(6.89439 0.07759 -1.04001e-08)
(6.87537 8.57278e-11 2.93399e-14)
(6.87071 0.00640771 1.10372e-07)
(6.76427 0.103674 -6.91257e-07)
(6.75431 0.0383269 -5.83127e-07)
(6.84143 0.0105429 6.66035e-07)
(6.62371 0.0256157 -7.82904e-07)
(6.83839 0.00907464 -8.97783e-08)
(6.76296 0.0204785 3.08358e-07)
(6.75038 0.0138268 -2.60886e-07)
(6.78613 0.0148894 -2.39638e-07)
(6.80675 0.000402961 -3.51417e-08)
(6.64943 0.147539 2.98267e-08)
(6.68451 0.0359142 3.08607e-07)
(6.64612 0.0455004 -3.4888e-07)
(6.77953 0.00101463 -1.11879e-07)
(6.73213 0.00975351 -1.31416e-08)
(6.67726 0.0108718 -8.51368e-08)
(6.3543 0.226648 1.4616e-07)
(6.65877 0.035424 1.05698e-06)
(6.68641 0.0206079 -6.9354e-08)
(6.48896 0.0517195 1.09712e-08)
(6.64118 0.110084 -1.4372e-07)
(6.6461 4.79568e-10 -4.34886e-13)
(6.61868 0.00714652 1.58249e-07)
(6.38816 0.0650958 1.00711e-06)
(6.44361 0.0876485 -7.6394e-09)
(6.54101 0.0319663 2.37571e-08)
(6.48817 0.0509621 6.17536e-07)
(6.48111 0.0380585 -1.6943e-07)
(6.45554 0.0533151 2.37598e-07)
(6.42017 0.0432507 -3.29898e-07)
(6.52535 0.0101969 2.85936e-07)
(6.36872 0.0808312 -1.40845e-07)
(6.53444 4.15596e-11 2.42001e-13)
(6.53191 2.11048e-09 1.1601e-11)
(6.47024 0.138921 -5.19525e-08)
(6.49053 0.0268663 -3.35294e-08)
(6.47089 0.120195 5.96364e-07)
(6.47853 0.0102329 -2.99399e-07)
(6.47829 0.201385 -2.59526e-07)
(6.45361 0.0101159 2.72301e-08)
(6.44584 0.0125204 -2.30286e-07)
(6.46376 0.0868602 -2.45829e-08)
(6.20835 0.0703253 4.25937e-07)
(6.22274 0.0801829 -2.71804e-07)
(6.41046 0.0179846 -1.13993e-07)
(6.21596 0.052704 3.89906e-07)
(6.27978 0.159342 -4.872e-07)
(6.38937 0.0547606 4.49012e-07)
(6.15814 0.0815462 -3.533e-08)
(6.19445 0.0736107 -1.42673e-07)
(6.34114 0.0223863 -1.30192e-07)
(6.17209 0.0836617 -5.39356e-07)
(6.28182 0.03988 2.24676e-07)
(6.15539 0.0830461 8.04477e-08)
(6.2635 0.153939 -1.87139e-07)
(6.28638 0.032893 -1.60698e-07)
(6.28563 0.026233 -1.01082e-07)
(6.18029 0.0736619 2.85655e-08)
(6.28971 1.23242e-10 2.14478e-13)
(6.29221 0.0123837 -1.38996e-07)
(6.14966 0.0616424 -7.62024e-08)
(6.26691 0.154404 8.66597e-08)
(6.33306 0.0104498 -4.81408e-07)
(6.29723 0.00620978 -2.87208e-07)
(6.26521 0.0219081 2.14019e-08)
(6.27398 0.0217223 5.40481e-08)
(6.16184 0.0893809 6.63636e-07)
(6.26423 2.60675e-10 1.15774e-12)
(6.1139 0.0542998 -8.07998e-08)
(6.08406 0.0597161 -1.29201e-06)
(6.2149 0.015348 6.29148e-09)
(6.12339 0.0380803 9.77868e-08)
(6.19695 0.00111945 -2.63936e-08)
(6.11834 0.0899164 -2.88023e-08)
(6.15975 0.0249387 3.08709e-07)
(6.17383 2.24564e-09 1.85388e-11)
(6.10243 0.0237331 -1.02571e-07)
(6.14082 0.0108473 5.47769e-08)
(6.0337 0.0488005 8.19322e-08)
(6.07999 0.0222357 2.92464e-07)
(5.85837 0.104182 6.8651e-07)
(5.90396 0.0551818 -5.44838e-07)
(6.04067 0.00305908 7.32943e-08)
(6.05066 0.00481083 -3.46201e-08)
(6.11351 0.0597894 -1.53626e-07)
(5.93735 0.0433216 -7.52619e-08)
(6.01859 0.000215041 -5.57361e-08)
(5.89432 0.0447743 1.28104e-07)
(5.9251 0.0474566 1.84875e-07)
(5.97943 4.66228e-10 -3.43378e-12)
(5.92267 0.0494674 4.36434e-07)
(5.96589 0.00359671 1.45476e-07)
(5.97945 0.0217126 -3.64851e-07)
(5.93405 7.83736e-11 -4.61359e-13)
(5.92488 0.0196478 -2.70331e-07)
(5.90582 0.0209841 -9.55693e-08)
(5.89252 0.0285732 1.83283e-07)
(5.85495 0.0304797 4.90219e-08)
(5.83096 0.0545842 8.04348e-07)
(5.85417 0.0326608 -6.42339e-08)
(5.93956 0.0792753 -4.48446e-08)
(5.81608 0.0226455 1.52257e-07)
(5.9611 0.0970313 6.05517e-08)
(5.81086 0.0126498 -6.63718e-08)
(5.73416 0.0609218 2.96673e-07)
(5.74708 0.0266821 4.77664e-07)
(5.71443 0.0483833 1.93927e-07)
(5.64667 0.0748191 -5.87365e-07)
(5.76866 0.170178 3.89089e-07)
(5.63884 0.0632309 -6.87091e-08)
(5.69249 0.0462543 2.68141e-07)
(5.84955 0.0875172 -9.32791e-07)
(5.78877 0.145021 -9.51859e-08)
(5.65629 0.0211618 -6.92992e-08)
(5.69932 0.188548 -1.92141e-07)
(5.62089 0.0409453 3.83596e-07)
(5.61933 0.000766443 -2.08098e-07)
(5.58642 0.033834 5.45796e-08)
(5.82542 0.0636574 -2.78144e-07)
(5.5431 0.0474695 5.6721e-08)
(5.5897 6.84834e-12 2.90138e-14)
(5.46081 0.0690752 -9.53694e-07)
(5.55312 6.35959e-10 6.22836e-14)
(5.5941 0.00472105 -4.78027e-07)
(5.66902 0.118583 -3.94433e-07)
(5.45515 0.0523895 1.74563e-09)
(5.71506 0.0712771 2.64229e-07)
(5.39541 0.074071 1.09209e-08)
(5.46492 0.0423541 2.97904e-08)
(5.70797 0.0985872 -7.11047e-08)
(5.43105 0.0405173 -7.23736e-07)
(5.35941 0.0915108 -5.77969e-08)
(5.46548 1.01555e-10 5.90461e-13)
(5.43653 0.0307374 2.16646e-08)
(5.4443 0.00310847 7.1422e-08)
(5.38062 0.067455 -1.22714e-07)
(5.42521 0.00864512 -4.08583e-07)
(5.38268 0.0343872 1.19974e-07)
(5.60044 0.103378 7.40288e-08)
(5.30341 0.0744161 -6.05545e-07)
(5.39743 0.00380117 -3.66387e-08)
(5.30019 0.0636301 -2.94586e-07)
(5.30753 0.0367347 -1.59949e-07)
(5.35369 3.44074e-10 2.8228e-12)
(5.35174 0.0285013 -8.02106e-09)
(5.29825 0.0575633 9.1601e-08)
(5.30547 0.0596275 -8.7186e-08)
(5.27404 0.0592423 6.39875e-08)
(5.50098 0.190732 9.96158e-07)
(5.31492 0.0330246 -1.31953e-07)
(5.56356 0.0923955 -8.74674e-08)
(5.26448 0.0856136 -2.59877e-08)
(5.33377 2.8122e-10 -1.51283e-13)
(5.46399 0.14566 5.35982e-07)
(5.26439 0.0165274 -1.14707e-06)
(5.21292 0.078948 3.75841e-08)
(5.26955 0.00607686 -6.08965e-09)
(5.22571 0.0429778 -8.90161e-10)
(5.26869 0.0174431 -5.77696e-08)
(5.21386 0.0455855 2.72632e-07)
(5.25191 0.0214153 3.36401e-07)
(5.21378 3.14361e-12 1.32683e-14)
(5.14343 0.0731676 3.92994e-07)
(5.36615 0.141215 -3.35901e-07)
(5.15518 0.0649221 -5.1514e-07)
(5.15735 0.0338355 7.73964e-08)
(5.35462 0.168784 1.87293e-07)
(5.1115 0.0472924 2.21708e-09)
(5.10273 0.0358438 4.15822e-07)
(5.13416 0.00856466 7.31971e-08)
(5.10798 0.048507 1.42773e-06)
(5.09415 0.0470429 -2.99828e-08)
(5.11277 0.0213662 -3.51519e-07)
(5.04421 0.0879646 -1.88178e-07)
(5.04435 0.0626269 3.83719e-07)
(5.05111 0.0421055 -2.77598e-07)
(5.03098 0.0637412 -2.15589e-07)
(4.96684 0.0797413 -9.11409e-09)
(5.02569 0.0392617 -1.06735e-07)
(5.06492 0.00676893 -6.98518e-08)
(5.3022 0.110269 -2.95188e-07)
(4.9381 0.0731086 -6.96208e-07)
(4.97681 0.0436711 -2.01119e-07)
(5.01016 0.00256351 7.8292e-09)
(5.24697 0.105203 1.14053e-07)
(5.17176 0.130624 -1.01489e-06)
(4.88303 0.0844067 1.04428e-07)
(4.91609 0.0256692 -1.79257e-07)
(4.9455 0.00546053 -5.59855e-07)
(4.89312 0.0594642 1.73299e-07)
(4.93166 8.68416e-07 -5.10601e-09)
(4.90231 0.0494381 -1.07706e-09)
(4.90075 0.0455758 2.18198e-07)
(4.91021 0.0174485 -2.40756e-07)
(4.87368 0.0562035 1.11736e-07)
(5.19845 0.103213 -3.56527e-08)
(4.84256 0.0740726 -3.98427e-08)
(4.82163 0.0687464 -3.00119e-08)
(4.87106 1.113e-09 -7.53849e-12)
(5.09219 0.178819 -3.33185e-07)
(4.79576 0.044698 1.33169e-07)
(5.08199 0.165437 2.35044e-07)
(4.76752 0.0593561 1.16261e-07)
(4.77062 0.0436741 -1.63923e-08)
(4.76472 0.0467317 -6.03533e-08)
(4.77131 0.00896474 -5.32356e-08)
(4.76308 0.00339589 -4.7106e-07)
(4.73977 0.0507481 -1.64892e-07)
(4.74021 3.44529e-09 -1.29341e-11)
(4.70611 0.00685545 -8.19155e-09)
(5.0237 0.0995009 -1.41211e-07)
(4.99627 0.10551 4.57894e-07)
(4.65448 0.0388235 7e-07)
(4.62889 0.0693926 -2.22046e-08)
(4.63928 0.0475013 -6.08662e-08)
(4.63942 0.0401098 5.11817e-07)
(4.64137 0.00801512 -2.09029e-08)
(4.62482 0.0181482 1.56523e-07)
(4.62525 0.00349725 -3.06485e-07)
(4.79818 0.0794791 -5.95774e-07)
(4.88516 0.0878712 2.78161e-07)
(4.59572 0.0213915 2.82019e-07)
(4.89636 0.14738 3.15885e-07)
(4.53417 0.0638842 4.90144e-09)
(4.5297 0.0344103 -9.58518e-09)
(4.88627 0.104053 5.30196e-07)
(4.51984 0.00535766 -4.81982e-07)
(4.51076 0.0617023 -1.6391e-07)
(4.50852 0.0347306 -2.47938e-07)
(4.50115 0.0624964 8.57539e-07)
(4.86322 0.107225 -2.28567e-07)
(4.48157 0.0536098 -6.74401e-08)
(4.46477 0.045104 3.28196e-08)
(4.46377 0.0138166 -3.76305e-07)
(4.45463 0.0483645 3.81979e-07)
(4.81897 0.0979415 1.05495e-07)
(4.44704 0.0554804 -2.38737e-07)
(4.4266 0.07425 -2.27278e-09)
(4.40593 0.0328835 7.00243e-08)
(4.40195 0.0337286 -2.69641e-08)
(4.77302 0.122528 9.50869e-08)
(4.39452 4.34525e-11 -9.59306e-15)
(4.39069 0.0240852 -2.83781e-08)
(4.38817 0.0269986 1.78875e-07)
(4.38327 0.0101093 8.85938e-08)
(4.36951 0.045314 -6.78676e-07)
(9.944 0.156823 6.59508e-07)
(9.92963 0.137088 2.07469e-07)
(9.97903 0.190462 -5.79228e-07)
(9.55647 0.237716 -2.28287e-07)
(9.9016 0.106652 2.47857e-07)
(9.90717 0.115883 1.64832e-08)
(9.74965 0.220917 -1.56456e-06)
(9.94321 0.0356561 -8.54777e-07)
(9.80819 0.188958 2.71915e-07)
(9.84245 0.106917 -1.11051e-07)
(9.96197 0.0670174 3.3796e-08)
(9.78822 0.117105 1.19454e-07)
(9.89649 2.59754e-07 2.18478e-09)
(9.67337 0.1279 -1.55766e-06)
(9.88579 0.00191774 -8.52812e-07)
(9.93494 4.33244e-09 9.6294e-12)
(9.95444 0.013222 9.55276e-09)
(9.85313 0.0281279 1.4473e-07)
(9.83597 0.0646097 -6.75022e-08)
(9.90873 1.30918e-08 -3.52447e-11)
(9.88955 0.0427717 -6.19104e-07)
(9.83043 0.0400023 -1.42349e-08)
(9.95919 0.0422463 -2.60574e-07)
(9.82635 0.0376143 8.20171e-08)
(9.90536 0.00418529 3.9729e-07)
(9.72749 0.136215 -4.18044e-07)
(9.84373 0.00664405 1.2762e-07)
(9.46483 0.191506 -9.40448e-07)
(9.76819 0.0352707 8.7046e-07)
(9.77562 0.118268 -5.7961e-07)
(9.76617 0.0080967 9.77752e-08)
(9.78338 0.0241012 -5.16062e-08)
(9.73196 0.104308 4.5082e-08)
(9.76223 4.08846e-07 1.20602e-09)
(9.72348 0.0665031 -6.32721e-07)
(9.64576 0.0713553 -6.66639e-08)
(9.7363 0.0247249 8.59151e-07)
(9.74481 0.0129125 1.56054e-07)
(9.67169 0.022241 -1.10469e-08)
(9.66438 0.014927 -4.14783e-07)
(9.57299 0.0803689 -9.7043e-09)
(9.36113 0.170856 -2.72716e-07)
(9.47959 0.133408 -7.73795e-08)
(9.71029 0.00140544 -1.48257e-07)
(9.67058 0.0217253 -9.53428e-10)
(9.59568 5.19954e-08 -1.00107e-10)
(9.71348 0.0951752 -1.37733e-07)
(9.43185 0.093553 -4.96801e-07)
(9.65683 1.36477e-09 7.33904e-12)
(9.60299 0.0630007 -5.14197e-08)
(9.60694 0.0378508 -2.50168e-08)