/*--------------------------------*- C++ -*----------------------------------*\
  =========                 |
  \\      /  F ield         | OpenFOAM: The Open Source CFD Toolbox
   \\    /   O peration     | Website:  https://openfoam.org
    \\  /    A nd           | Version:  7
     \\/     M anipulation  |
\*---------------------------------------------------------------------------*/
FoamFile
{
    version     2.0;
    format      ascii;
    class       scalarField;
    location    "0.135/lagrangian/reactingCloud1";
    object      d;
}
// * * * * * * * * * * * * * * * * * * * * * * * * * * * * * * * * * * * * * //


1201
(
8.48449e-07
9.08409e-07
2e-07
2e-07
2e-07
2e-07
2e-07
2e-07
2e-07
2e-07
2e-07
2e-07
2e-07
5.66351e-07
2e-07
2e-07
2e-07
2e-07
2e-07
2e-07
2e-07
2e-07
2e-07
2e-07
2e-07
2e-07
2e-07
2e-07
2e-07
2e-07
2e-07
2e-07
2e-07
2e-07
2e-07
2e-07
2e-07
2e-07
2e-07
2e-07
2e-07
2e-07
2e-07
2e-07
2e-07
2e-07
2e-07
2e-07
2e-07
2e-07
2e-07
2e-07
2e-07
2e-07
2e-07
2e-07
2e-07
2e-07
2e-07
2e-07
2e-07
2e-07
2e-07
2e-07
2e-07
2e-07
2e-07
9.11711e-07
2e-07
2e-07
2e-07
2e-07
2e-07
2e-07
2e-07
2e-07
2e-07
2e-07
2e-07
2e-07
2e-07
2e-07
2e-07
2e-07
2e-07
2e-07
2e-07
2e-07
2e-07
2e-07
2e-07
2e-07
2e-07
2e-07
2e-07
2e-07
2e-07
2e-07
2e-07
2e-07
2e-07
2e-07
2e-07
2e-07
2e-07
2e-07
2e-07
2e-07
2e-07
2e-07
2e-07
2e-07
2e-07
2e-07
2e-07
2e-07
2e-07
2e-07
2e-07
2e-07
2e-07
2e-07
2e-07
2e-07
2e-07
2e-07
2e-07
2e-07
2e-07
2e-07
2e-07
2e-07
2e-07
2e-07
2e-07
2e-07
2e-07
2e-07
2e-07
2e-07
2e-07
2e-07
2e-07
2e-07
2e-07
2e-07
2e-07
2e-07
2e-07
2e-07
2e-07
2e-07
2e-07
2e-07
2e-07
2e-07
2e-07
2e-07
2e-07
2e-07
2e-07
2e-07
2e-07
2e-07
2e-07
2e-07
2e-07
2e-07
2e-07
2e-07
2e-07
2e-07
2e-07
2e-07
2e-07
2e-07
2e-07
2e-07
2e-07
2e-07
2e-07
2e-07
2e-07
2e-07
2e-07
2e-07
2e-07
2e-07
2e-07
2e-07
2e-07
2e-07
2e-07
2e-07
2e-07
2e-07
2e-07
2e-07
2e-07
2e-07
2e-07
2e-07
2e-07
2e-07
2e-07
2e-07
2e-07
2e-07
2e-07
2e-07
2e-07
2e-07
2e-07
2e-07
2e-07
2e-07
2e-07
2e-07
2e-07
2e-07
2e-07
2e-07
2e-07
2e-07
2e-07
2e-07
2e-07
2e-07
2e-07
2e-07
2e-07
2e-07
2e-07
2e-07
2e-07
2e-07
2e-07
2e-07
2e-07
2e-07
2e-07
2e-07
2e-07
2e-07
9.61125e-07
2e-07
2e-07
2e-07
2e-07
2e-07
2e-07
2e-07
2e-07
5.93219e-07
2e-07
2e-07
2e-07
3.94008e-07
2e-07
2e-07
2e-07
2e-07
2e-07
2e-07
2e-07
2e-07
2e-07
2e-07
2e-07
2e-07
2e-07
2e-07
2e-07
2e-07
2e-07
2e-07
2e-07
2e-07
2e-07
2e-07
2e-07
2e-07
2e-07
2e-07
2e-07
2e-07
2e-07
2e-07
2e-07
2e-07
2e-07
2e-07
2e-07
2e-07
1.27988e-06
1.99114e-06
1.05632e-06
1.44606e-06
1.10681e-06
3.22997e-06
2.53228e-06
8.88284e-07
1.26484e-06
3.03912e-06
7.72368e-07
1.66207e-06
8.20034e-07
1.21912e-06
1.33574e-06
1.36833e-06
1.94848e-06
2e-07
2e-07
1.68137e-06
1.01486e-06
2e-07
2e-07
2e-07
2e-07
2e-07
2e-07
2.92733e-06
2e-07
2e-07
2e-07
2e-07
2e-07
2e-07
2e-07
2e-07
2e-07
2e-07
2e-07
2e-07
2e-07
2e-07
2e-07
2e-07
2e-07
2e-07
1.0479e-06
2e-07
2e-07
6.39869e-07
7.53693e-07
2e-07
2e-07
2e-07
2e-07
2e-07
2e-07
2e-07
2e-07
1.07323e-06
2e-07
2e-07
2e-07
2e-07
2e-07
1.23244e-06
2e-07
2e-07
1.35227e-06
2e-07
2e-07
2e-07
2e-07
2e-07
1.67757e-06
2e-07
1.96391e-06
2e-07
2e-07
2e-07
2e-07
2e-07
2e-07
2e-07
9.60479e-07
2e-07
2e-07
1.46857e-06
2e-07
2e-07
2e-07
2e-07
2e-07
2e-07
2e-07
8.89862e-07
2e-07
2e-07
2e-07
2e-07
2e-07
2e-07
2e-07
2e-07
2e-07
2e-07
2e-07
2e-07
2e-07
2e-07
2e-07
2e-07
1.4929e-06
2e-07
2e-07
2e-07
2e-07
1.11791e-06
2e-07
2e-07
9.47051e-07
2e-07
2e-07
2e-07
2e-07
1.26198e-06
2e-07
2e-07
2e-07
2e-07
2e-07
2e-07
1.1185e-06
8.88829e-07
2e-07
2e-07
2e-07
1.75401e-06
2e-07
2e-07
2e-07
2e-07
2e-07
2e-07
2e-07
2e-07
2e-07
2e-07
2e-07
2e-07
2e-07
2e-07
2e-07
2e-07
2e-07
1.4785e-06
2e-07
2e-07
2e-07
2e-07
2e-07
1.07859e-06
2e-07
2e-07
2e-07
2e-07
2e-07
2e-07
2e-07
2e-07
8.75696e-07
2e-07
2e-07
2e-07
2e-07
1.81606e-06
1.75796e-06
2e-07
1.14043e-06
2e-07
2e-07
7.07422e-07
4.7496e-07
2e-07
2e-07
2e-07
8.44974e-07
2e-07
2e-07
2e-07
9.74521e-07
2e-07
2e-07
2e-07
2e-07
2e-07
2e-07
2e-07
2e-07
2e-07
8.63922e-07
2e-07
2e-07
2e-07
2e-07
2e-07
2e-07
7.24822e-07
2e-07
2e-07
2e-07
2e-07
2e-07
2e-07
2e-07
1.2256e-06
2e-07
2e-07
2e-07
2e-07
2e-07
2e-07
2e-07
2e-07
2e-07
2e-07
2e-07
2e-07
2e-07
2e-07
2e-07
2e-07
2e-07
2e-07
2e-07
2e-07
2e-07
2e-07
2e-07
2e-07
2e-07
2e-07
2e-07
2e-07
2e-07
2e-07
2e-07
2e-07
5.23969e-07
2e-07
2e-07
2e-07
2e-07
2e-07
2e-07
2e-07
2e-07
2e-07
2e-07
2e-07
2e-07
7.2984e-07
1.08517e-06
1.10675e-06
7.8263e-07
1.36188e-06
2.60399e-06
1.10182e-06
1.18285e-06
1.73179e-06
1.77129e-06
9.82996e-07
1.49573e-06
1.39318e-06
1.60388e-06
1.57113e-06
1.9956e-06
1.13792e-06
2e-07
1.39882e-06
1.34337e-06
1.32098e-06
2e-07
3.44327e-06
2e-07
1.21051e-06
2e-07
2e-07
2.4872e-06
2e-07
2.20156e-06
1.60122e-06
2.59312e-06
1.70517e-06
2.38283e-06
1.66164e-06
2e-07
2e-07
2.15687e-06
2e-07
3.2146e-06
1.92179e-06
3.34619e-06
2e-07
2e-07
6.22741e-06
2e-07
1.92118e-06
4.17345e-06
2e-07
8.99766e-07
2e-07
1.49109e-06
2e-07
3.23701e-06
2e-07
2e-07
3.1273e-06
2e-07
2e-07
2e-07
2e-07
2e-07
5.48545e-06
2e-07
2e-07
1.85675e-06
2e-07
2e-07
2e-07
2e-07
2e-07
9.1755e-07
2e-07
2e-07
2e-07
2.95937e-06
2e-07
2e-07
1.7663e-06
2.57978e-06
2e-07
2e-07
2e-07
2e-07
2e-07
2e-07
1.62566e-06
2e-07
2e-07
2.10347e-06
2e-07
2.7497e-06
2e-07
1.48125e-06
2e-07
2e-07
3.17197e-06
8.11181e-07
1.52462e-06
2e-07
2e-07
1.65939e-06
2.78094e-06
3.52961e-06
1.25404e-06
2e-07
1.46014e-06
2e-07
1.37503e-06
1.92791e-06
2e-07
2e-07
2.51176e-06
2e-07
2e-07
6.84875e-07
2.69422e-06
2e-07
2e-07
5.44355e-06
2e-07
1.06711e-06
2e-07
2e-07
2e-07
2e-07
2e-07
2e-07
9.8299e-07
2e-07
2e-07
2e-07
2e-07
2e-07
2e-07
1.16529e-06
2e-07
2e-07
2e-07
2.50062e-06
2e-07
2e-07
2e-07
2e-07
2e-07
2e-07
2e-07
2e-07
2e-07
2e-07
2e-07
2e-07
2e-07
2e-07
2e-07
3.93117e-06
2e-07
3.16027e-06
2e-07
2e-07
2e-07
2e-07
1.48387e-06
1.15241e-06
2e-07
2e-07
3.2242e-06
3.67372e-06
2e-07
1.40283e-06
2e-07
2e-07
2e-07
2.5813e-06
2e-07
2e-07
2e-07
2e-07
2e-07
1.65254e-06
2e-07
2.787e-06
2e-07
2e-07
3.16157e-06
2e-07
1.09784e-06
2e-07
2e-07
2e-07
2e-07
2e-07
2e-07
1.81306e-06
2e-07
2e-07
2e-07
2e-07
2e-07
2e-07
2e-07
2e-07
2e-07
3.22408e-06
2e-07
2.26997e-06
9.60207e-07
2e-07
1.33244e-06
2e-07
3.55301e-06
2e-07
2e-07
2e-07
2e-07
2e-07
2e-07
2e-07
1.56467e-06
2e-07
2e-07
1.35907e-06
2e-07
2e-07
2e-07
2e-07
2e-07
2e-07
4.14391e-07
2e-07
2e-07
2e-07
2e-07
2e-07
2e-07
2.81774e-06
2e-07
2e-07
2e-07
3.26907e-06
2.08931e-06
5.75478e-07
2e-07
2e-07
2e-07
2e-07
2e-07
2e-07
2e-07
2e-07
2.01744e-06
2e-07
2e-07
2e-07
1.33075e-06
2e-07
1.72846e-06
2e-07
2e-07
2e-07
2e-07
2e-07
2e-07
2e-07
2e-07
2.04988e-06
1.65404e-06
2e-07
2e-07
2e-07
2e-07
2e-07
2e-07
2e-07
1.22021e-06
1.26306e-06
2e-07
1.89275e-06
2e-07
2e-07
1.76318e-06
2e-07
2e-07
2e-07
2e-07
1.52519e-06
2e-07
2e-07
2e-07
2e-07
2.14634e-06
2e-07
2e-07
2e-07
2e-07
1.63163e-06
2e-07
2e-07
2e-07
2e-07
2e-07
2.39528e-06
2.21424e-06
2.7222e-06
1.73393e-06
3.92919e-06
3.00326e-06
3.0577e-06
2.5201e-06
3.61326e-06
4.10001e-06
2.79995e-06
3.684e-06
4.32001e-06
2.89319e-06
2.49078e-06
2.4861e-06
2.47703e-06
2.56659e-06
2.97458e-06
2.45098e-06
3.42805e-06
2.67444e-06
3.65572e-06
4.56064e-06
2.43409e-06
3.46648e-06
2.42721e-06
2.26896e-06
2.40085e-06
2.24936e-06
2.42009e-06
2.56764e-06
2.20711e-06
4.53041e-06
3.40408e-06
3.28737e-06
2.39014e-06
2.38854e-06
2.37051e-06
2.55163e-06
3.45894e-06
2.33401e-06
3.63417e-06
2.67982e-06
2.43196e-06
3.30461e-06
2.18064e-06
4.22757e-06
2.35167e-06
2.40734e-06
2.48086e-06
2.75782e-06
3.04328e-06
2.53188e-06
2.08597e-06
3.68235e-06
2.82186e-06
2.31699e-06
2.31688e-06
2.45594e-06
2.74281e-06
2.27555e-06
1.96232e-06
2.63651e-06
3.20724e-06
2.56688e-06
3.09933e-06
2.24849e-06
2.54754e-06
2.87849e-06
3.368e-06
2.68476e-06
2.21473e-06
6.50921e-06
2.10119e-06
2.19882e-06
2.67751e-06
2.92966e-06
2.33047e-06
3.43351e-06
2.18143e-06
2.18128e-06
3.84947e-06
2.14192e-06
2.72816e-06
1.98753e-06
2.58363e-06
3.81015e-06
2.13909e-06
2.20942e-06
2.1327e-06
2.31029e-06
7.16157e-06
2.01915e-06
2.20207e-06
3.71201e-06
2.10199e-06
2.1026e-06
1.93016e-06
2.05635e-06
2.09524e-06
2.21706e-06
2.06454e-06
2.07938e-06
2.94992e-06
2.16014e-06
2.05503e-06
2.18896e-06
2.07628e-06
2.62353e-06
2.53996e-06
5.15768e-06
1.89159e-06
2.05775e-06
2.05269e-06
1.50228e-06
2.03167e-06
4.16546e-06
2.87397e-06
2.0375e-06
2.83072e-06
2.24249e-06
2.29702e-06
2.02016e-06
2.61834e-06
1.9943e-06
2.65713e-06
1.98599e-06
4.61316e-06
2.11087e-06
2.43833e-06
2.07275e-06
3.28631e-06
2.02458e-06
3.08672e-06
1.90235e-06
4.12891e-06
3.10075e-06
3.30425e-06
1.87662e-06
4.02652e-06
3.45537e-06
2.58044e-06
1.86475e-06
1.84555e-06
1.83402e-06
2.03316e-06
2.05057e-06
1.845e-06
1.81789e-06
2.27963e-06
2.88767e-06
1.8998e-06
1.8152e-06
2.15498e-06
1.939e-06
1.80428e-06
2.56102e-06
1.79878e-06
2.37941e-06
2.44523e-06
3.46862e-06
1.92891e-06
2.30305e-06
1.75122e-06
2.68933e-06
1.71046e-06
1.7263e-06
1.72319e-06
2.79631e-06
1.71452e-06
1.70315e-06
2.06598e-06
2.68526e-06
2.28864e-06
1.80871e-06
2.2611e-06
2.43216e-06
1.70351e-06
2.91799e-06
1.66284e-06
2.91124e-06
1.62847e-06
1.75211e-06
2.54603e-06
2.31442e-06
1.62221e-06
4.00523e-06
1.60161e-06
2.66738e-06
2.86486e-06
1.7012e-06
1.68983e-06
1.5661e-06
2.55647e-06
1.77954e-06
1.71682e-06
2.79021e-06
1.6927e-06
2.10781e-06
1.49882e-06
1.45794e-06
1.45211e-06
1.86802e-06
1.41804e-06
1.41178e-06
1.4208e-06
1.40809e-06
1.40281e-06
2.29934e-06
1.52851e-06
1.37911e-06
1.59211e-06
2.31043e-06
1.47246e-06
1.62573e-06
2.11367e-06
1.58877e-06
2.20029e-06
2.46841e-06
2.31027e-06
1.23321e-06
1.22255e-06
1.20277e-06
1.8907e-06
2.90499e-06
1.36075e-06
2.1496e-06
2.61976e-06
1.17167e-06
1.16001e-06
2.173e-06
3.05409e-06
1.41943e-06
2.76907e-06
3.49634e-06
1.01971e-06
9.85609e-07
2.53882e-06
2.25735e-06
9.23764e-07
3.07866e-06
4.62727e-06
1.7486e-06
1.0653e-06
7.91277e-07
1.47398e-06
7.57788e-07
7.70708e-07
7.18803e-07
9.92821e-07
9.93292e-07
1.29656e-06
6.13492e-07
5.30312e-07
1.08476e-06
1.68698e-06
4.85358e-07
3.65057e-07
4.27864e-07
1.24936e-06
1.33336e-06
3.37104e-07
1.29833e-06
2.22725e-07
2.85143e-06
5.25878e-06
2e-07
3.32376e-06
1.04579e-06
3.40923e-06
2e-07
1.71549e-06
4.11317e-06
2e-07
2e-07
2e-07
2e-07
1.50522e-06
2.27188e-06
2.31433e-06
2.42532e-06
6.9793e-07
3.43333e-06
2e-07
2e-07
1.03381e-06
2e-07
2.14726e-06
2.08126e-06
2e-07
4.94459e-07
2e-07
1.2974e-06
1.93965e-06
7.6124e-07
2.58213e-06
2e-07
2e-07
2e-07
2e-07
1.54109e-06
2.21467e-06
2e-07
2e-07
2e-07
2e-07
1.98983e-06
2.35024e-06
2e-07
1.13852e-06
2e-07
2e-07
2e-07
1.08222e-06
3.68047e-06
2e-07
8.40149e-07
1.35279e-06
2e-07
2e-07
8.71584e-07
2.02068e-06
1.34281e-06
1.95371e-06
2.16881e-06
9.77194e-07
1.09401e-06
1.3836e-06
1.41587e-06
1.58352e-06
1.32366e-06
3.48496e-06
1.75314e-06
1.03781e-06
1.87749e-06
1.8863e-06
6.19207e-07
1.99156e-06
2.67352e-06
1.80487e-06
1.63447e-06
1.26117e-06
2.24424e-06
6.96327e-07
)


// ************************************************************************* //
