/*--------------------------------*- C++ -*----------------------------------*\
  =========                 |
  \\      /  F ield         | OpenFOAM: The Open Source CFD Toolbox
   \\    /   O peration     | Website:  https://openfoam.org
    \\  /    A nd           | Version:  7
     \\/     M anipulation  |
\*---------------------------------------------------------------------------*/
FoamFile
{
    version     2.0;
    format      ascii;
    class       labelField;
    location    "0.135/lagrangian/reactingCloud1";
    object      origId;
}
// * * * * * * * * * * * * * * * * * * * * * * * * * * * * * * * * * * * * * //


1201
(
1193
1140
1183
1205
1214
1216
1207
1217
1199
1220
1225
1206
1223
1215
1144
1224
1228
1219
1229
1222
1198
1210
1232
1231
1218
1235
1238
1230
1233
1237
1227
1236
1211
1247
1249
1240
1251
1242
1241
1250
1252
1244
1221
1248
1245
1109
1243
1259
1239
1254
1148
1260
1265
1253
1262
1268
1256
1263
1234
1257
1267
1266
1270
1264
1275
1272
1273
1203
1397
1419
1420
1421
1422
1423
1424
1425
1426
1427
1428
1429
1430
1431
1432
1433
1434
1435
1436
1437
1438
1439
1440
1441
1442
1443
1444
1445
1446
1447
1448
1449
1450
1451
1452
1453
1454
1455
1456
1457
1458
1459
1460
1461
1462
1463
1464
1465
1466
1467
1468
1469
1470
1471
1472
1473
1474
1475
1476
1477
1478
1479
1480
1481
1482
1483
1484
1485
1486
1322
1360
1367
1370
1371
1369
1368
1372
1376
1377
1373
1379
1378
1381
1383
1382
1384
1353
1386
1385
1387
1388
1389
1392
1391
1393
1390
1395
1394
1396
1374
1375
1398
1400
1399
1401
1403
1402
1341
1406
1407
1404
1405
1380
1408
1409
1410
1412
1411
1415
1414
1416
1413
1418
1417
1317
1313
1319
1316
1318
1321
1320
1323
1327
1329
1326
1332
1328
1331
1333
1226
1325
1324
1334
1338
1335
1330
1344
1342
1337
1347
1304
1336
1350
1340
1348
1349
1123
1352
1351
1357
1346
1354
1339
1358
1356
1343
1359
1355
1309
1345
1364
1362
1363
1365
1366
1361
1160
1095
1255
1277
1271
1276
1246
1282
1279
1258
1285
1281
1278
1196
1269
1261
1286
1006
1280
1284
1291
1287
1290
1288
1283
1204
1297
1295
1296
1289
1293
1274
1299
1301
1302
1300
1294
1303
1308
1292
1305
1306
1310
1298
1312
1314
1307
1311
1145
1315
762
860
751
893
913
783
885
922
907
676
892
902
937
919
630
917
942
954
956
933
900
928
828
949
974
934
962
931
973
958
971
981
982
968
966
972
979
980
983
978
940
880
989
975
985
990
960
994
992
905
953
993
1000
987
1002
1003
977
1008
1007
988
1010
996
976
1012
1013
957
1015
997
970
1014
1017
995
1018
1016
986
1019
1011
999
1023
1024
1025
1004
1027
1028
1020
1021
1031
1005
1026
1030
1022
1033
1032
1034
1037
1001
1035
1041
998
1039
1040
1042
1044
1049
1043
1036
1051
1038
1029
1052
1055
1045
1009
1047
1053
1059
991
806
1046
1064
939
1065
1069
1056
1050
1048
1057
1068
1067
1061
1062
1085
1060
1054
1066
1071
1073
1070
1075
1084
1074
1090
1089
1080
1087
1083
1091
1092
1093
1078
1063
1097
1099
1101
1082
1096
1088
1100
1111
1106
1112
1098
1115
1108
1072
1114
1116
1121
1102
1126
1094
1103
1122
1105
1131
1113
1107
1133
1058
1118
1135
1081
1086
1136
1117
1130
1134
1119
1139
1127
1125
1120
1143
1137
1146
1128
1149
1138
1142
1150
1104
1154
1152
1141
1159
1156
1110
1147
1153
1155
1124
1158
1165
1166
1157
1079
1170
1168
1169
1161
947
1172
1167
1151
1171
1132
1181
1177
1175
1162
1076
1178
1186
1163
1187
1190
1192
1164
1179
1182
1191
1185
1173
1180
1184
1194
1189
1201
1129
1174
1195
1202
1077
1208
1200
1209
1212
1197
1176
1213
1188
568
447
515
667
699
563
707
717
565
246
472
478
619
571
572
586
507
664
662
675
580
640
582
668
654
682
679
616
684
674
585
634
686
661
548
691
689
643
695
562
641
628
701
704
685
697
618
639
711
709
702
708
718
646
705
710
626
696
721
688
692
694
581
713
678
547
727
720
693
734
715
588
739
735
726
666
731
736
714
690
741
742
743
749
747
752
728
745
733
698
750
653
757
700
746
756
687
730
758
760
754
649
611
723
738
765
769
766
761
642
774
773
725
759
764
755
665
724
772
719
775
771
780
776
779
770
784
782
789
768
788
794
796
790
795
777
797
786
804
748
792
802
793
808
791
811
787
799
805
781
810
816
817
801
818
712
823
716
825
778
824
821
819
681
803
837
729
703
840
706
842
833
847
763
846
845
850
830
848
722
839
767
814
851
753
841
829
809
858
800
861
863
862
740
859
870
856
831
852
865
866
843
853
737
864
785
869
854
744
827
807
882
871
677
855
884
838
875
732
883
868
812
874
890
894
888
881
897
887
878
891
826
872
901
898
813
895
844
908
591
798
849
876
879
889
911
910
906
916
896
834
909
899
914
836
903
820
921
912
929
927
932
920
925
930
822
873
935
926
915
923
945
946
924
815
867
941
835
943
952
857
936
944
951
918
832
948
959
961
938
877
950
904
963
964
886
984
967
965
969
955
146
285
265
275
193
294
255
314
260
239
337
254
199
251
308
335
340
323
333
351
330
322
63
277
319
327
339
356
354
342
274
371
383
242
298
338
368
384
369
362
332
355
311
382
394
276
386
299
395
376
374
358
370
390
406
359
379
375
391
380
360
392
372
346
230
404
291
419
413
343
331
409
434
398
387
428
417
349
411
361
365
443
400
430
410
435
399
377
401
442
326
446
350
378
425
357
393
431
367
450
461
348
437
462
385
465
456
451
424
408
444
420
353
436
469
341
412
389
366
448
61
458
470
415
422
475
457
481
183
468
439
482
402
453
452
487
403
432
423
471
449
429
464
463
479
484
486
473
490
492
445
474
506
508
500
495
510
476
477
489
440
407
441
485
521
455
518
526
514
467
516
498
466
438
502
530
501
494
480
488
535
421
261
509
499
493
520
427
525
433
491
536
524
527
517
511
541
405
550
529
320
554
519
537
528
553
564
561
540
418
551
566
555
532
558
556
549
570
545
460
513
575
578
512
577
522
557
552
345
426
579
533
459
583
546
503
590
593
544
573
598
543
504
587
610
595
596
569
560
612
606
615
592
603
607
621
599
608
594
627
363
597
602
620
622
531
576
633
559
617
567
629
613
496
631
635
638
614
624
584
589
538
637
542
636
651
600
625
609
574
623
644
645
497
604
647
605
656
652
663
658
650
523
660
672
648
655
300
483
669
659
683
670
673
601
416
680
396
632
657
671
321
173
228
272
232
187
373
414
364
347
505
179
252
381
388
292
397
534
48
288
313
454
539
234
)


// ************************************************************************* //
