/*--------------------------------*- C++ -*----------------------------------*\
  =========                 |
  \\      /  F ield         | OpenFOAM: The Open Source CFD Toolbox
   \\    /   O peration     | Website:  https://openfoam.org
    \\  /    A nd           | Version:  7
     \\/     M anipulation  |
\*---------------------------------------------------------------------------*/
FoamFile
{
    version     2.0;
    format      ascii;
    class       Cloud<passiveParticle>;
    location    "0.135/lagrangian/reactingCloud1";
    object      positions;
}
// * * * * * * * * * * * * * * * * * * * * * * * * * * * * * * * * * * * * * //

1201
(
(0.472259 0.0608635 0.204054 0.262824) 46114 91547 2
(0.306806 0.254045 0.342922 0.096226) 46203 91813 2
(0.616417 0.191883 0.10969 0.0820106) 46110 91540 1
(0.449956 0.0288672 0.275357 0.24582) 46153 91628 2
(0.0905811 0.336062 0.119382 0.453975) 46152 91624 2
(0.05075 0.490126 0.282783 0.176341) 46195 91709 1
(0.230723 0.385223 0.375486 0.00856885) 46196 91799 1
(0.0556302 0.117055 0.354274 0.473041) 46194 91708 2
(0.691057 0.158063 0.063793 0.0870874) 46241 91889 1
(0.283476 0.358627 0.188325 0.169572) 46193 91708 1
(0.271271 0.141025 0.346331 0.241374) 46187 91781 2
(0.0491488 0.474687 0.419933 0.0562311) 46240 91802 1
(0.253761 0.357319 0.372103 0.0168176) 46236 91794 2
(0.313619 0.348093 0.179305 0.158983) 46376 92071 1
(0.484827 0.0947845 0.162914 0.257475) 46330 91980 2
(0.182908 0.408633 0.322148 0.0863107) 46282 91886 1
(0.388469 0.314712 0.202506 0.0943126) 46279 91965 1
(0.186773 0.407226 0.252359 0.153643) 46328 91976 1
(0.474016 0.172534 0.101391 0.252059) 46369 92057 2
(0.0767606 0.477808 0.330717 0.114714) 46372 92063 1
(0.297638 0.351663 0.039675 0.311024) 46417 92156 1
(0.0201524 0.495486 0.354321 0.13004) 46417 92241 1
(0.592589 0.209601 0.113475 0.0843348) 46413 92233 1
(0.0317207 0.201703 0.295514 0.471062) 46457 92233 2
(0.655512 0.133449 0.17224 0.0387993) 46460 92242 2
(0.265853 0.31145 0.344682 0.0780152) 46412 92231 2
(0.106935 0.489819 0.252919 0.150327) 46451 92221 1
(0.179054 0.118689 0.292066 0.41019) 46458 92236 2
(0.400191 0.278233 0.299468 0.0221077) 46458 92238 2
(0.347316 0.348106 0.295049 0.00952868) 46501 92321 1
(0.374469 0.308538 0.300853 0.0161395) 46549 92505 2
(0.192458 0.403794 0.000616576 0.403131) 46592 92503 1
(0.536356 0.232156 0.148929 0.0825585) 46638 92598 1
(0.0662268 0.466942 0.0305447 0.436287) 46631 92582 1
(0.380235 0.189516 0.120717 0.309531) 46672 92664 2
(0.444033 0.278322 0.223749 0.0538952) 46679 92680 1
(0.616877 0.0579901 0.191455 0.133678) 46716 92754 2
(0.262318 0.369153 0.160977 0.207552) 46723 92768 1
(0.238943 0.271146 0.12507 0.36484) 46766 92851 2
(0.315053 0.0746805 0.342356 0.26791) 46764 92850 2
(0.416235 0.292041 0.195342 0.096382) 46763 92848 1
(0.666215 0.0598968 0.10709 0.166799) 46856 93032 2
(0.477285 0.261737 0.233392 0.0275869) 46856 93032 1
(0.417022 0.29133 0.0642888 0.227359) 46856 93032 1
(0.00904736 0.495892 0.137601 0.357459) 46900 93122 1
(0.534356 0.233346 0.118809 0.113489) 46897 93116 1
(0.678128 0.163077 0.099799 0.0589954) 46946 93299 1
(0.414273 0.293038 0.166347 0.126342) 46985 93292 1
(0.21882 0.255092 0.144007 0.382082) 47078 93475 2
(0.357698 0.334403 0.041712 0.266188) 47032 93471 1
(0.186622 0.406835 0.243588 0.162955) 47078 93476 1
(0.413881 0.297671 0.202919 0.0855295) 47076 93559 1
(0.776719 0.114204 0.0300861 0.0789906) 47116 93551 1
(0.0120466 0.498988 0.136265 0.352701) 47166 93651 1
(0.310094 0.366192 0.3235 0.000213336) 47118 93643 2
(0.190884 0.0643296 0.347388 0.397398) 47156 93631 2
(0.465135 0.267779 0.060779 0.206307) 47165 93652 1
(0.150338 0.4252 0.0694063 0.355057) 47163 93648 1
(0.166092 0.289686 0.416509 0.127714) 47166 93654 2
(0.316797 0.0105639 0.331438 0.341201) 47208 93735 2
(0.120028 0.276071 0.179997 0.423905) 47250 93819 2
(0.388091 0.00135588 0.304757 0.305796) 47296 93912 2
(0.136207 0.449255 0.152603 0.261935) 47294 93995 1
(0.732302 0.134599 0.108553 0.0245458) 47342 94091 1
(0.146781 0.427185 0.401805 0.0242286) 47332 93984 1
(0.434284 0.282934 0.1618 0.120981) 47382 94086 1
(0.0591542 0.4972 0.403343 0.0403032) 47426 94171 1
(0.349537 0.325343 0.239796 0.0853249) 47432 94186 1
(0.000128356 0.176153 0.325031 0.498687) 3320 96658 1
(0.471649 0.0918426 0.264641 0.171867) 3442 6690 2
(0.311189 0.0257143 0.345263 0.317834) 3424 6691 2
(0.609635 0.194804 0.169971 0.0255902) 3301 6413 1
(0.384357 0.200917 0.308878 0.105849) 3407 6622 2
(0.70135 0.0934087 0.152244 0.0529971) 3383 6611 2
(0.076085 0.461755 0.455695 0.00646501) 3364 6574 1
(0.196807 0.0481843 0.351691 0.403317) 3365 6537 2
(0.0740809 0.450503 0.0102541 0.465162) 3344 6497 2
(0.0578649 0.47061 0.455414 0.0161114) 3280 6374 1
(0.535393 0.231497 0.212131 0.0209792) 3307 6463 1
(0.130816 0.433954 0.417384 0.0178456) 3286 6422 1
(0.665132 0.00675763 0.167434 0.160677) 3140 6138 2
(0.270036 0.0107928 0.354141 0.36503) 3261 6335 2
(0.517651 0.24006 0.193677 0.0486121) 3221 6295 1
(0.111661 0.384153 0.049346 0.45484) 3241 6295 2
(0.20778 0.0275392 0.367587 0.397094) 3225 6264 2
(0.878651 0.0356541 0.0614893 0.0242055) 2900 5670 2
(0.155168 0.0495625 0.422599 0.37267) 3191 6201 2
(0.575437 0.210519 0.147077 0.0669671) 3161 6178 1
(0.232612 0.293011 0.392851 0.0815266) 3143 6143 2
(0.447676 0.275893 0.0861733 0.190257) 3131 6082 1
(0.178538 0.410445 0.0917786 0.319239) 3121 6062 1
(0.0346661 0.074415 0.4829 0.408019) 3125 6072 2
(0.0513477 0.462258 0.463218 0.0231763) 3101 6022 1
(0.0793723 0.453685 0.132585 0.334358) 3090 6001 1
(0.676659 0.0921598 0.161901 0.0692797) 3066 5957 2
(0.483273 0.121821 0.26217 0.132736) 3043 5948 2
(0.354361 0.314341 0.00910716 0.322191) 3021 5905 1
(0.252659 0.347643 0.0353102 0.364388) 3013 5890 1
(0.0333534 0.00754605 0.483337 0.475763) 3015 5858 2
(0.00218989 0.49898 0.0805513 0.418279) 2660 96691 2
(0.487587 0.165327 0.0906574 0.256429) 2962 5752 2
(0.144408 0.427431 0.0935539 0.334608) 2942 5715 1
(0.697932 0.150969 0.0732751 0.077824) 2921 5674 1
(0.206666 0.253671 0.403373 0.136291) 2860 5592 2
(0.136623 0.414431 0.0347743 0.414171) 2888 5646 1
(0.146493 0.408025 0.337113 0.108369) 2891 5613 1
(0.26455 0.292902 0.367747 0.0748013) 2870 5575 2
(0.185047 0.290663 0.407478 0.116812) 2842 5520 2
(0.283541 0.358229 0.259516 0.0987129) 2830 5495 1
(0.466127 0.167624 0.0991731 0.267075) 2680 96690 1
(0.166528 0.409273 0.200307 0.223892) 2785 5445 1
(0.439709 0.279651 0.0217315 0.258908) 2640 5124 1
(0.215384 0.190268 0.20204 0.392308) 2761 5360 2
(0.330421 0.334789 0.228284 0.106506) 2754 5349 1
(0.6148 0.0187585 0.173348 0.193094) 2700 5241 2
(0.175145 0.40987 0.0664992 0.348486) 2727 5293 1
(0.408908 0.294621 0.0184976 0.277973) 2710 5260 1
(0.678188 0.160906 0.0472077 0.113699) 2692 5228 1
(0.438667 0.170778 0.297744 0.0928108) 2674 5229 2
(0.0188114 0.0424457 0.448149 0.490594) 2673 5189 2
(0.330564 0.333837 0.0281969 0.307402) 2644 5131 1
(0.272062 0.363969 0.35399 0.00997961) 2631 5107 1
(0.0324951 0.483752 0.412037 0.0717158) 2612 5070 1
(0.277759 0.36112 0.0650338 0.296087) 2584 5015 1
(0.117403 0.254747 0.172399 0.455451) 2590 5026 2
(0.839919 0.0139643 0.0800406 0.0660762) 2573 4996 2
(0.633563 0.183219 0.0293963 0.153822) 2543 4935 1
(0.41062 0.2875 0.0430476 0.258832) 2522 4932 1
(0.121337 0.208883 0.230448 0.439331) 2536 4922 2
(0.596744 0.0162752 0.185353 0.201628) 2507 4865 2
(0.143822 0.428089 0.104516 0.323573) 2481 4816 1
(0.183003 0.217444 0.419371 0.180183) 2469 4829 2
(0.426894 0.164412 0.11666 0.292033) 2464 4780 2
(0.902823 0.0285308 0.0200579 0.0485886) 2452 4758 2
(0.273375 0.354588 0.215001 0.157036) 2431 4755 1
(0.158011 0.00669834 0.414017 0.421273) 2427 4708 2
(0.756631 0.124012 0.0448832 0.0744741) 2403 97389 1
(0.476655 0.109293 0.264784 0.149267) 4080 7971 2
(0.322542 0.0583989 0.278779 0.34028) 4041 7855 2
(0.0129252 0.408876 0.0856718 0.492527) 4065 7903 2
(0.265294 0.0711864 0.291082 0.372438) 4112 7994 2
(0.81221 0.0788438 0.00716669 0.101779) 4114 7998 2
(0.041083 0.480144 0.129593 0.349181) 3982 7743 1
(0.148055 0.21995 0.198983 0.433011) 3984 7744 2
(0.343185 0.328405 8.60176e-05 0.328324) 4004 7783 1
(0.323338 0.262839 0.337694 0.076129) 4008 7794 2
(0.838056 0.0809978 0.0703779 0.0105688) 3988 7755 1
(0.784896 0.106538 0.0365493 0.0720172) 3801 7387 1
(0.473374 0.140681 0.117943 0.268003) 3924 7627 2
(0.512813 0.23667 0.248791 0.00172543) 3862 7506 1
(0.823912 0.0032569 0.0880361 0.0847948) 3974 7728 2
(0.00517521 0.247008 0.250989 0.496828) 3931 7642 2
(0.0507303 0.0903786 0.478401 0.38049) 3907 7633 2
(0.732758 0.133631 0.129105 0.00450471) 3887 7558 1
(0.00717215 0.388895 0.507255 0.0966773) 3741 7309 2
(0.699214 0.147207 0.00352926 0.15005) 3868 7519 2
(0.319604 0.0981172 0.339969 0.242309) 3865 7515 2
(0.631225 0.184345 0.183658 0.00077227) 3871 7563 1
(0.445239 0.154935 0.28334 0.116486) 3826 7475 2
(0.797007 0.0919254 0.10478 0.00628823) 3805 7434 2
(0.338147 0.317642 0.0253848 0.318826) 3788 7401 1
(0.11812 0.183009 0.440547 0.258324) 3807 7402 2
(0.0603255 0.148331 0.321776 0.469567) 3789 7365 2
(0.0446612 0.47289 0.174542 0.307907) 3722 7233 1
(0.289484 0.353637 0.0324176 0.324461) 3770 7327 1
(0.153584 0.416574 0.225547 0.204295) 3723 7235 1
(0.597345 0.196869 0.125538 0.0802474) 3751 7329 1
(0.621186 0.189407 0.0249888 0.164418) 3661 7115 1
(0.669139 0.161951 0.0365713 0.132339) 3662 7155 1
(0.283719 0.0826005 0.360894 0.272787) 3684 7198 2
(0.35071 0.306417 0.218734 0.124139) 3714 7218 1
(0.184275 0.238499 0.407897 0.169329) 3684 7162 2
(0.0820947 0.445965 0.0563235 0.415617) 3644 7120 1
(0.192655 0.199534 0.403777 0.204034) 3676 7147 2
(0.0842007 0.44149 0.459468 0.014841) 3666 7124 1
(0.327012 0.299285 0.344637 0.029067) 3520 6879 2
(0.0133765 0.35108 0.512816 0.122727) 3610 7054 2
(0.703657 0.133196 0.00387601 0.159271) 3613 7021 2
(0.375409 0.101 0.315101 0.20849) 3561 6958 2
(0.0753194 0.117191 0.462757 0.344732) 3561 6922 2
(0.486169 0.25388 0.118231 0.141719) 3541 6880 1
(0.41736 0.15072 0.140286 0.291634) 3587 6971 2
(0.177644 0.410536 0.259458 0.152362) 3567 6932 1
(0.691906 0.00857728 0.154404 0.145112) 3567 6970 2
(0.298346 0.350188 0.133214 0.218252) 3554 6909 1
(0.599448 0.200066 0.121665 0.0788212) 3501 6805 1
(0.0172825 0.398724 0.0911251 0.492868) 3512 6825 2
(0.151963 0.42333 0.241494 0.183213) 3503 6809 1
(0.592701 0.201249 0.158044 0.0480065) 3490 6820 1
(0.14276 0.0339729 0.394601 0.428666) 3502 6805 2
(0.100024 0.425387 0.295207 0.179381) 3474 6750 1
(0.20283 0.0348265 0.399746 0.362598) 3464 6769 2
(0.0644196 0.350698 0.118403 0.466479) 5175 10083 2
(0.619312 0.190268 0.0492486 0.141171) 5025 9783 1
(0.0219705 0.489339 0.255797 0.232893) 5072 9877 1
(0.146105 0.412876 0.418796 0.0222236) 4985 9702 1
(0.200152 0.393059 0.217489 0.189299) 4904 9540 1
(0.359097 0.236755 0.0833859 0.320762) 4927 9587 2
(0.172364 0.17618 0.412588 0.238868) 4823 9383 2
(0.802574 0.0573084 0.10076 0.0393579) 4825 9423 2
(0.203406 0.0325501 0.398077 0.365967) 4807 9352 2
(0.730453 0.131336 0.0756242 0.0625868) 4789 9314 1
(0.454584 0.271553 0.0346582 0.239205) 4745 9228 1
(0.313597 0.210105 0.358209 0.118089) 4752 9281 2
(0.0915581 0.338825 0.117441 0.452176) 4685 9112 2
(0.159608 0.227852 0.18285 0.42969) 4707 9154 2
(0.743742 0.127336 0.0174506 0.111472) 4689 9119 1
(0.518501 0.212076 0.0230908 0.246332) 4480 8712 2
(0.0645766 0.469627 0.176939 0.288858) 4601 8950 1
(0.134101 0.429355 0.128537 0.308007) 4602 8949 1
(0.142975 0.0631455 0.428138 0.365741) 4668 9081 2
(0.237943 0.341681 0.157389 0.262987) 4678 9098 1
(0.129376 0.0350931 0.398757 0.436774) 4627 8998 2
(0.417486 0.289703 0.232361 0.0604501) 4542 8871 1
(0.0721221 0.384478 0.0666325 0.476768) 4537 8862 1
(0.625219 0.0517989 0.135861 0.18712) 4509 8769 2
(0.816042 0.0901918 0.0607582 0.0330075) 4443 8639 1
(0.490752 0.255874 0.00885106 0.244523) 4472 8699 1
(0.402334 0.299551 0.0160196 0.282095) 4425 8605 1
(0.531528 0.221893 0.00542844 0.241151) 4383 8522 2
(0.806478 0.0966809 0.00143896 0.0954019) 4411 8577 1
(0.182843 0.069626 0.410732 0.336799) 4362 8520 2
(0.164446 0.179038 0.424171 0.232345) 4345 8487 2
(0.552045 0.222759 0.191091 0.034104) 4346 8489 1
(0.0411972 0.478567 0.287554 0.192683) 4160 96616 2
(0.225015 0.216303 0.386483 0.172199) 4348 8457 2
(0.00129468 0.48778 0.300878 0.210047) 4347 8452 1
(0.328898 0.104832 0.231202 0.335068) 4337 8434 2
(0.336126 0.110298 0.331458 0.222119) 4262 8289 2
(0.349227 0.306556 0.0201921 0.324025) 4266 8295 2
(0.282684 0.353776 0.189271 0.17427) 4201 8167 1
(0.705292 0.0290947 0.116643 0.14897) 4270 8302 2
(0.672177 0.160542 0.163207 0.00407374) 4246 8258 2
(0.423901 0.289078 0.0485061 0.238515) 4222 8211 1
(0.8268 0.0869553 0.0802089 0.00603605) 4250 8264 1
(0.37142 0.160221 0.319297 0.149062) 4183 8171 2
(0.505748 0.0307202 0.216354 0.247178) 4140 96617 1
(0.898957 0.0505886 0.0359122 0.0145424) 4161 8092 1
(0.117592 0.426538 0.263996 0.191875) 4191 8148 1
(0.274826 0.362811 0.285491 0.0768721) 4167 8104 1
(0.00959548 0.18112 0.314607 0.494677) 4168 8104 2
(0.203983 0.193662 0.196898 0.405457) 4126 8021 2
(0.131548 0.0363293 0.396383 0.43574) 4127 8023 2
(0.0163443 0.194718 0.291025 0.497913) 4123 8015 2
(0.0476467 0.155357 0.476239 0.320757) 47611 94544 2
(0.243016 0.181346 0.202604 0.373034) 47607 94533 2
(0.010665 0.277394 0.217444 0.494498) 47607 94534 2
(0.119838 0.440571 0.101942 0.337649) 47558 94438 1
(0.330633 0.281892 0.0639825 0.323492) 47605 94529 2
(0.277722 0.291095 0.0706807 0.360502) 47560 94440 2
(0.138293 0.43082 0.412669 0.0182183) 47784 94890 1
(0.585437 0.207361 0.0726641 0.134538) 47645 94610 1
(0.365967 0.311718 0.3008 0.0215148) 47647 94701 2
(0.747064 0.103314 0.0235696 0.126052) 47876 95072 2
(0.136191 0.231234 0.431625 0.20095) 47685 94692 2
(0.693311 0.0312835 0.150839 0.124566) 47690 94787 2
(0.492601 0.256262 0.189229 0.0619087) 47737 94881 1
(0.673022 0.165648 0.0949574 0.0663726) 47961 95241 1
(0.391486 0.184562 0.304042 0.119909) 47826 94974 2
(0.0848019 0.465817 0.293596 0.155786) 47780 94967 1
(0.261315 0.369593 0.0481498 0.320942) 47866 95054 1
(0.317313 0.297626 0.34152 0.0435408) 48048 95418 2
(0.326141 0.346899 0.0966555 0.230305) 47869 95145 1
(0.241559 0.379582 0.377926 0.000932789) 47868 95056 1
(0.0295597 0.161398 0.48506 0.323982) 47951 95224 2
(0.3025 0.355476 0.207978 0.134046) 48000 95407 1
(0.155695 0.329525 0.112029 0.40275) 48042 95403 2
(0.222336 0.398676 0.189642 0.189346) 48044 95495 1
(0.455786 0.272196 0.0762954 0.195722) 48179 95678 1
(0.582731 0.010321 0.208029 0.198919) 48267 95941 2
(0.308213 0.345909 0.018451 0.327427) 48217 95754 1
(0.0502922 0.475102 0.257398 0.217207) 48262 95846 1
(0.661853 0.17451 0.0807628 0.0828739) 48262 95843 1
(0.84485 0.0783381 0.00244115 0.0743706) 48309 95937 2
(0.214539 0.403684 0.249466 0.132312) 48353 96025 1
(0.466674 0.266502 0.168531 0.0982932) 48399 96120 1
(0.251555 0.374338 0.220403 0.153703) 48349 96020 1
(0.00712864 0.496548 0.351861 0.144463) 48392 96106 1
(0.235869 0.108214 0.373192 0.282725) 48391 96189 2
(0.37037 0.142505 0.322013 0.165112) 5387 10546 2
(0.439509 0.152277 0.285922 0.122292) 5385 10542 2
(0.119853 0.439914 0.19172 0.248513) 5389 10511 1
(0.485029 0.247595 0.256487 0.0108888) 5393 10521 2
(0.155982 0.233187 0.188105 0.422726) 5366 10465 2
(0.0188411 0.374446 0.0917194 0.514994) 5369 10470 2
(0.374709 0.297077 0.0554996 0.272714) 5329 10430 1
(0.179232 0.41091 0.198856 0.211001) 5333 10399 1
(0.288628 0.348189 0.148389 0.214793) 5265 10302 1
(0.858533 0.0702167 0.0636159 0.00763416) 5251 10274 1
(0.438315 0.281524 0.144089 0.136072) 5256 10245 1
(0.405433 0.0204318 0.276892 0.297244) 5226 10185 2
(0.505338 0.24717 0.143537 0.103955) 5188 10109 1
(0.354028 0.270664 0.0460703 0.329238) 5182 10096 2
(0.0774023 0.0402363 0.461275 0.421086) 5170 10075 2
(0.428833 0.286101 0.0214504 0.263615) 43428 86175 1
(0.325778 0.34034 0.136149 0.197734) 43340 85999 1
(0.00481867 0.498815 0.087207 0.409159) 43566 86454 1
(0.141612 0.0879718 0.341965 0.428451) 43519 86357 2
(0.250716 0.381922 0.217443 0.149918) 43379 86165 1
(0.178094 0.42242 0.00316108 0.396325) 43425 86169 2
(0.122499 0.120139 0.32485 0.432512) 43466 86251 2
(0.491797 0.219765 0.0350998 0.253338) 43378 86076 2
(0.0252014 0.190053 0.301509 0.483237) 43791 86901 2
(0.0726266 0.340716 0.448041 0.138617) 43511 86429 2
(0.934156 0.0242025 0.00875889 0.0328827) 43794 86908 2
(0.362896 0.323058 0.174357 0.139689) 43558 86523 1
(0.180591 0.324172 0.394703 0.100534) 43467 86341 2
(0.420436 0.0491561 0.240712 0.289696) 43736 86792 2
(0.00565912 0.497697 0.0325438 0.4641) 43782 86883 1
(0.0360237 0.483042 0.332591 0.148344) 43555 86430 1
(0.173543 0.128597 0.284989 0.412872) 43734 86788 2
(0.133664 0.0171031 0.416483 0.43275) 43641 86602 2
(0.46707 0.258713 0.266835 0.0073822) 43591 86504 2
(0.560151 0.0811723 0.138712 0.219966) 43644 86608 2
(0.405162 0.218669 0.290775 0.0853943) 43822 87051 2
(0.179702 0.41107 0.145811 0.263417) 43642 86606 1
(0.0728501 0.036068 0.429613 0.461469) 43684 86687 2
(0.682975 0.000225034 0.234032 0.0827689) 43588 189554 2
(0.377188 0.203209 0.208738 0.210865) 43588 86496 1
(0.753631 0.123393 0.0701015 0.052874) 43686 86692 1
(0.384476 0.309421 0.0262653 0.279838) 43686 86691 1
(0.210965 0.401717 0.245264 0.142054) 43687 86781 1
(0.26115 0.0939521 0.283645 0.361254) 43638 86595 2
(0.493071 0.258993 0.166033 0.0819029) 43685 86777 1
(0.803035 0.0921215 0.0112228 0.0936208) 43686 86691 2
(0.110656 0.346042 0.418687 0.124615) 43639 86685 2
(0.756281 0.122629 0.0555046 0.0655848) 43635 86590 1
(0.0784618 0.185321 0.290539 0.445679) 43682 86683 2
(0.485929 0.257298 0.0122701 0.244503) 43633 86586 1
(0.623109 0.170661 0.187884 0.0183459) 43729 86780 2
(0.100383 0.21872 0.433918 0.246978) 43683 86773 2
(0.163783 0.198272 0.220123 0.417822) 43681 86682 2
(0.519152 0.0248511 0.238726 0.21727) 43682 86771 2
(0.158741 0.00819231 0.414619 0.418448) 43720 86760 1
(0.145366 0.0228211 0.404477 0.427336) 43728 86776 2
(0.373074 0.313793 0.222506 0.0906279) 43728 86778 1
(0.491041 0.258694 0.209485 0.0407797) 43678 86763 2
(0.764452 0.0515882 0.114628 0.0693323) 43773 86953 2
(0.456497 0.270565 0.0633678 0.20957) 43721 86764 1
(0.0305687 0.486017 0.310573 0.172841) 43723 86766 1
(0.595485 0.190168 0.198544 0.0158036) 43869 87145 2
(0.606282 0.181758 0.0156431 0.196317) 43770 86860 2
(0.255631 0.371833 0.372299 0.000237441) 43772 86951 1
(0.466651 0.267164 0.233587 0.0325982) 44051 87509 1
(0.355189 0.192586 0.130353 0.321873) 43863 87046 2
(0.211062 0.174617 0.351022 0.263298) 43765 86937 2
(0.120543 0.469529 0.332308 0.0776204) 43815 86949 1
(0.600092 0.0318563 0.16652 0.201532) 43810 86940 2
(0.515767 0.201684 0.222513 0.060036) 43813 87033 2
(0.318738 0.269186 0.0944869 0.317589) 43858 87035 2
(0.0694795 0.485258 0.149769 0.295493) 43861 87129 1
(0.282031 0.211035 0.201959 0.304975) 43853 87025 2
(0.260528 0.278429 0.36867 0.0923729) 43857 87036 2
(0.319027 0.340876 0.0236401 0.316458) 44136 87591 1
(0.249411 0.0673486 0.369483 0.313757) 43858 87123 2
(0.116283 0.343811 0.118417 0.421489) 43949 87217 2
(0.250976 0.376622 0.350949 0.0214525) 43854 87028 1
(0.184594 0.504147 0.186893 0.124367) 43897 87113 1
(0.0113328 0.430261 0.492745 0.065661) 43896 87114 2
(0.738138 0.0856039 0.130627 0.0456304) 44134 87590 2
(0.0776534 0.349623 0.11382 0.458903) 43898 87116 2
(3.51239e-09 0.392954 0.607046 3.54221e-09) 43896 141302 1
(0.11275 0.444185 0.399913 0.0431526) 44135 87677 1
(0.417707 0.053777 0.285839 0.242677) 43901 87209 2
(0.513312 0.126197 0.221011 0.139479) 43898 87203 2
(0.300383 0.191981 0.34873 0.158906) 43944 87210 2
(0.00223043 0.0289453 0.482255 0.486569) 43940 87200 1
(0.46892 0.459783 0.0329392 0.0383578) 43940 87200 1
(0.342211 0.329605 0.180363 0.147821) 44086 87492 1
(0.0126972 0.493921 0.370174 0.123208) 43945 87212 1
(0.629903 0.189289 0.0829196 0.0978887) 44039 87397 1
(0.219808 0.190163 0.200564 0.389466) 44038 87396 2
(0.180912 0.410901 0.0751545 0.333032) 43988 87298 1
(0.855408 0.024031 0.0719265 0.0486348) 43988 87298 2
(0.666651 0.0320787 0.163538 0.137732) 43989 87385 2
(0.243536 0.382141 0.29806 0.076263) 44039 87485 1
(0.187617 0.407415 0.183772 0.221197) 43987 87296 1
(2.96248e-09 1.7442e-09 0.678633 0.321367) 43984 189950 2
(0.316223 0.255873 0.335017 0.0928866) 44087 87581 2
(0.573691 0.195894 0.20269 0.0277255) 44082 87571 2
(0.189355 0.440536 0.0750059 0.295104) 44033 87473 1
(0.466147 0.20461 0.266399 0.0628428) 44176 87674 2
(0.852414 0.04898 0.0255089 0.073097) 44081 87482 2
(0.557875 0.00715833 0.214751 0.220216) 44079 87477 2
(0.679366 0.166638 0.0680611 0.0859353) 44079 87565 1
(0.202774 0.399715 0.111234 0.286278) 44078 87478 1
(0.10215 0.476591 0.108029 0.31323) 44079 87565 1
(0.155784 0.265161 0.179381 0.399674) 44122 87563 2
(0.0503973 0.435199 0.041151 0.473253) 44124 87568 2
(0.577774 0.168056 0.0435476 0.210622) 44174 87668 2
(0.414258 0.197467 0.292048 0.0962262) 44122 87566 2
(0.322536 0.214309 0.337743 0.125412) 44119 87560 2
(0.00946964 0.281865 0.494517 0.214149) 44170 87662 2
(0.240166 0.313947 0.358908 0.0869789) 44124 87655 2
(0.140461 0.17012 0.410792 0.278627) 44120 87647 2
(0.44326 0.225317 0.238821 0.0926013) 44118 87643 2
(0.177927 0.41062 0.00110069 0.410352) 44121 87562 1
(0.348923 0.248696 0.297364 0.105017) 44164 87735 2
(0.0526089 0.050779 0.469778 0.426834) 44167 87741 2
(0.109669 0.471285 0.201475 0.217571) 44165 87737 1
(0.149777 0.0352303 0.394347 0.420645) 44208 87735 2
(0.66083 0.0953026 0.162025 0.0818417) 44212 87831 2
(0.145025 0.355858 0.403646 0.0954707) 44212 87831 2
(0.442761 0.299081 0.0891426 0.169015) 44209 87825 1
(0.142274 0.156345 0.401772 0.299609) 44206 87819 2
(0.606805 0.0789437 0.196396 0.117855) 44257 87836 2
(0.29696 0.0261798 0.325394 0.351466) 44351 88022 2
(0.375884 0.174537 0.303046 0.146533) 44258 87923 2
(0.52575 0.237616 0.0761444 0.160489) 44251 87822 1
(0.435276 0.295012 0.180593 0.0891185) 44252 87911 1
(0.57828 0.407816 0.00528197 0.00862171) 44248 87904 1
(0.256894 0.138913 0.369575 0.234617) 44443 88293 2
(0.341111 0.340317 0.180875 0.137697) 44300 88007 1
(0.542219 0.243063 0.0752953 0.139423) 44298 88003 1
(0.135678 0.43218 0.0371962 0.394946) 44489 88298 1
(0.633195 0.199765 0.00891969 0.15812) 44339 87997 2
(0.0225397 0.071571 0.42581 0.480079) 44384 88087 2
(0.158456 0.262619 0.420094 0.158831) 44389 88100 2
(0.480687 0.259911 0.0911469 0.168255) 44390 88100 1
(0.262799 0.377289 0.248661 0.11125) 44482 88283 1
(0.443116 0.283889 0.108133 0.164861) 44436 88191 1
(0.158956 0.421157 0.177871 0.242017) 44428 88178 1
(0.141842 0.45701 0.353468 0.047681) 44476 88271 1
(0.427946 0.288271 0.157077 0.126705) 44473 88266 1
(0.346386 0.327185 0.206975 0.119453) 44473 88268 1
(0.114276 0.443683 0.354594 0.0874469) 44472 88266 1
(0.795455 0.102119 0.0683691 0.0340569) 44666 88654 1
(0.0820094 0.040205 0.419773 0.458013) 44754 88827 2
(0.00145011 0.0343598 0.49978 0.46441) 44564 88450 2
(0.033077 0.506431 0.251702 0.20879) 44519 88357 1
(0.334689 0.333506 0.0224861 0.309318) 44519 88360 1
(0.319441 0.221285 0.339706 0.119568) 44656 88634 2
(0.154811 0.103813 0.319097 0.42228) 44566 88452 2
(0.565226 0.202868 0.216936 0.0149697) 44520 88362 2
(0.0213746 0.514954 0.419759 0.0439121) 44610 88539 1
(0.700618 0.104839 0.149485 0.0450592) 44564 88450 2
(0.317277 0.19055 0.161221 0.330952) 44610 88539 2
(0.124724 0.438403 0.0810778 0.355795) 44560 88440 1
(0.108249 0.446433 0.0757363 0.369582) 44606 88534 1
(0.251404 0.375031 0.0593711 0.314194) 44700 88722 1
(0.239278 0.0852562 0.303023 0.372443) 44606 88531 2
(0.379204 0.0728395 0.241353 0.306604) 44654 88627 2
(0.0841464 0.483694 0.421748 0.0104125) 44698 88715 1
(0.396625 0.301758 0.294334 0.00728307) 44698 88718 1
(0.0358486 0.312467 0.468413 0.183271) 44744 88895 2
(0.35456 0.321658 0.149341 0.174441) 44602 88524 1
(0.000704787 0.382732 0.118255 0.498308) 44697 88714 2
(0.355302 0.218841 0.310827 0.11503) 44742 88891 2
(0.389797 0.178887 0.123611 0.307704) 44690 88700 2
(0.473944 0.0888943 0.26296 0.174202) 44876 89074 2
(4.70846e-07 1.38866e-07 0.481407 0.518593) 44732 190698 2
(0.142611 0.229357 0.42905 0.198982) 44736 88794 2
(0.715162 0.147818 0.0921419 0.0448777) 44737 88881 1
(0.177311 0.434564 0.0509223 0.337203) 44785 88977 1
(0.295155 0.319678 0.327334 0.0578334) 44739 88885 2
(0.129154 0.436119 0.132984 0.301744) 45014 89350 1
(0.0518275 0.435413 0.0723236 0.440436) 44827 88973 2
(0.204273 0.401811 0.332205 0.061711) 44830 89067 1
(0.184349 0.167898 0.326928 0.320826) 44820 88960 1
(0.0303889 0.179226 0.463917 0.326468) 44824 89055 2
(0.665367 0.179137 0.128769 0.0267273) 44871 89061 1
(0.210218 0.142902 0.394482 0.252398) 44870 89062 2
(0.259403 0.379602 0.204527 0.156467) 45008 89335 1
(0.211684 0.181789 0.347956 0.25857) 44865 89137 2
(0.416357 0.29231 0.197482 0.0938502) 45061 89442 1
(0.247941 0.287416 0.104442 0.360201) 44962 89243 2
(1.08173e-09 9.62793e-09 0.470159 0.529841) 44908 190874 2
(0.241914 0.323967 0.0726497 0.36147) 44962 89243 2
(0.187396 0.406821 0.22111 0.184674) 44959 89240 1
(0.0265493 0.486825 0.339108 0.147518) 45095 89512 1
(0.436347 0.281858 0.152963 0.128832) 45097 89516 1
(0.202489 0.29062 0.133444 0.373447) 45002 89323 2
(0.114532 0.0436478 0.399077 0.442742) 45193 89706 2
(0.229712 0.392489 0.136185 0.241614) 45051 89421 1
(0.475726 0.262851 0.237537 0.0238861) 45003 89326 1
(0.0126181 0.369681 0.124578 0.493123) 45154 89628 2
(0.715114 0.113991 0.0286529 0.142242) 45112 89544 2
(0.420048 0.158914 0.142127 0.278911) 45048 89415 2
(0.718889 0.0786155 0.0657702 0.136725) 45095 89509 2
(0.494363 0.266341 0.236185 0.00311111) 45049 89505 2
(0.493787 0.0968266 0.1582 0.251187) 45144 89607 2
(0.169902 0.422688 0.101421 0.305988) 45093 89505 1
(0.214566 0.0525639 0.343108 0.389763) 45094 89507 2
(0.4542 0.00190339 0.273199 0.270698) 45043 89493 2
(0.243768 0.378442 0.153462 0.224328) 45190 89702 1
(0.789959 0.108792 0.0326543 0.0685947) 45095 89597 1
(0.263577 0.297867 0.096238 0.342318) 45090 89499 2
(0.331635 0.0985305 0.333327 0.236508) 45090 89502 2
(0.356075 0.147686 0.307497 0.188742) 45089 89585 2
(0.339594 0.326956 0.329799 0.00365008) 45183 89688 2
(0.860249 0.0481212 0.0694954 0.0221341) 45134 89590 2
(0.709471 0.146123 0.0252518 0.119155) 45183 89686 1
(0.151763 0.434388 0.163605 0.250244) 45226 89771 1
(0.112471 0.0882569 0.437728 0.361544) 45181 89769 2
(0.284043 0.321881 0.0366991 0.357377) 45369 90058 2
(0.393864 0.208691 0.284654 0.11279) 45178 89763 2
(0.00454077 0.506424 0.462452 0.0265836) 45180 89767 2
(0.14835 0.426767 0.0523305 0.372552) 45226 89774 1
(0.506396 0.0531998 0.198241 0.242163) 45266 89851 2
(0.871339 0.0540275 0.0149407 0.059693) 45265 89849 2
(0.205865 0.397079 0.291872 0.105185) 45316 89954 1
(0.129236 0.26918 0.426622 0.174962) 45318 90043 2
(0.150759 0.327311 0.406474 0.115457) 45270 89947 2
(0.696993 0.151512 0.00432257 0.147172) 45315 89950 1
(0.628185 0.140313 0.0458257 0.185676) 45360 90040 2
(0.527835 0.248124 0.0873506 0.13669) 45308 89935 1
(0.000948116 0.500073 0.194039 0.30494) 45310 89940 1
(0.0498488 0.501315 0.233948 0.214888) 45309 90025 1
(0.373427 0.325287 0.133654 0.167632) 45355 90029 1
(0.540199 0.173076 0.0572349 0.22949) 45451 90222 2
(0.199687 0.0165427 0.397329 0.386441) 45350 90107 2
(0.725481 0.0491188 0.0922491 0.133151) 45399 90117 2
(0.458305 0.0836465 0.265097 0.192952) 45400 90207 2
(0.0701255 0.106047 0.359173 0.464654) 45493 90306 2
(0.706247 0.146945 0.0330533 0.113755) 45447 90216 1
(0.312193 0.251589 0.0929531 0.343265) 45444 90208 2
(0.284324 0.051006 0.354866 0.309803) 45446 90299 2
(0.54017 0.230046 0.0268 0.202984) 45538 90398 1
(0.504333 0.247944 0.187886 0.0598368) 45490 90300 1
(0.252275 0.18429 0.213517 0.349918) 45527 90373 2
(0.181087 0.312945 0.0973539 0.408613) 45529 90378 2
(0.54114 0.227068 0.218113 0.0136792) 45535 90477 2
(0.420945 0.290404 0.133647 0.155005) 45575 90472 1
(0.323509 0.339102 0.173602 0.163787) 45626 90572 1
(0.030734 0.0320277 0.483194 0.454044) 45576 90559 2
(0.133345 0.42312 0.406143 0.0373929) 45577 90561 2
(0.440005 0.299065 0.0290646 0.231866) 45620 90647 1
(0.29613 0.352306 0.216507 0.135057) 45668 90656 1
(0.277459 0.220565 0.361311 0.140665) 45662 90646 2
(0.356722 0.322023 0.15419 0.167065) 45663 90646 1
(0.0364111 0.523556 0.0993184 0.340714) 45661 90729 1
(0.353732 0.334502 0.166292 0.145474) 45709 90737 1
(0.567413 0.121353 0.0950311 0.216202) 45711 90742 2
(0.603979 0.201856 0.0720416 0.122123) 45755 90829 1
(0.32999 0.20445 0.143671 0.321889) 45753 90825 2
(0.168191 0.417083 0.353447 0.0612791) 45755 90830 1
(0.16138 0.19391 0.225936 0.418775) 45802 90924 2
(0.00280621 0.083405 0.419189 0.4946) 45800 90919 2
(0.604998 0.206371 0.0613513 0.12728) 45745 90810 1
(0.473535 0.263769 0.0331462 0.22955) 45798 90918 1
(0.545714 0.0699957 0.223727 0.160564) 45799 91005 2
(0.559261 0.16841 0.191724 0.0806053) 45790 90987 2
(0.706753 0.00642485 0.140198 0.146623) 45771 90862 2
(0.25417 0.235751 0.363863 0.146215) 45845 91097 2
(0.0106239 0.512399 0.10817 0.368806) 45844 91095 1
(0.19746 0.301587 0.37735 0.123603) 45883 91173 2
(0.474599 0.242419 0.036001 0.246981) 45929 91177 2
(0.342118 0.132333 0.196925 0.328625) 45924 91168 2
(0.27254 0.364251 0.239285 0.123924) 45932 91184 1
(0.298221 0.0934129 0.257687 0.350679) 45971 91262 2
(0.646057 0.02257 0.154452 0.176921) 46015 91350 2
(0.152755 0.119381 0.304563 0.423301) 46065 91450 2
(0.543198 0.147201 0.0812511 0.22835) 46057 91434 2
(0.241499 0.303357 0.378268 0.0768762) 46059 91440 2
(0.267854 0.366216 0.0776724 0.288257) 46065 91450 1
(0.386181 0.165207 0.141291 0.30732) 36482 72287 2
(0.136873 0.0843656 0.3475 0.431261) 41871 83063 2
(0.0476227 0.399953 0.475046 0.0773785) 41950 83222 2
(0.183975 0.276525 0.407221 0.132279) 42871 85064 2
(0.202079 0.399749 0.261474 0.136698) 42913 85146 1
(0.00606368 0.29911 0.204728 0.490098) 41989 83297 2
(0.3325 0.278599 0.0559765 0.332925) 42298 83916 2
(0.129916 0.440436 0.207266 0.222382) 42692 84791 1
(0.115307 0.452368 0.413938 0.0183871) 42164 83647 1