/*--------------------------------*- C++ -*----------------------------------*\
  =========                 |
  \\      /  F ield         | OpenFOAM: The Open Source CFD Toolbox
   \\    /   O peration     | Website:  https://openfoam.org
    \\  /    A nd           | Version:  7
     \\/     M anipulation  |
\*---------------------------------------------------------------------------*/
FoamFile
{
    version     2.0;
    format      ascii;
    class       scalarField;
    location    "0.135/lagrangian/reactingCloud1";
    object      tTurb;
}
// * * * * * * * * * * * * * * * * * * * * * * * * * * * * * * * * * * * * * //


1201
(
0.00204955
0.00198705
0.00159255
0.00137655
0.00065585
0.00207955
0.0010617
0.00236633
0.00105235
0.001137
0.006129
0.00117405
0.001065
0.00153885
0.00142855
0.00188755
0.006057
0.000130057
0.000913
7.105e-05
0.00084935
0.00121685
0.000841
0.00171955
0.00046555
0.005913
0.005841
0.00212801
0.001905
1.835e-05
0.0010445
0.00200505
0.00095455
0.005625
0.005577
0.001907
0.005529
0.00186105
0.00187862
0.005553
0.005505
0.0019382
0.0016975
0.00171705
0.000183135
0.00247474
0.00021235
0.005337
0.000196576
0.001612
0.00059835
0.00140401
0.005193
0.0006387
0.00120935
0.005121
0.001651
0.001304
0.00032035
0.0016351
0.00087955
0.00124762
0.005073
0.00131513
0.004953
0.00075955
0.005001
0.00025135
0.00012435
0.001593
0.001569
0.0004212
0.001521
0.001497
0.001473
0.001449
0.001425
0.00028135
0.001377
0.001353
0.0001975
0.000658743
0.00070105
0.001257
0.001233
4.505e-05
0.001185
0.001161
0.001137
0.001113
0.00111263
0.001089
0.00048905
0.001041
0.001017
0.000993
0.000969
0.000945
0.000921
2.73451e-05
0.000873
0.000849
0.000825
0.00022105
0.000777
0.000753
0.000729
0.000705
0.000681
6.235e-05
0.000633
8.55e-06
0.000585
0.000561
0.000537
0.000513
0.000489
0.000465
0.000441
0.000417
0.000393
0.000369
0.000345
0.000321
0.000297
0.000273
0.000249
0.000225
0.000201
0.000177
0.000153
0.000129
0.000105
8.1e-05
5.7e-05
3.3e-05
9e-06
0.0002072
0.0009612
0.002793
0.002721
0.00272063
1.85317e-05
0.00219305
0.002697
0.002601
0.002577
0.0002565
0.002529
0.00113915
0.002481
0.002433
0.002457
0.002409
0.00094885
0.002361
0.002385
0.002337
0.002313
0.002289
0.002217
0.002241
0.002193
0.000837
0.002145
0.002169
0.002121
0.00089385
0.0014492
0.002073
0.002025
0.002049
0.002001
0.001953
0.001977
0.0005255
0.001881
0.001857
0.000498185
0.000483685
0.00030385
0.001833
0.001809
0.00180863
0.001761
0.000349134
0.001689
0.001713
0.001665
0.00061785
0.001617
0.001641
0.003969
0.000178082
0.003921
0.000115512
5.8e-05
0.003873
5.11269e-05
0.003825
0.003729
0.003681
0.003753
0.003609
0.003705
0.003633
0.003585
0.000285593
0.00119811
0.0015205
0.003561
0.003465
0.003537
0.000475
0.003321
0.003369
0.003489
0.00327263
0.0029705
0.0015132
0.003201
0.000101342
0.003249
0.003225
3.835e-05
0.003153
0.003177
0.003033
0.000780567
0.003105
0.00031166
0.003009
0.003057
0.0019285
0.002985
0.003081
0.00039485
9.02e-05
0.002865
0.002913
0.002889
0.002841
0.002817
0.002937
0.001364
0.00058935
0.00105865
0.00063955
0.00130055
0.00102612
0.00042685
0.004785
0.00080135
0.00105425
0.004713
0.00054355
0.000991
3.22e-05
0.00115285
0.00105009
0.00042355
8.5e-06
0.00109033
0.000856638
0.004569
0.000784116
0.00032755
0.000718234
0.0006875
0.000797639
0.004425
0.00020755
0.004449
0.0008582
0.000630528
0.000665649
0.004377
0.004329
0.004305
0.000439179
0.000725205
0.004281
0.004185
0.000230693
0.004233
0.004209
0.004137
0.000359631
0.004089
0.004041
0.0003315
0.004113
0.000312
0.004017
0.0044702
0.00095255
0.00459185
0.00494555
0.00431855
0.00217255
0.00036505
0.0002845
0.00082505
0.00205705
0.0047682
0.00352055
0.00296185
0.00264705
0.0027477
0.00107035
0.0005292
0.00170035
0.00239255
0.00308635
0.00098855
0.00215235
0.00404005
5.92125e-05
0.0023127
0.00345655
0.00049985
0.00389455
0.00026935
0.0034897
0.00353619
0.00399905
0.0021447
0.00170955
0.003494
0.00124755
0.0012242
0.0022622
0.0006147
0.00279105
0.00159955
0.00148505
0.00095381
0.00216085
0.00745555
0.003785
0.0022952
0.004337
0.00306635
0.0001587
0.00194185
0.0076235
0.0029085
0.00888407
0.004145
0.0006482
0.00082485
0.000500607
0.00337684
0.00061385
0.00206476
0.00060835
0.00401285
0.00262074
0.0014007
0.0008852
0.00033305
0.000558498
0.0013787
0.00451935
0.0013047
0.00561035
0.000259251
0.00148821
0.00370485
0.00439935
0.00254685
0.00353505
0.003641
0.003617
0.00294821
0.003316
0.0010647
0.000656206
0.0030128
0.0034252
0.00411135
0.00423355
0.002245
0.0009877
0.00148605
0.00406335
0.0010142
0.003377
0.0002782
0.00186505
0.00194305
0.0007287
0.0004302
0.0002302
0.003233
0.00318817
0.0018507
0.00115403
0.0007502
0.00523385
0.00234383
0.00042255
0.00143285
0.00168865
0.010065
0.0030542
0.0043482
0.00072605
0.004993
0.00091603
0.00626584
0.00150085
0.0003317
0.00139956
0.00394785
0.002657
0.00128373
0.0002467
0.0020982
0.0023897
0.00277879
0.0057015
0.00190485
0.00319005
0.005165
0.000946848
0.0026955
0.0029437
0.00104305
0.00348426
0.0034501
0.00256705
0.00240305
0.00357035
0.0009137
0.00279135
0.001323
0.00538231
0.00017955
0.00161605
0.00201785
0.00255476
0.00017905
0.00037235
0.0026427
0.00381685
0.00232202
0.0021587
0.0075692
0.0011192
0.00116501
0.005086
0.000338701
0.00091335
0.00482333
0.00384101
0.00219135
0.00215505
0.007759
0.0033822
0.0007842
0.0013876
0.00231085
0.008433
0.0037292
0.0004865
0.000110202
0.00275805
0.00183135
0.0013997
0.00044635
0.00178335
0.00516382
0.00150435
0.00175935
0.000752011
0.00177784
0.003121
0.00162854
0.0029315
0.0021045
0.000584
0.00018605
0.0050697
0.00191935
0.00225984
0.000256642
0.00447404
0.008001
0.00053255
0.00013505
5.85e-06
0.00246285
0.000515082
0.00350655
1.72296e-05
0.00361555
0.0014126
0.007713
0.00351955
0.0012222
0.00231433
0.00113835
0.0016197
0.00144435
0.00631674
0.007569
0.007545
0.00387678
0.0004447
0.007449
0.002377
0.002353
0.00044155
0.00114255
0.00089535
0.00136635
0.00112905
0.000193684
0.003474
0.007185
0.0004067
0.003425
0.00165735
0.00240135
0.00338153
0.00121835
0.00194505
0.00119435
0.006969
0.006921
0.0035492
0.00107485
0.000457837
0.00306552
0.00037155
0.00064305
0.0006842
0.002999
0.00281735
0.00089035
0.006705
0.00321821
0.001242
0.00112227
0.001569
0.00300784
0.006537
0.00057505
0.006513
0.006441
0.0007637
0.00614755
0.00057035
0.000863092
0.0136284
0.0117327
0.0106612
0.00097155
0.00627055
0.00960555
0.00634705
0.00466085
0.00459285
0.00530555
0.0055295
0.0070847
0.00518155
0.00440085
0.0031825
0.00247655
0.00633055
0.00544135
0.0045582
0.005043
0.00706355
0.000189203
0.00519405
0.0048352
0.00189805
0.00188205
0.00170235
0.00482555
0.0016485
0.00621155
0.00583935
0.00098735
0.00530985
0.00130835
0.00577135
0.0019062
0.0029075
0.00349005
0.00108055
0.0045007
0.00599385
0.00611535
0.0053337
0.0061292
0.00124585
0.0056467
0.00585935
0.00524155
0.00114436
0.00523735
0.00044055
0.004417
0.0022392
0.0025727
0.002304
0.0059015
0.0040752
0.0008077
0.0034122
0.0016607
0.00293014
0.0018092
0.00327622
0.00569605
0.00505321
0.0059662
0.00459855
0.00347185
0.000997121
0.0007762
0.00216055
0.00401305
0.00125505
0.00338271
0.00551585
0.0051072
0.00392744
0.0037637
0.00506735
0.00292455
0.0030832
0.00226455
0.0004007
0.00554065
0.0006252
0.00189835
0.0033802
0.003347
0.0003625
0.00270005
0.00014485
0.00157455
0.0024352
0.00564255
0.00016785
0.0041111
0.00403655
0.00296755
0.00020605
0.00379404
0.00341985
0.00712285
0.0025742
0.0042357
0.004557
0.00408135
0.00380585
0.00509485
0.00314935
0.00079785
0.0034735
0.0035005
0.0023292
0.000651548
0.0032087
0.0052392
0.00031805
0.0017757
0.000617208
0.0035762
0.00252685
0.0026547
0.003234
0.0030635
0.0034692
0.00355856
0.0046692
0.0031585
0.00270785
0.00379705
0.00330421
0.0021037
0.000908788
0.00027085
0.0020697
0.00169305
0.0049347
0.00547185
4.705e-05
0.0022572
0.0014862
0.0023955
0.00414185
0.00268005
0.00427145
0.0016877
0.00079631
0.002682
0.000845076
0.00539524
0.0046227
0.00071355
0.00132355
0.00101505
0.0020177
0.00311805
0.00175435
0.00464355
0.00094555
0.00256785
0.00028085
0.00452035
0.00068535
0.00057285
0.0027995
0.00197635
0.00240655
0.00381555
0.0014897
0.00231785
0.00283835
0.00116921
0.00085035
0.00303635
0.00274235
0.00230421
0.00267035
0.0056227
0.00358885
0.000226
0.00215935
0.003748
0.00466635
0.0036627
0.00093105
0.002306
0.00228705
0.0028095
0.0048382
0.000776
0.00148805
0.00134055
0.00342931
0.00187105
0.0001702
0.00371705
0.00113235
0.0047892
0.0006225
0.002604
0.00348835
0.00130055
0.00072205
0.00417505
0.00175285
0.00102405
0.00430035
0.0006685
4.485e-05
0.00113385
0.0022102
0.00342905
0.00073205
0.00423402
0.0036485
0.00385405
0.000235237
0.0046862
0.0049805
0.00308035
0.00050735
0.00589835
0.00408178
0.00173435
0.00476085
0.0037582
0.003318
0.00411235
0.00108155
0.0045405
0.0027267
3.955e-05
0.00261655
0.00093355
0.000304807
0.00262685
0.00104035
0.00384605
0.00255385
0.0020007
0.00537655
0.004668
0.00492255
0.00405362
0.00042855
0.00404971
0.0010732
0.00343635
0.00114052
0.00387105
0.00200505
0.0016013
0.0038152
0.0013487
0.00182735
0.00144085
0.00412035
0.0025922
0.0023632
0.00458884
0.0029576
0.005801
0.00221455
5.20209e-05
0.000234338
0.00185135
0.00369605
0.00221632
0.00104235
0.00421235
0.00316855
0.00198867
0.00243805
0.000624615
0.0013702
0.00275105
0.0047652
0.0025232
0.00171235
0.00468062
0.00440535
0.00284655
0.0031022
0.00469685
0.00403735
0.0045492
0.00266772
0.0015087
0.0026247
0.00202485
0.00090305
0.00405835
0.0027845
0.005057
0.0043915
0.00103205
0.0029465
0.003074
0.003727
0.00623435
5.42e-05
0.00586885
0.0033602
0.0124919
0.00258855
0.0030467
0.0096147
0.0107201
0.00965821
0.00759055
0.004502
0.006345
0.0110269
0.0026367
0.00356255
0.00695821
0.011566
0.0120506
0.00354513
0.00939905
0.00305049
0.00224671
0.0111667
0.00804555
0.00948985
0.000318909
0.00821635
0.00961955
0.00982335
0.00767321
0.0074565
0.00296303
0.0104887
0.00710046
0.000826016
0.00391055
0.0110916
0.00079985
0.00522964
0.0082012
0.00966905
0.00701385
0.00217885
0.0105416
0.0005665
0.00523505
0.0022075
0.00648505
0.00078035
0.00871412
0.0076977
0.0102194
0.010108
0.00816855
0.00496255
0.00913785
0.00553035
0.0091302
0.000346351
0.00155385
0.00079305
0.00123405
0.00831064
6.72e-05
0.0088842
0.00139409
0.0101589
0.00706805
0.000121124
0.000960969
0.0100851
0.00503055
0.00941485
0.0075865
0.00415285
0.00936805
0.00803585
0.00613505
0.00515705
0.00904755
0.0048382
0.0038495
0.00911885
0.00290635
0.0050762
0.00991285
0.0062277
0.0010707
0.00158819
0.0031955
0.00637485
0.00452099
0.0011612
0.00856159
0.00200135
4.335e-05
0.0077107
0.0052692
0.0096545
0.00410735
0.00282985
0.010081
0.0022872
0.0070132
0.00779385
0.00453235
0.00023935
0.00787757
0.0060897
0.00972366
0.0077997
0.0075242
0.00648302
0.00829085
0.00648269
0.00220785
0.00174435
1.47e-05
0.00358635
0.00317429
0.00233654
0.0101461
0.00319335
0.00867735
0.00788607
0.0083597
0.0039295
0.00377355
0.004179
0.00509355
0.00522455
0.00733885
0.0029547
0.00794985
0.00777869
0.0014142
0.00703664
0.0036967
0.00888905
0.00179322
0.00583471
0.00506857
0.0041897
0.0077407
0.0051255
0.007344
0.00710835
0.0009465
0.0060727
0.0062295
0.00553635
0.00097335
0.0078857
0.0067285
0.0056937
0.0083795
0.0013377
0.00832619
0.0025762
0.005945
0.0081525
0.00542435
0.00862655
0.00703205
0.00209085
0.001008
0.00297205
0.00426623
0.0088815
0.00650771
0.00597855
0.00260904
7.00015e-06
0.0039087
0.00206305
0.00664955
0.00581335
0.00493785
0.00668605
0.00713885
0.00716885
0.000737181
0.0070282
0.00626435
0.00365905
0.0047457
0.00062785
0.007427
0.0035267
0.00644659
0.0014827
0.00624655
0.00871335
0.00748269
0.00208565
0.00237585
0.00784835
0.0073488
0.00283785
0.0061175
0.00786755
0.00233485
0.0027662
0.00379992
0.00343635
0.0036197
0.0003647
0.000399774
0.0081707
0.00371043
0.00840685
0.0062877
0.00817301
0.00736505
0.0012372
0.00061435
0.0069642
0.00768205
0.0054702
0.00617485
0.00771505
0.0036127
0.00196969
0.006728
0.00268971
0.00800735
0.00466685
0.0076712
0.00769355
0.0074362
0.00233447
0.00292016
0.0023442
0.00651
0.00522355
0.00547255
0.00176905
0.00279477
0.000376504
0.00717035
0.00378455
0.00554205
0.0069967
0.0065802
0.00435605
0.004542
0.00638371
0.00471055
0.0019302
0.00449134
0.00458305
0.00749305
0.005919
0.0024312
0.00695412
0.00606685
0.00531405
0.0073697
0.00640785
0.000155468
0.0016255
0.0064837
0.00745855
0.000843485
0.00477805
0.00116198
0.0048747
0.00673135
0.0004595
0.0021065
0.00316385
0.00226335
0.00682522
0.00496735
0.0013042
0.005784
0.00437216
0.007379
0.0018795
0.00706085
0.00720005
0.000170017
0.00538105
0.0067425
0.00155955
2.92036e-05
0.00498867
0.00622255
0.00561835
0.00237485
0.0057615
0.00411705
0.00697705
0.00258955
0.0065457
0.0054357
0.0016015
0.005182
0.0053252
0.00041616
0.00521952
0.003136
0.00498055
0.00208635
0.0044197
0.0021547
0.00445405
0.000302911
0.00463355
0.00749
0.005972
0.0056453
0.00398955
0.00634326
0.00550935
0.00596005
0.0024675
0.000526071
0.00724435
0.0026892
0.00217905
0.00023785
0.0159925
0.0147572
0.00112285
0.0129619
0.0128131
0.012232
0.0124192
0.00929485
0.00120105
0.0120275
0.0102602
0.00815885
0.0137519
0.0099407
0.00438805
0.0003517
0.0033682
0.0042292
0.0079532
0.0100696
0.0099332
0.0073605
0.00908655
0.0207317
)


// ************************************************************************* //
