/*--------------------------------*- C++ -*----------------------------------*\
  =========                 |
  \\      /  F ield         | OpenFOAM: The Open Source CFD Toolbox
   \\    /   O peration     | Website:  https://openfoam.org
    \\  /    A nd           | Version:  7
     \\/     M anipulation  |
\*---------------------------------------------------------------------------*/
FoamFile
{
    version     2.0;
    format      ascii;
    class       vectorField;
    location    "0.135/lagrangian/reactingCloud1";
    object      U;
}
// * * * * * * * * * * * * * * * * * * * * * * * * * * * * * * * * * * * * * //


1201
(
(358.625 12.1833 -0.305916)
(358.811 10.4655 -2.04351)
(399.416 -1.39146 2.77873)
(410.811 2.65435 11.6269)
(431.709 -7.09078 -3.84013)
(427.626 3.35391 8.48552)
(426.937 -8.22678 -4.2484)
(441.798 -3.86454 21.7892)
(414.457 -0.111111 1.49724)
(440.275 -0.874997 -0.990831)
(440.937 -0.0151923 -1.04597e-06)
(428.565 -2.40646 23.0695)
(451.106 -8.1238 -5.91526)
(375.98 11.0015 -11.283)
(403.238 -0.784312 1.00336)
(435.999 1.22173 1.41366)
(440.521 -0.0409314 -4.20221e-06)
(429.655 -0.30977 -4.99549)
(438.93 -1.27317 3.24848)
(429.809 -2.42487 -0.954081)
(410.653 -0.305744 -0.569089)
(408.456 -8.07394 -2.55432)
(437.411 -4.53089 5.94117)
(433.796 -2.57983 -1.58387)
(425.093 -4.77173 5.37726)
(440.011 -0.0478845 -2.47602e-05)
(440.486 -0.0128687 -1.25984e-06)
(444.065 -7.14442 -1.63122)
(438.755 -0.71271 0.30981)
(440.504 -1.80431 1.52867)
(422.023 -1.01034 2.76023)
(436.303 -0.593202 0.184387)
(404.618 -0.25118 -7.05419)
(439.845 0.0216602 -4.01351e-06)
(439.975 0.013321 -1.61785e-05)
(434.898 -3.02839 -6.41778)
(439.861 0.0270897 -7.98243e-06)
(434.535 -2.57911 -0.471684)
(428.211 -7.71324 -0.0691488)
(439.33 0.0945276 -2.44899e-05)
(439.486 0.0951893 -2.60928e-05)
(433.643 -3.7489 -0.345647)
(435.67 -7.73956 -1.62356)
(432.798 -0.971618 5.93523)
(428.509 -1.12246 0.981182)
(439.44 -18.6103 -6.95122)
(413.531 0.105907 -0.0353935)
(438.402 0.402335 -8.04084e-05)
(412.256 3.58381 4.11882)
(434.019 -2.16681 -0.512435)
(408.601 -10.8685 3.78326)
(442.201 2.6642 -8.54544)
(438.321 0.515009 -1.5209e-06)
(420.44 -5.37378 -1.45483)
(437.994 -4.30446 -2.03661)
(438.502 0.282993 -2.9336e-07)
(423.863 1.67886 -3.39624)
(435.489 3.33289 1.18427)
(412.27 2.09094 -4.14303)
(426.985 -1.37365 2.06888)
(440.211 0.429321 1.00091)
(439.294 0.738348 -3.72624)
(436.525 1.10066 -5.97775e-05)
(415.394 7.51118 4.15798)
(437.253 0.373275 -0.000108117)
(434.665 1.87632 1.24048)
(435.657 1.32073 -8.79253e-05)
(367.089 0.694901 -1.09168)
(52.4408 21.7902 8.90258)
(109.266 23.6188 0.0011798)
(119.494 19.8193 -0.000181769)
(141.251 23.672 -19.3008)
(127.994 14.8743 0.000871776)
(121.842 24.6926 -0.000721091)
(125.182 23.5287 -4.35379e-05)
(130.521 19.5029 -0.000361452)
(129.403 24.0662 0.001948)
(131.347 33.722 18.4256)
(137.102 16.654 -9.51459e-05)
(138.296 19.1445 -0.000113648)
(152.062 32.4657 -8.03953)
(133.33 31.8306 0.0434419)
(145.539 27.2583 -7.6433)
(139.887 30.294 -0.000344114)
(147.183 18.5609 -0.000199788)
(166.807 -5.02116 -5.29404)
(148.955 8.05856 -8.25865e-05)
(151.224 29.1226 -0.000129174)
(155.559 21.5899 -0.0016046)
(152.565 8.0522 -0.00027059)
(155.731 26.2964 -0.00101994)
(157.093 14.7794 -0.000484755)
(160.289 15.3767 -5.40395)
(156.385 7.95961 -0.00016503)
(160.136 11.1792 -0.000623615)
(164.981 15.1156 -0.000294528)
(167.872 17.5491 -0.00103162)
(157.822 4.09657 -7.69935e-05)
(157.845 2.35863 -7.59954e-06)
(62.8671 -0.235009 3.3883)
(169.706 9.42243 -0.00233144)
(168.901 7.9307 -0.00353555)
(169.783 7.88193 -0.00106397)
(142.754 4.00784 1.27828)
(163.971 4.18414 0.000281217)
(162.831 3.00113 0.000116493)
(163.277 2.9668 -0.000760344)
(168.049 3.02249 -0.00158474)
(164.088 2.59667 -0.000649311)
(109.431 11.0174 -6.25242)
(166.321 2.44744 0.000446446)
(114.016 8.63087 -2.19573)
(165.319 0.4516 -0.000272605)
(163.901 1.01583 -9.09569e-05)
(161.185 -0.0630191 1.83482e-05)
(165.637 1.51295 6.7313e-05)
(165.039 1.27397 1.05254e-05)
(164.745 0.992953 -9.53829e-05)
(164.65 0.717248 3.02484e-05)
(164.89 0.828942 -2.88677e-05)
(166.049 0.602247 5.23062e-05)
(165.212 0.841334 -0.000233199)
(165.206 0.733025 -0.000208136)
(165.892 0.411935 -3.05646e-05)
(165.386 0.706961 0.000113227)
(165.278 0.54353 -3.30479e-06)
(165.803 0.206416 -5.93945e-06)
(165.744 0.0495912 0.000327601)
(165.363 0.324513 -2.28049e-05)
(165.602 0.551419 -3.08558e-06)
(165.64 -0.0178092 6.32683e-06)
(165.555 0.579753 0.000110094)
(165.634 0.289113 0.000178383)
(165.548 0.507805 -1.19514e-06)
(165.565 0.543143 4.3979e-05)
(165.589 0.533028 7.13363e-06)
(165.603 0.177535 -9.22095e-05)
(78.2223 -28.6781 11.8794)
(97.4798 -12.2021 -3.46611)
(113.806 -15.1197 0.00314501)
(126.793 -8.40175 -1.194e-05)
(128.493 -6.50745 -6.95848e-06)
(94.6203 -5.84882 7.39387)
(104.186 -23.6806 -11.9953)
(108.461 -13.1838 -1.25348e-06)
(117.052 -9.7239 0.0015778)
(115.892 -9.36143 7.60368e-05)
(79.7152 -9.57752 2.83565)
(105.842 -9.80086 0.000199297)
(93.0004 -10.7821 0.634827)
(121.469 -4.0675 5.9956e-06)
(116.55 -5.53542 0.00128939)
(111.925 -7.38383 3.54467e-05)
(110.624 -6.54696 4.44516e-05)
(76.3528 -6.34914 1.99741)
(111.251 -5.20511 0.00103862)
(106.319 -6.55496 0.000753001)
(115.705 -3.83991 8.18648e-06)
(107.211 -4.67312 0.000322308)
(104.168 -4.25909 0.000199982)
(110.633 -2.08145 0.000399973)
(109.608 -2.66052 0.00144942)
(111.649 -1.36208 0.00109194)
(85.2048 -3.47964 -3.57502)
(113.662 -0.33429 1.70424e-05)
(94.5179 0.254458 0.000820636)
(115.516 0.0528217 1.99792e-05)
(84.6683 7.29997 -0.69828)
(89.2902 -2.48819 -10.187)
(101.642 2.60735 0.000346066)
(119.587 1.15068 -7.9458e-06)
(102.303 3.34438 0.00281326)
(100.998 5.18882 0.0015819)
(122.065 1.05274 0.000370187)
(107.702 4.85769 0.000688064)
(45.4821 9.25318 14.2381)
(117.58 4.99712 -0.000206571)
(121.534 3.6183 -6.65289e-05)
(83.8524 11.2222 0.00978908)
(80.6119 13.3604 6.39967)
(74.2083 -1.07935 -4.07457)
(112.631 8.83661 0.0015178)
(113.147 9.70564 0.00260672)
(114.452 9.21923 -6.39792e-06)
(124.875 3.69292 0.000583272)
(89.3226 15.8214 -4.33472)
(124.966 7.04825 0.00163717)
(107.376 16.7841 0.00265163)
(124.07 9.22723 -8.91834e-05)
(96.6055 13.1019 -4.1071)
(129.432 5.32689 -0.000209613)
(114.808 17.8692 -0.000149174)
(350.587 -1.76233 -0.00110131)
(328.366 -18.2196 0.00103158)
(329.865 -7.31257 -0.00239587)
(311.022 -24.0251 0.588732)
(288.416 -44.7183 2.32239)
(292.012 -28.3998 -0.00438705)
(248.181 -48.5538 -0.417092)
(254.652 -41.5486 0.000400361)
(244.005 -33.7244 -1.5154e-05)
(239.221 -28.7305 0.000244193)
(221.942 -43.0411 0.000103048)
(230.622 -19.5481 0.000366214)
(204.216 -41.9708 0.00353462)
(211.9 -34.0972 0.000470753)
(209.621 -28.8412 3.15067e-05)
(118.494 -32.3662 0.089909)
(177.174 -43.2365 -10.1162)
(174.011 -44.553 0.921577)
(202.833 -29.5843 0.000381112)
(207.094 -4.58555 -0.000325457)
(191.583 -31.5797 7.87294e-06)
(175.983 -38.0487 -4.87094)
(181.276 -5.96817 -0.000284838)
(170.065 -24.7075 0.000363454)
(149.448 -35.7836 -0.000363317)
(167.078 -16.0321 0.00112054)
(151.971 -43.4688 -22.0844)
(137.887 -38.7646 -0.72993)
(156.389 -17.633 -6.94518e-07)
(148.668 -28.0162 4.25989)
(141.637 -27.0373 -0.000382782)
(142.21 -25.7508 4.71534e-06)
(33.0766 -6.72307 -0.0548563)
(145.211 -20.7878 0.0015275)
(142.013 -23.4417 -0.000217338)
(149.283 -5.21215 0.000194128)
(121.498 -27.5887 0.457942)
(131.872 -22.5907 0.00278344)
(76.7143 -26.6433 -4.82904)
(138.228 -15.4732 -9.2095e-06)
(130.73 -21.0114 0.00131448)
(114.79 -29.3799 0.677296)
(136.269 -15.3406 0.000513898)
(118.192 -22.467 -0.000927739)
(57.1893 -11.1328 1.3694)
(104.387 -21.2548 -1.14918)
(131.021 -12.1864 -7.58934e-05)
(126.047 -16.6098 0.000581141)
(125.348 -15.9744 0.00131026)
(120.232 -15.793 -0.000249348)
(122.144 -14.524 -4.91864e-05)
(113.501 -18.2036 -0.00138682)
(338.382 11.3757 7.14333)
(380.269 -4.58232 -5.32372)
(411.756 0.675117 2.25015)
(434.003 0.689863 -2.95234)
(425.959 1.79509 -0.21579)
(441.231 2.62719 -8.17588)
(358.014 6.41769 1.5994)
(432.479 1.44071 -1.0093e-05)
(430.611 1.53363 0.539479)
(355.346 19.1415 -12.5592)
(432.18 0.799033 -7.06459e-07)
(430.775 -2.37461 -13.8104)
(427.32 3.00436 2.89388)
(348.09 4.83336 -3.13962)
(416.313 0.129624 -2.00318)
(430.446 -12.4422 -8.4426)
(426.77 0.637723 0.798465)
(348.66 -4.53604 12.6831)
(424.226 0.557555 0.0853709)
(442.584 -3.19274 -0.819878)
(424.6 0.88887 0.000155509)
(423.799 -0.812505 1.25131)
(424.602 -6.20876 1.92294)
(420.346 -0.0703356 -5.97208)
(395.875 1.14809 -1.09108)
(367.762 -7.8815 -9.39244)
(411.721 -0.0745921 2.63443e-05)
(383.848 -1.79351 -1.73398)
(410.511 -0.141785 4.36485e-05)
(407.085 -4.29526 -1.82792)
(412.094 -0.854106 -2.16691)
(376.844 -4.44883 6.8167)
(404.779 -0.669684 0.00027372)
(401.96 -0.726974 0.000150071)
(401.946 -0.553152 -4.62153e-05)
(388.243 -5.87604 -0.0617957)
(386.803 -5.27488 0.829459)
(389.973 -2.02797 -0.000382854)
(389.465 -0.280667 -6.32828e-05)
(378.18 -10.6687 7.34927)
(385.033 -2.09482 0.0011095)
(381.461 -2.45511 0.000753127)
(381.173 -0.682297 -0.000192048)
(368.82 -7.30096 4.21371)
(367.688 -2.16873 6.62566e-06)
(367.465 -0.362324 -0.000179238)
(361.541 1.46215 -1.93055)
(357.703 -6.01144 -0.000789716)
(316.029 -15.7622 -19.8535)
(350.748 -4.5415 -0.000194844)
(342.461 0.538323 -0.617652)
(329.952 9.93744 -1.59782)
(318.146 5.5944 -7.59684)
(341.783 13.6108 24.9668)
(377.906 5.83699 8.17386)
(371.563 14.5447 6.12309)
(382.735 -1.00075 -0.136402)
(386.159 -0.880323 -1.30759)
(299.159 -11.1519 2.92156)
(377.651 -0.520762 -0.00678901)
(278.255 28.3266 1.89895)
(346.287 9.19862 1.57676)
(373.698 12.8735 -4.88584)
(351.173 -2.65428 2.23879)
(339.789 -1.53564 1.23134)
(383.716 -0.628253 0.00645056)
(363.93 5.43058 0.534905)
(390.187 -2.94175 -8.7934)
(427.38 -18.0752 12.3759)
(396.289 2.73696 9.77867)
(359.83 1.00134 4.17556)
(381.095 9.88355 -2.7827)
(393.44 -2.81069 7.09271)
(443.605 0.319449 0.246333)
(446.979 -6.07986 2.32817)
(391.894 -1.6161 0.496173)
(395.882 -3.95034 -3.40745)
(385.998 -1.28979 1.16674)
(424.919 2.21016 -3.88657)
(396.328 -1.67973 -0.797885)
(396.869 7.93597 -1.27616)
(422.723 4.50378 -1.07477)
(442.06 1.72815 -3.89977)
(436.983 -4.45118 10.9403)
(444.253 2.13688 -0.48082)
(400.095 -1.24824 -0.371965)
(403.496 3.9168 10.8328)
(437.508 -9.77501 5.22787)
(426.291 1.05953 7.26027)
(434.082 -24.2859 4.11038)
(414.721 8.08975 2.02188)
(411.179 -0.686429 -0.658072)
(443.58 5.42079 0.761746)
(402.013 -1.63134 -2.28953)
(438.218 -6.87739 8.29859)
(435.031 -5.00728 -1.37236)
(340.036 21.6033 -1.02035)
(428.957 0.156533 1.59496)
(421.073 0.460251 7.60624)
(316.651 -5.64446 8.59507)
(389.049 1.71978 1.78158)
(441.657 -7.70177 5.45604)
(426.636 7.42364 -6.81293)
(441.019 -8.21127 7.31605)
(434.597 -1.16103 -1.1958)
(433.703 -6.13358 -2.76227)
(410.986 -0.879181 -0.72164)
(442.673 -0.192301 0.00397231)
(434.89 1.01619 -1.0705)
(343.396 0.230589 -0.00988764)
(427.982 9.54958 -1.40319)
(386.307 0.504125 3.38832)
(463.033 -18.5684 -3.98794)
(442.986 -9.79575 3.11059)
(428.918 -8.41278 -0.465602)
(347.434 3.14289 -3.88759)
(445.07 5.9457 -4.74686)
(441.993 -0.018347 -0.0231374)
(346.102 1.27178 2.81289)
(437.838 -1.77001 -1.39703)
(445.941 -1.52569 -2.51262)
(428.137 -8.38068 -4.46192)
(438.19 -8.94976 4.48469)
(440.8 1.47723 5.63295)
(352.861 6.22485 -7.80055)
(436.12 -1.53407 2.38221)
(391.029 -2.4175 1.23388)
(402.021 0.165224 -0.986785)
(436.867 -2.47484 -1.79442)
(442.511 -3.43645 -3.22324)
(437.719 0.645516 -0.364145)
(388.154 1.27512 1.09068)
(443.269 5.08282 -3.76484)
(441.041 0.000544141 0.0202477)
(369.525 19.7228 -0.478763)
(399.401 2.82892 -1.18918)
(440.912 -2.62944 3.30754)
(363.785 9.93334 0.284697)
(417.571 1.72987 -12.2941)
(428.857 7.0639 -6.01986)
(427.378 -6.41365 22.5433)
(432.332 0.117438 -1.96929)
(421.847 -2.69241 5.18422)
(425.92 0.887954 3.57489)
(421.293 -2.07657 -2.25372)
(369.358 15.7813 -1.17932)
(434.108 -4.51242 -2.53714)
(443.842 2.01976 -2.03544)
(396.186 8.68018 2.52054)
(419.453 0.436553 4.34277)
(435.313 -3.0589 0.497143)
(444.544 -7.61896 -2.93348)
(449.257 -0.219228 4.6428)
(444.254 0.778507 -4.03303)
(435.632 -1.28888 -1.17893)
(442.204 -9.21294 1.09531)
(450.207 -2.69462 -5.77554)
(431.182 -5.40244 -24.5906)
(414.636 -0.0289571 5.70637)
(432.862 1.95782 -0.907736)
(442.786 0.0360897 -7.12047e-06)
(414.779 2.51446 0.951797)
(363.692 4.51215 0.550834)
(412.435 13.391 9.49695)
(439.578 -7.05792 -1.45868)
(446.657 -1.89308 1.52168)
(459.995 -15.1977 -3.30309)
(347.127 0.211502 -1.52614)
(426.15 -1.31958 -1.00402)
(448.017 7.30201 3.47199)
(355.621 14.8826 3.41636)
(444.684 -8.42231 8.51476)
(439.335 0.00943126 -6.94098)
(408.153 -3.46995 2.51848)
(409.427 -2.1288 0.428471)
(360.834 11.0968 -11.3062)
(378.623 8.7069 -16.006)
(434.341 -5.7908 2.01788)
(427.859 -1.1604 -0.482378)
(446.352 -16.8308 -17.878)
(433.787 -10.2027 0.27728)
(445.471 0.692595 -5.47516)
(354.566 18.0073 11.7341)
(337.934 18.5647 -12.3672)
(418.704 -14.5848 20.5419)
(436.279 -8.50107 -3.41912)
(430.664 -6.07508 2.17773)
(386.965 -0.629062 -0.150348)
(411.867 2.83445 -0.374324)
(429.822 2.22723 3.41254)
(413.111 -2.7432 -3.15749)
(431.217 3.14456 2.26563)
(407.638 11.8719 -2.27666)
(445.072 -10.2512 -3.95823)
(447.861 -1.93081 9.54295)
(385.895 5.65182 2.31348)
(448.531 -9.33465 -8.83171)
(414.27 2.54787 4.2741)
(409.383 -6.6634 -1.01422)
(410.355 -4.62213 -1.34322)
(380.741 2.43021 -14.2514)
(458.349 -18.5501 5.8283)
(431.863 -4.86182 -4.69217)
(401.674 -0.186246 10.9373)
(440.62 -11.618 11.9773)
(389.207 -6.31301 4.75032)
(445.673 0.00516232 0.202795)
(445.086 -11.0534 11.0695)
(438.653 -1.55319 0.454696)
(418.763 -1.80568 8.53544)
(451.626 -3.9372 -8.10553)
(350.307 9.52835 -1.6872)
(438.274 -0.132996 -1.07735)
(420.567 -1.41581 -3.64582)
(444.929 -13.9049 -5.62771)
(445.113 -16.8006 -8.6485)
(443.015 -17.9078 -0.875442)
(437.911 1.51562 0.324989)
(399.697 -2.9427 6.58559)
(442.83 -0.00700665 1.03375e-06)
(369.511 13.7858 -3.32859)
(419.733 -3.42601 -1.40345)
(450.497 0.0008271 0.045739)
(422.734 2.22052 5.35092)
(439.906 -0.111496 0.224871)
(402.581 -11.8911 7.19549)
(382.894 2.39937 8.69318)
(441.709 -3.58956 -1.22768)
(357.522 6.87735 4.37971)
(416.751 -0.06947 -0.0988897)
(438.713 -2.04908 -0.201137)
(325.856 13.8799 8.98431)
(326.603 7.53716 1.80676)
(436.435 -0.478217 -0.841519)
(411.115 -1.02375 0.0297122)
(428.591 -7.3276 -2.67134)
(374.246 17.0655 14.4076)
(423.883 -7.87821 -9.13713)
(427.93 6.16573 -1.44209)
(442.864 -12.6678 4.07708)
(371.631 16.8981 5.88153)
(415.726 5.16023 -1.55042)
(441.912 -0.0303147 -0.00488999)
(449.796 -8.59947 -8.28406)
(442.319 -0.00210838 -7.57435e-06)
(407.913 -6.86771 10.1577)
(443.345 0.430182 -3.4958)
(433.608 -37.2185 -20.0214)
(429.815 -4.43953 -1.77579)
(432.313 -4.48236 -12.0768)
(348.928 11.4051 0.821387)
(442.277 -6.91492 -3.27877)
(442.041 -2.04969 0.536612)
(422.285 2.14861 -1.09803)
(441.958 -2.87365e-06 -1.27857e-05)
(440.856 -8.38957 7.71215)
(405.481 -0.422816 6.62415)
(392.051 7.97258 -0.491753)
(429.194 0.414423 0.864869)
(420.301 -0.320519 0.0436553)
(411.651 -4.29767 2.25411)
(449.127 -12.4905 3.67442)
(442.145 0.0082245 1.1488e-05)
(442.258 0.0115967 -1.7023e-05)
(439.032 -8.34204 5.25453)
(369.496 -0.0121951 -2.1637)
(442.381 0.0123726 -2.55913e-07)
(444.846 -4.85085 -4.3984)
(441.726 -1.21008 2.21991)
(405.309 -1.69945 -1.85721)
(428.045 -6.17607 4.90439)
(441.029 -0.0631126 0.0083232)
(429.366 -4.12009 -2.97909)
(379.275 7.59592 9.12663)
(426.903 1.54917 7.06812)
(445.117 -19.483 -0.959799)
(442.066 0.0137075 1.75151e-06)
(433.478 8.42193 -1.82771)
(431.353 -6.63777 -7.95192)
(390.223 0.103864 -16.3405)
(437.277 -14.9703 15.3187)
(438.257 -3.94688 -11.0145)
(441.984 -0.293239 -0.308351)
(418.854 -3.4232 1.95037)
(436.55 -10.9798 7.91709)
(441.549 -0.00713625 -7.91114e-06)
(441.817 0.0109027 -2.28908e-05)
(435.042 -8.58929 12.2572)
(430.105 -3.6584 3.88669)
(428.708 5.45971 3.34392)
(450.292 -4.67604 -3.78895)
(431.416 -0.429562 -10.6027)
(388.248 14.7591 -5.56494)
(422.897 2.14083 -9.96382)
(454.051 -26.5595 -14.4582)
(435.881 0.69328 -1.59834)
(426.501 -2.84577 2.10574)
(441.749 0.00455278 -1.78171e-06)
(345.486 27.9589 0.578066)
(405.147 6.34433 -1.33332)
(420.482 -1.07429 0.603551)
(439.907 -10.5281 -0.920504)
(440.375 -13.4373 -6.33784)
(441.49 -0.00624565 2.41114e-06)
(416.273 4.84005 -1.83688)
(441.144 -0.0316859 1.30575e-06)
(441.035 -0.0341797 -2.77545e-07)
(416.355 0.47085 -3.22756)
(435.123 -13.8795 2.4606)
(435.326 -11.245 -5.25858)
(414.13 -0.829424 -0.222562)
(268.721 30.9285 -7.58588)
(251.078 22.8792 -11.3484)
(238.062 26.3317 -8.88092)
(262.156 -3.65276 -1.15636)
(275.034 11.3537 -5.6567)
(267.456 18.1917 13.1419)
(287.19 31.2192 -7.57769)
(288.172 12.0385 -4.47857)
(239.188 26.1867 2.17175)
(290.474 -6.96939 -21.8885)
(284.606 7.36673 0.062613)
(295.678 1.39837 4.20341)
(288.023 30.3096 -21.249)
(302.262 8.22183 4.9081)
(323.312 -8.90586 -8.71588)
(287.454 7.08763 -0.765209)
(310.526 4.67016 3.12694)
(377.723 -1.2107 -7.9124)
(364.783 0.513728 4.48133)
(363.889 2.70557 3.80735)
(313.682 -0.584511 -1.07926)
(391.482 0.241617 0.0725438)
(310.459 8.80063 -6.2158)
(389.218 -7.5426 7.71206)
(367.939 -0.388469 -21.2759)
(395.475 -3.95239 -14.8696)
(386.222 -0.367721 0.0213521)
(337.604 0.743473 -4.20646)
(387.787 0.00680089 0.221776)
(342.919 5.69748 2.31864)
(340.564 -3.53707 -9.75158)
(353.546 -20.0585 0.0318025)
(325.029 19.2361 1.48814)
(361.415 -0.44916 -0.0148365)
(326.965 1.19235 -1.49975)
(376.449 20.006 -3.74846)
(382.827 0.10434 -0.0773288)
(329.576 5.5683 7.76053)
(393.093 10.2078 -19.3609)
(351.344 -1.14151 2.70711)
(347.982 8.73276 9.65692)
(346.129 -4.2148 9.53903)
(395.548 -2.06249 -1.13773)
(390.85 -5.24646 2.86854)
(385.032 -8.87447 -1.39531)
(395.523 -0.00741142 -0.603927)
(313.035 7.02594 0.54736)
(366.096 -2.19185 -5.90562)
(416.203 0.00276493 0.11931)
(378.214 0.319744 -0.537334)
(401.776 -7.3585 41.8766)
(364.961 3.64067 2.16151)
(396.597 6.0637 1.72714)
(364.017 -0.558327 -0.208002)
(398.789 0.00278844 0.0720528)
(399.798 -1.2551 2.20743)
(332.117 -1.4215 -13.8251)
(390.68 -10.316 -11.6626)
(403.682 -2.9245 13.3207)
(379.698 -13.4887 -15.6581)
(399.76 1.88147 -1.79557)
(395.151 -7.83278 6.16716)
(391.287 4.21661 -5.21773)
(406.675 -5.3366 -4.79276)
(401.752 0.064288 -0.702835)
(323.168 5.32849 0.596535)
(385.09 1.16295 6.17214)
(387.1 -0.872619 -6.97759)
(408.637 1.00984 -2.23757)
(401.56 -0.205011 -0.262832)
(388.812 3.56591 -1.70274)
(287.885 7.59964 2.9232)
(411.249 -4.34523 21.1397)
(406.722 5.91639 -1.38708)
(382.402 -0.323665 0.219424)
(344.012 2.6436 -2.8744)
(406.003 0.00031933 -0.0116628)
(406.303 -2.02114 3.16499)
(376.171 -2.2329 20.1423)
(361.919 0.916552 -0.152788)
(397.377 -1.46801 0.475143)
(409.964 -1.04647 12.3507)
(390.312 6.00582 -3.38859)
(387.861 3.0277 4.75196)
(397.539 -5.00846 -6.59796)
(413.547 -0.159032 5.71873)
(375.097 4.91324 -2.81689)
(409.405 0.000283752 0.0130119)
(413.821 -0.0461015 0.0296183)
(329.702 2.13883 -1.03905)
(431.24 30.9196 -0.670589)
(340.161 3.85421 11.9273)
(411.65 -6.02761 -5.98799)
(320.245 21.6213 -5.19053)
(410.944 -1.26987 0.544603)
(406.126 2.8469 -4.60573)
(362.132 -0.472194 -0.491657)
(357.793 2.17333 8.51874)
(325.725 -17.4307 -5.43608)
(411.144 -3.03939 -2.27986)
(377.493 -3.03585 7.79812)
(320.319 3.34674 -9.744)
(386.636 -28.4842 8.98024)
(371.845 1.24626 -0.706599)
(376.486 2.75528 -2.85346)
(414.52 -3.69035 -2.60384)
(365.115 6.76457 -10.7871)
(400.395 -1.45847 4.49353)
(357.813 9.17257 1.60895)
(323.988 9.39738 -3.74278)
(402.539 0.156916 -3.21395)
(405.768 -2.03865 -2.02163)
(375.344 -2.74463 0.571311)
(418.122 0.00214942 0.0708519)
(409.326 -3.96427 -2.77992)
(382.94 -1.1441 -1.52405)
(329.441 -7.16816 1.73319)
(418.789 1.00462 -9.62816)
(416.76 9.87734 -5.74417)
(407.721 -2.23501 0.428038)
(411.1 -2.05783 1.08096)
(373.499 19.4856 13.2727)
(416.883 0.000911114 0.0385704)
(390.71 3.8564 -1.616)
(385.411 2.14742 -25.8402)
(418.356 4.11929 0.12583)
(403.809 -1.08871 1.95574)
(418.129 0.334069 -0.527872)
(376.226 23.599 -0.576046)
(419.927 -2.83098 6.17419)
(420.7 0.0022039 0.147473)
(407.883 -0.2677 -2.05142)
(417.065 1.85948 1.09554)
(396.362 8.17704 1.63864)
(406.441 0.115512 5.84928)
(333.621 19.9395 13.7302)
(381.818 1.69824 -10.8968)
(419.438 -3.91212 1.46589)
(419.859 -3.83881 -0.692403)
(387.193 -9.56157 -3.07253)
(402.268 -5.25926 -1.50524)
(422.077 0.030152 -1.11472)
(403.295 -4.62307 2.56208)
(402.085 4.98578 3.69749)
(424.492 0.00131129 -0.0700148)
(407.718 12.0901 8.72869)
(436.125 4.51388 2.90951)
(421.676 7.99928 -7.29702)
(423.633 0.00128809 -0.0618132)
(417.175 3.54558 -5.40663)
(419.512 -4.67572 -1.91139)
(415.599 -4.76726 3.66567)
(406.422 -3.72043 0.980439)
(416.984 1.89628 16.087)
(411.867 2.4333 -1.28468)
(367.94 -1.67015 -0.896893)
(429.238 -4.13345 3.04515)
(360.74 -1.18154 1.21103)
(425.053 1.00414 -1.32744)
(398.311 3.63519 5.93346)
(403.314 -7.5347 9.55329)
(406.108 -2.64633 3.87854)
(395.263 -7.82652 -11.7473)
(341.527 -5.2314 7.78178)
(393.685 -2.58803 -1.37418)
(419.841 10.9366 5.36283)
(380.016 2.86661 -18.6558)
(336.344 9.88189 -1.90372)
(428.135 -1.22803 -1.38598)
(301.011 27.1894 -3.84281)
(428.164 1.86861 7.67192)
(433.613 0.517662 -4.16196)
(428.69 7.25462 1.09159)
(391.527 -10.4259 -5.56287)
(410.115 2.87178 1.13442)
(431.595 0.000140903 0.00659107)
(378.57 10.3741 -19.0739)
(428.196 0.00168947 0.0530918)
(449.952 -13.0866 -9.56054)
(349.308 7.18001 -7.88865)
(404.211 -1.21796 0.0349128)
(393.245 -6.85602 5.28459)
(385.683 1.09177 0.218418)
(413.331 -1.28871 0.595809)
(362.006 7.73077 -1.42209)
(428.667 -15.6102 -14.4747)
(372.706 15.3499 -1.15594)
(432.401 0.00123324 0.0557971)
(423.29 -2.36881 0.433292)
(438.255 3.93375 1.42844)
(405.394 11.1263 -2.45429)
(433.442 -0.385573 -8.17168)
(418.579 -3.51293 2.39948)
(362.131 0.891822 1.48058)
(385.019 -6.31958 -12.1109)
(435.991 -0.705186 -0.732775)
(397.102 -1.11854 -5.89173)
(414.135 -8.98944 -3.19899)
(440.299 0.00222893 0.123084)
(425.403 -0.674253 -0.160422)
(403.291 -0.133178 1.83202)
(409.952 7.3361 -1.74372)
(396.847 -3.10584 1.27975)
(319.957 24.457 19.9232)
(423.078 -2.5092 -2.63906)
(371.999 -3.66535 -1.74935)
(393.283 8.35396 -0.519754)
(444.77 0.00451012 -0.136635)
(343.631 2.87065 10.7197)
(452.717 -42.707 -22.9415)
(386.719 -0.330773 0.751681)
(436.801 -0.463256 -0.121793)
(416.186 -0.483513 -0.0178035)
(434.843 3.62549 -1.15539)
(414.235 -5.14775 5.45264)
(434.366 1.23192 6.72804)
(439.666 8.56986e-05 0.00355191)
(394.655 3.20636 7.85988)
(327.586 -1.96636 -6.71802)
(411.683 1.96434 -10.3028)
(422.661 -6.92607 1.54793)
(323.498 16.3909 3.74585)
(414.109 -0.41674 0.0443416)
(414.292 -1.8065 8.31645)
(437.609 -3.67397 1.46394)
(422.565 -2.95102 28.5546)
(414.309 -0.299387 -0.599657)
(434.114 -0.212901 -7.03039)
(395.205 25.8175 -3.76355)
(412.56 -3.74925 7.67439)
(416.574 -0.396 -5.55196)
(399.541 3.85017 -4.31178)
(379.11 0.290866 -0.182282)
(422.826 0.92638 -2.13471)
(443.022 -6.25469 -1.39704)
(361.91 5.95681 -5.90376)
(385.462 2.59613 -13.9242)
(418.908 -5.57213 -4.02238)
(440.377 -0.597329 0.156584)
(356.607 2.01002 2.28106)
(312.967 8.02261 -20.2979)
(385.191 4.52238 2.08857)
(417.722 -9.15903 -3.58514)
(438.931 1.14695 -11.1971)
(414.061 -16.4625 3.46598)
(438.262 -0.00115325 -0.377839)
(415.589 -0.527758 -0.0215413)
(417.659 -2.14766 4.36396)
(437.708 -10.2896 -4.81512)
(413.51 -4.55363 2.23472)
(365.758 3.38286 -0.713055)
(393.396 3.09386 -0.796853)
(401.204 -1.1149 -0.600238)
(444.598 0.00159768 -0.0898827)
(303.16 11.7273 -6.66371)
(428.952 -12.7301 2.66338)
(329.865 13.9054 4.70088)
(413.596 2.20177 2.32521)
(423.672 -7.80801 -0.327846)
(421.904 2.47209 -1.20707)
(435.574 3.10546 -1.06471)
(443.44 -6.45844 -9.4212)
(433.112 -5.22178 -3.29785)
(434.141 -1.3297 -0.235575)
(443.938 -0.684584 -0.163831)
(369.711 -2.86852 -2.82421)
(363.506 7.71014 9.15789)
(427.448 -3.14045 14)
(399.947 3.10126 -0.444091)
(416.933 -3.33725 -1.21732)
(422.861 -8.23424 10.2363)
(444.13 0.667655 -0.418058)
(440.681 2.01566 3.13046)
(442.411 -16.5711 -6.12969)
(388.298 -3.3699 -11.9155)
(382.545 3.70668 5.56323)
(437.438 -7.6689 5.64037)
(323.314 16.0551 6.3177)
(409.129 -0.319328 0.0980289)
(431.77 -0.400253 -0.191704)
(374.49 5.16155 10.6039)
(431.873 -20.4294 -9.63963)
(411.314 0.462865 -3.27821)
(425.99 -0.819189 -4.95876)
(415.033 -4.02298 17.1508)
(368.274 -8.42047 -7.28713)
(417.824 -3.4796 -1.3488)
(420.035 7.42109 0.656393)
(441.477 -1.74341 -7.52609)
(421.682 -1.67337 7.63959)
(353.222 -0.311813 2.1099)
(415.6 -0.698228 -4.77474)
(398.02 -0.69636 -0.0454555)
(433.754 -1.76017 1.40049)
(432.831 -0.560124 -0.539284)
(351.121 0.489447 1.90174)
(441.588 0.00132184 -0.038569)
(439.518 -0.979691 -0.567563)
(433.059 -1.16083 3.57751)
(449.18 -6.73233 1.77188)
(437.622 -3.40668 -13.5735)
(283.592 3.88559 13.1902)
(321.728 -15.846 4.14937)
(311.147 8.48015 -11.5846)
(284.727 0.763171 -4.56575)
(309.024 4.92189 4.95713)
(318.884 2.49988 0.329664)
(292.79 12.5183 -31.2912)
(316.497 3.67062 -17.0955)
(304.017 13.7049 5.4383)
(321.201 1.13216 -2.22102)
(333.671 1.24584 0.67592)
(320.875 0.327765 2.38907)
(335.436 0.00500339 0.0620649)
(317.401 -9.40459 -31.1531)
(328.132 0.24823 -17.0562)
(334.517 -0.0205338 0.0197161)
(337.619 1.10727 0.191055)
(329.062 7.90526 2.89461)
(331.799 1.05107 -1.35004)
(339.444 0.00060094 -0.0354503)
(336.436 19.1985 -12.3821)
(335.73 -0.456399 -0.284699)
(361.789 -7.20267 -5.21148)
(337.192 -1.11378 1.64034)
(331.637 13.8198 7.94581)
(323.005 8.77012 -8.36088)
(340.395 -0.685306 2.5524)
(290.387 13.085 -18.809)
(331.92 4.57175 17.4092)
(325.32 15.8637 -11.5922)
(336.254 2.72755 1.9555)
(339.694 -0.761524 -1.03212)
(323.711 14.6906 0.901641)
(335.24 -0.00365066 0.600224)
(342.063 0.169482 -12.6544)
(331.465 -0.553111 -1.33328)
(318.85 17.4379 17.183)
(341.401 2.45334 3.12108)
(331.624 1.01573 -0.220938)
(334.584 -2.54153 -8.29566)
(332.118 -0.63433 -0.194086)
(312.62 5.54504 -5.45432)
(319.503 4.50524 -14.0928)
(343.992 2.2535 -2.96514)
(341.162 -0.0793413 -0.0190686)
(335.435 0.000995619 -0.173395)
(342.358 14.6072 -2.75465)
(334.545 8.80964 -9.93601)
(342.282 -4.70795e-05 0.00634744)
(335.428 4.64233 -1.02839)
(337.474 1.17932 -0.500337)
(324.387 3.07777 -1.3467)
(335.111 -2.1232 0.575113)
(347.416 -4.62475 1.2851)
(321.814 17.3106 6.0387)
(338.023 -3.32756 2.8637)
(339.659 0.76544 -22.6856)
(334.889 -0.000189863 -0.200876)
(343.962 -0.0432652 -1.11704)
(314.423 7.46493 30.0617)
(357.253 16.7021 13.3168)
(340.527 0.0274429 -8.32952)
(284.98 8.76589 -3.37098)
(299.58 11.5556 12.9816)
(350.385 7.87635 8.79197)
(342.067 -1.29783 -3.36293)
(321.016 9.36317 0.872706)
(350.913 1.11649 -0.547842)
(344.328 0.740734 3.84216)
(314.651 7.05612 0.0465573)
(320.703 3.32351 1.17482)
(347.909 -2.69386 5.2103)
(343.626 1.85781 4.63719)
(353.454 -1.30193 4.50006)
(316.482 16.5483 -0.957933)
(347.616 0.324018 0.80314)
(344.85 -2.86672 -1.67645)
(320.849 -4.26791 -1.67102)
(338.811 8.78607 -1.73371)
(344.821 -20.4819 18.7242)
(353.859 -0.000555011 -0.0468536)
(346.884 0.0922461 0.0539125)
(348.225 3.63753 -4.21047)
(334.579 8.53038 -7.18883)
(329.014 5.94157 8.00925)
(340.484 21.0518 7.75852)
(325.389 2.52546 1.05122)
(347.171 0.0228864 0.695858)
(345.869 0.000667199 0.0389233)
(337.509 7.54249 4.41032)
(351.131 -0.104864 0.164312)
(346.482 -1.08907 -0.363916)
(321.103 14.6386 -5.369)
(304.018 0.624731 -1.74891)
(322.021 -26.0371 36.1328)
(319.657 -3.46811 -12.5736)
(321.261 11.8257 -2.45927)
(350.439 0.00166722 0.0211927)
(302.887 -0.319667 1.61827)
(356.11 14.1613 41.8225)
(347.156 0.0140642 0.0925264)
(317.424 17.4624 14.6561)
(329.641 17.2198 -13.433)
(351.048 -0.00029079 -0.0509211)
(320.175 1.1011 -14.0921)
(310.248 -12.6154 14.5866)
(349.9 3.54024 -0.677647)
(343.194 7.55056 1.50747)
(348.171 -0.000102867 0.0285056)
(338.523 2.89531 2.41075)
(359.419 -2.14653 -8.18408)
(344.686 -0.00633088 0.0771588)
(320.572 -4.19289 -1.87971)
(350.321 -0.0105391 -0.024677)
(354.623 0.00144133 -0.071856)
(306.56 4.67793 -7.08711)
(301.08 8.16809 -6.2535)
(327.134 -12.4165 -10.0483)
(315.904 6.57187 -6.54719)
(349.967 6.397 -2.94946)
(296.651 -2.17756 -1.81636)
(293.997 -3.70546 -4.0214)
(359.049 2.73648 -10.9923)
(351.068 0.0632678 -0.00712457)
(331.258 5.54412 7.34161)
(356.097 -0.00490816 -0.199695)
(347.945 -2.56853 -7.06449)
(340.412 -0.00110448 0.075743)
(354.048 -19.5962 -28.1498)
(322.724 12.1936 3.0645)
(314.877 6.15972 -7.90917)
(346.053 -1.35195 -11.2787)
(322.647 6.50069 -12.8563)
(338.587 8.51191 -5.14928)
(336.003 -7.89565 -27.2937)
(355.987 0.0013039 0.0569034)
(333.677 -21.7653 7.2003)
(341.332 -2.04305 -2.38755)
(355.389 -0.264832 0.586097)
(349.253 0.101265 -2.81673)
(358.364 0.00163108 0.0770634)
(334.041 3.26045 3.44567)
(350.324 0.0702736 0.131685)
(355.044 -0.00016212 -0.0673418)
(339.147 0.172979 1.92351)
(355.041 -0.0532252 -0.0118772)
(282.539 -8.91632 -14.1266)
(336.986 -1.29915 -6.34651)
(366.989 -0.000446367 0.0423103)
(358.629 2.31564 -6.67978)
(313.148 -1.99152 1.07583)
(348.924 -1.97707 12.6555)
(345.85 3.74065 -1.17537)
(353.732 1.64177 7.83621)
(352.345 -0.204912 -0.0505431)
(350.923 -0.138426 -0.172636)
(353.982 0.000252071 -0.0180261)
(349.71 -0.858751 0.296538)
(373.062 0.00010322 -0.016518)
(342.853 4.84231 8.61828)
(345.562 1.26373 0.168939)
(359.998 -11.6473 -6.61828)
(347.58 8.38573 2.34323)
(288.441 24.1195 -32.5736)
(353.775 7.31954 -8.00184)
(341.864 5.28898 -13.1454)
(351.554 6.27344 -2.61826)
(358.518 0.000532655 -0.00847662)
(357.708 0.000248543 0.0607634)
(346.521 -1.63823 10.1912)
(363.077 2.01914 7.18209)
(351.746 -0.102173 0.149471)
(314.368 -5.07529 5.97983)
(309.872 20.7473 -24.1818)
(351.118 -0.288543 0.984252)
(358.298 1.5526 1.07417)
(337.406 -1.47992 -4.95052)
(346.531 -0.018464 -5.03894)
(358.507 1.48841 8.53489)
(351.367 -5.06314 -3.64647)
(360.657 31.3991 4.48557)
(362.285 -7.37203 -36.0851)
(294.465 -5.68488 -1.63734)
(350.881 13.7506 -18.7089)
(345.125 0.917173 -1.2309)
(317.463 0.408077 0.510627)
(360.714 0.476186 1.37582)
(354.674 -4.38273 -2.02921)
(361.956 2.64922 -3.11985)