/*--------------------------------*- C++ -*----------------------------------*\
  =========                 |
  \\      /  F ield         | OpenFOAM: The Open Source CFD Toolbox
   \\    /   O peration     | Website:  https://openfoam.org
    \\  /    A nd           | Version:  7
     \\/     M anipulation  |
\*---------------------------------------------------------------------------*/
FoamFile
{
    version     2.0;
    format      ascii;
    class       vectorField;
    location    "0.135/lagrangian/reactingCloud1";
    object      UTurb;
}
// * * * * * * * * * * * * * * * * * * * * * * * * * * * * * * * * * * * * * //


1201
(
(2.54706 12.4732 -0.30596)
(3.5201 10.6771 -2.04384)
(4.45034 -0.797977 2.77873)
(5.67476 3.20082 11.6269)
(1.74154 -6.72914 -3.84012)
(-7.50429 3.62676 8.48575)
(-3.32015 -7.86633 -4.2484)
(2.49018 -3.73604 21.7892)
(0.686751 0.387432 1.49729)
(0.752592 -0.760502 -0.990828)
(0 0 0)
(7.54906 -1.96286 23.0695)
(10.895 -8.05554 -5.91527)
(7.21941 11.6112 -11.2832)
(2.06526 -0.214675 1.00337)
(-1.72551 1.42315 1.41367)
(0 0 0)
(-2.52891 0.0174802 -4.99546)
(-0.728483 -1.18207 3.24852)
(0.452092 -2.07257 -0.953854)
(-0.2767 0.187655 -0.569042)
(-13.7971 -7.67109 -2.55423)
(-2.31749 -4.46203 5.9412)
(-5.6155 -2.49557 -1.58383)
(-3.90137 -4.43277 5.37729)
(0 0 0)
(0 0 0)
(4.86167 -7.0498 -1.63121)
(0.498913 -0.569318 0.309854)
(0.940158 -1.74903 1.52874)
(2.2338 -0.645788 2.76046)
(1.93243 -0.38963 0.184388)
(4.57361 0.179745 -7.05417)
(0 0 0)
(0 0 0)
(-1.33746 -2.96522 -6.41775)
(0 0 0)
(-1.45809 -2.55882 -0.471583)
(-10.16 -7.79186 -0.0690606)
(0 0 0)
(0 0 0)
(-1.17854 -3.87731 -0.345605)
(0.561338 -7.88535 -1.6234)
(-2.41249 -1.13501 5.93527)
(-2.27662 -1.30216 0.981467)
(0.750201 -18.8765 -6.95116)
(-0.062995 -0.0237189 -0.0353194)
(0 0 0)
(1.70184 3.2009 4.11914)
(-0.276815 -2.70521 -0.512213)
(-11.8478 -11.3891 3.78354)
(7.22726 2.01171 -8.54536)
(0 0 0)
(0.456421 -6.06816 -1.45463)
(0.485467 -5.00888 -2.03654)
(0 0 0)
(-1.82876 0.867859 -3.39597)
(-0.24353 2.47683 1.18464)
(5.12592 1.43434 -4.14265)
(-5.76472 -2.30961 2.06888)
(3.3288 -0.511828 1.00097)
(4.5505 -0.452202 -3.72622)
(0 0 0)
(-3.81362 6.13291 4.15802)
(0 0 0)
(-0.995573 0.540961 1.24058)
(0 0 0)
(-1.10728 -0.663213 -1.0916)
(11.3795 11.2661 8.90214)
(0 0 0)
(0 0 0)
(15.6045 -8.92955 -19.3008)
(0 0 0)
(0 0 0)
(0 0 0)
(0 0 0)
(0 0 0)
(7.87213 1.92058 18.4251)
(0 0 0)
(0 0 0)
(2.19853 6.49271 -8.04013)
(0.0496199 -0.0363715 0.043443)
(5.25374 -4.26179 -7.64307)
(0 0 0)
(0 0 0)
(2.23008 -9.28776 -5.29528)
(0 0 0)
(0 0 0)
(0 0 0)
(0 0 0)
(0 0 0)
(0 0 0)
(-1.50746 -7.29795 -5.40238)
(0 0 0)
(0 0 0)
(0 0 0)
(0 0 0)
(0 0 0)
(0 0 0)
(-3.37007 -0.154264 3.3883)
(0 0 0)
(0 0 0)
(0 0 0)
(0.936476 1.66156 1.27316)
(0 0 0)
(0 0 0)
(0 0 0)
(0 0 0)
(0 0 0)
(-1.47942 11.1262 -6.2524)
(0 0 0)
(3.34426 8.77351 -2.19573)
(0 0 0)
(0 0 0)
(0 0 0)
(0 0 0)
(0 0 0)
(0 0 0)
(0 0 0)
(0 0 0)
(0 0 0)
(0 0 0)
(0 0 0)
(0 0 0)
(0 0 0)
(0 0 0)
(0 0 0)
(0 0 0)
(0 0 0)
(0 0 0)
(0 0 0)
(0 0 0)
(0 0 0)
(0 0 0)
(0 0 0)
(0 0 0)
(0 0 0)
(-2.06777 -14.9489 11.8904)
(-1.51804 3.18602 -3.46509)
(0 0 0)
(0 0 0)
(0 0 0)
(-9.17751 7.53331 7.39158)
(-4.45212 -11.7076 -11.9954)
(0 0 0)
(0 0 0)
(0 0 0)
(0.407838 -2.68789 2.83585)
(0 0 0)
(-1.14319 -2.0547 0.634188)
(0 0 0)
(0 0 0)
(0 0 0)
(0 0 0)
(-0.280727 -3.04514 1.99828)
(0 0 0)
(0 0 0)
(0 0 0)
(0 0 0)
(0 0 0)
(0 0 0)
(0 0 0)
(0 0 0)
(-0.323156 -3.20172 -3.57601)
(0 0 0)
(0 0 0)
(0 0 0)
(11.9702 4.77051 -0.698604)
(0.536661 -6.32991 -10.1879)
(0 0 0)
(0 0 0)
(0 0 0)
(0 0 0)
(0 0 0)
(0 0 0)
(-5.16029 -1.90718 14.2123)
(0 0 0)
(0 0 0)
(0.244732 -0.0288491 0.00793811)
(-7.53487 0.410886 6.39757)
(-5.50917 -14.9295 -4.07688)
(0 0 0)
(0 0 0)
(0 0 0)
(0 0 0)
(-1.66017 -2.1144 -4.33624)
(0 0 0)
(0 0 0)
(0 0 0)
(0.979571 -6.28084 -4.10768)
(0 0 0)
(0 0 0)
(0 0 0)
(0.512322 -0.0214351 0.00212656)
(0 0 0)
(-2.6571 0.706086 0.591215)
(1.57061 -4.94761 2.32041)
(0 0 0)
(-2.88945 0.261599 -0.416892)
(0 0 0)
(0 0 0)
(0 0 0)
(0 0 0)
(0 0 0)
(0 0 0)
(0 0 0)
(0 0 0)
(-0.136876 0.369897 0.139069)
(1.79363 3.39957 -10.121)
(0.392173 0.540949 0.92176)
(0 0 0)
(0 0 0)
(0 0 0)
(11.5915 3.92142 -4.87103)
(0 0 0)
(0 0 0)
(0 0 0)
(0 0 0)
(0.239525 -12.251 -22.0853)
(-2.20529 -6.32453 -0.728626)
(0 0 0)
(12.0551 4.40343 4.2602)
(0 0 0)
(0 0 0)
(0.137089 0.0176195 -0.0560737)
(0 0 0)
(0 0 0)
(0 0 0)
(-0.343712 -0.826335 0.45673)
(0 0 0)
(-24.3234 -2.99377 -4.82467)
(0 0 0)
(0 0 0)
(-2.88297 -4.50674 0.674425)
(0 0 0)
(0 0 0)
(-0.325022 0.264813 1.3693)
(1.07188 0.424 -1.14943)
(0 0 0)
(0 0 0)
(0 0 0)
(0 0 0)
(0 0 0)
(0 0 0)
(-7.86378 9.30971 7.14351)
(-13.5362 -6.56776 -5.32331)
(3.06324 -1.41763 2.25039)
(0.564798 -1.00113 -2.95214)
(-0.473321 -0.287759 -0.215553)
(8.92567 0.753977 -8.17566)
(-5.13379 4.41417 1.59939)
(0 0 0)
(-0.701858 -0.354768 0.539531)
(12.4259 16.7561 -12.5592)
(0 0 0)
(-0.388442 -4.09598 -13.8104)
(1.62775 0.817794 2.89391)
(-1.34103 3.1991 -3.13951)
(5.89415 -2.11072 -2.00327)
(3.11575 -14.3991 -8.44255)
(0.230532 -0.927312 0.798192)
(-11.7288 -5.88927 12.6825)
(2.43513 -1.42558 0.0854387)
(16.9042 -5.00203 -0.820222)
(0 0 0)
(3.35161 -2.13427 1.25129)
(3.47299 -7.24321 1.92289)
(1.7419 -1.18028 -5.97209)
(1.17103 0.538191 -1.09127)
(-15.2567 -7.83008 -9.39243)
(0 0 0)
(-25.5636 -1.56266 -1.7345)
(0 0 0)
(1.74111 -3.88628 -1.82796)
(8.37038 -0.177892 -2.1671)
(-0.226996 -3.30197 6.81637)
(0 0 0)
(0 0 0)
(0 0 0)
(-1.54173 -3.12648 -0.062148)
(1.57104 -1.37334 0.829498)
(0 0 0)
(0 0 0)
(-5.29024 -6.44231 7.35009)
(0 0 0)
(0 0 0)
(0 0 0)
(-0.294531 -0.83544 4.21325)
(0 0 0)
(0 0 0)
(-1.5562 8.44923 -1.9305)
(0 0 0)
(-8.65979 -6.49936 -19.8519)
(0 0 0)
(-0.605673 0.552497 -0.617659)
(-11.0126 9.92971 -1.59788)
(-2.51579 5.12852 -7.59682)
(10.7156 13.3483 24.9668)
(0.612456 6.44835 8.17359)
(11.5435 14.9081 6.12281)
(-0.00910438 -0.335505 -0.136449)
(0.0782859 -0.197923 -1.30763)
(0.783078 -11.7679 2.9216)
(-0.0286903 0.0658064 -0.00714068)
(-2.66099 27.7945 1.89895)
(-11.3083 9.50148 1.5765)
(-3.14325 13.4504 -4.88632)
(1.37682 -2.56138 2.23878)
(-2.85622 -1.63367 1.23133)
(0.00673931 0.00490606 0.00646439)
(1.61496 5.8092 0.534883)
(-13.1401 -2.28989 -8.79341)
(-11.6178 -17.8004 12.3758)
(21.9037 3.27645 9.77867)
(-1.43029 1.33767 4.17526)
(-5.6492 10.4975 -2.78267)
(-12.2117 -2.17248 7.09276)
(1.12585 0.324756 0.246333)
(4.6002 -6.08139 2.32817)
(-0.680581 -0.970652 0.496181)
(2.18154 -3.27976 -3.4075)
(1.0416 -0.694752 1.16657)
(1.53858 2.59376 -3.8867)
(-6.33739 -0.969168 -0.797939)
(5.65533 8.57049 -1.27629)
(5.27004 4.87771 -1.07466)
(1.63628 1.99766 -3.8998)
(12.7065 -4.1133 10.9401)
(1.82841 2.2176 -0.480824)
(0.0677681 -0.530272 -0.37194)
(-13.9289 4.30227 10.8329)
(2.24205 -9.33676 5.22793)
(0.677933 1.3629 7.26025)
(-8.53871 -24.1857 4.11039)
(0.0833542 8.54759 2.02187)
(2.64037 -0.0386148 -0.658084)
(1.74268 5.64329 0.761732)
(-0.339503 -0.921983 -2.28959)
(-4.20314 -6.69612 8.29857)
(-6.46267 -4.71998 -1.37241)
(-7.183 21.5842 -1.02055)
(-1.34792 0.393317 1.59503)
(4.99361 0.975376 7.60624)
(-13.4228 -6.1403 8.59505)
(0.268186 2.27641 1.78159)
(-0.893311 -7.51272 5.45602)
(4.0856 7.75557 -6.8124)
(-1.36142 -7.97554 7.31607)
(-1.04912 -0.904605 -1.196)
(3.77282 -5.92335 -2.76228)
(3.96537 -0.233323 -0.7221)
(0.00517245 -0.0147053 0.00393177)
(0.395995 1.21868 -1.07042)
(-0.00850455 0.0065037 -0.00989504)
(-1.04811 9.77985 -1.40317)
(-19.2345 1.10214 3.38783)
(20.4786 -18.3605 -3.9879)
(0.181779 -9.6596 3.11052)
(-13.9498 -8.30359 -0.465559)
(-0.855828 3.06723 -3.8876)
(2.42227 6.13045 -4.7468)
(-0.933026 -2.4914 -0.56977)
(-1.23879 1.15664 2.81284)
(1.65699 -1.60665 -1.39705)
(3.50047 -1.32159 -2.51266)
(-11.4893 -8.21236 -4.46185)
(-4.70085 -8.85026 4.4847)
(-2.14168 1.51213 5.63296)
(-15.3754 6.6627 -7.80057)
(0.431671 -1.38977 2.38222)
(0.907822 -1.83062 1.23388)
(-0.705657 0.671065 -0.986764)
(-3.09629 -2.35981 -1.79432)
(1.74244 -3.31129 -3.22324)
(-0.17159 0.759516 -0.364141)
(-4.41766 1.84978 1.09068)
(1.57166 5.21189 -3.76475)
(-1.93909 -1.50937 -1.11982)
(9.53469 20.0092 -0.47911)
(-0.610537 3.33293 -1.18915)
(1.83034 -2.53616 3.30767)
(8.20528 10.0799 0.284674)
(6.76368 2.2418 -12.2941)
(2.23539 7.58782 -6.01986)
(-1.9022 -5.94853 22.5434)
(-0.481004 0.437936 -1.96934)
(-7.87313 -2.25809 5.18462)
(-8.5061 1.16562 3.57525)
(-3.86066 -1.51479 -2.25369)
(0.878701 16.2254 -1.17934)
(-0.0387557 -4.21047 -2.53716)
(1.6826 2.04289 -2.03539)
(-0.48706 9.25071 2.52051)
(-1.18886 0.995488 4.34252)
(-5.89005 -3.02909 0.497177)
(1.77198 -7.60201 -2.93349)
(8.55623 -0.176525 4.6428)
(2.60292 0.787069 -4.03295)
(8.10343 -0.763476 -1.1789)
(1.68434 -9.15297 1.09553)
(8.90026 -2.6729 -5.77553)
(8.5249 -4.87031 -24.5907)
(-8.11304 0.473929 5.70606)
(-7.77809 2.02299 -0.907552)
(0 0 0)
(2.5637 2.95205 0.951797)
(-1.40556 4.89496 0.550829)
(9.7184 13.9344 9.49704)
(-3.12138 -7.10671 -1.45868)
(4.45789 -1.91585 1.52173)
(16.962 -15.2076 -3.30309)
(-3.99577 0.103395 -1.52627)
(-1.04799 -0.85133 -1.00414)
(9.32139 7.53612 3.47219)
(7.14611 14.6479 3.41636)
(1.99038 -8.47724 8.51481)
(-2.60546 0.0327141 -6.94094)
(-4.86636 -3.00965 2.51847)
(-0.463162 -1.61858 0.428468)
(-10.4614 11.5654 -11.3064)
(-9.5718 9.27559 -16.0061)
(-7.80062 -5.76234 2.01787)
(-1.44015 -0.77495 -0.482538)
(4.32287 -16.7749 -17.878)
(-7.55182 -10.0833 0.277287)
(3.24055 0.727301 -5.47516)
(7.81439 17.6491 11.7341)
(-8.85244 18.1883 -12.3673)
(-7.79699 -14.2133 20.5419)
(-0.982139 -8.20453 -3.41905)
(-4.33774 -5.73531 2.17779)
(0.156734 -0.0799277 -0.150359)
(-3.6625 3.31974 -0.374325)
(1.22567 2.59366 3.41255)
(0.683019 -2.22894 -3.15734)
(1.02672 3.49432 2.26563)
(-2.47797 12.4153 -2.27661)
(2.39098 -10.2576 -3.95824)
(8.0605 -1.72455 9.54302)
(-1.40696 6.20114 2.31347)
(8.53903 -9.13434 -8.83166)
(4.02098 3.09386 4.27412)
(-4.89795 -6.15667 -1.0141)
(-0.903448 -4.08534 -1.34322)
(-9.95212 2.9799 -14.2515)
(15.4272 -18.577 5.82829)
(2.00779 -4.5138 -4.69216)
(-13.0258 0.322182 10.9374)
(-2.2823 -11.6358 11.9773)
(-2.11069 -5.76451 4.75032)
(2.74279 -1.36565 -5.49799)
(2.58755 -11.0206 11.0695)
(-3.68896 -1.50254 0.454712)
(-9.56624 -1.43087 8.53566)
(12.4906 -3.75115 -8.10538)
(-6.71745 9.58121 -1.68721)
(-1.12137 0.0317002 -1.07714)
(-1.5277 -0.966303 -3.64581)
(2.03724 -13.9061 -5.6277)
(2.5598 -16.7868 -8.6485)
(2.68781 -17.7836 -0.875364)
(-3.33802 1.60372 0.325015)
(0.661019 -2.4121 6.58557)
(0 0 0)
(14.6487 13.6401 -3.3286)
(0.0306459 -2.97313 -1.40341)
(7.66104 -3.12436 -2.60766)
(2.6529 2.67109 5.35097)
(0.116003 0.0213352 0.224891)
(-3.56555 -11.3904 7.19549)
(-0.917025 2.94686 8.69318)
(-0.0832536 -3.55471 -1.22761)
(1.98476 6.7549 4.37971)
(2.82494 0.396374 -0.0988791)
(-2.57484 -1.98802 -0.201128)
(-15.1671 13.2944 8.98427)
(4.09219 6.75728 1.80676)
(-1.37037 -0.268399 -0.84138)
(-0.287755 -0.552541 0.0297232)
(-4.69683 -7.00117 -2.67118)
(12.1467 17.3669 14.4075)
(-11.509 -7.59774 -9.13706)
(7.72747 6.59498 -1.44209)
(0.238264 -12.6612 4.07708)
(14.3119 16.968 5.88153)
(2.76139 5.62235 -1.5504)
(-0.0148776 -0.00570369 -0.00482774)
(8.00957 -8.56797 -8.28406)
(0 0 0)
(-2.33231 -6.39238 10.1578)
(1.31927 0.441841 -3.4958)
(16.8913 -36.7863 -20.0214)
(0.184411 -4.09516 -1.77574)
(-0.515989 -4.16739 -12.0768)
(-7.04733 11.2899 0.821376)
(0.289178 -6.90742 -3.27872)
(2.67588 -1.89246 0.53701)
(-0.798199 2.53744 -1.09799)
(0 0 0)
(-1.43513 -8.40733 7.71216)
(6.42359 0.115865 6.62415)
(14.4205 8.48399 -0.491949)
(1.44952 0.758685 0.864985)
(-0.0285124 0.0793095 0.0436559)
(3.72287 -3.79582 2.25412)
(6.74194 -12.5046 3.67443)
(0 0 0)
(0 0 0)
(-2.60378 -8.318 5.25459)
(-2.90872 0.483932 -2.16371)
(0 0 0)
(3.33893 -4.82391 -4.39839)
(1.54683 -1.1082 2.21996)
(4.84009 -1.17007 -1.85721)
(8.17686 -5.76762 4.90439)
(-0.0154487 -0.00870359 0.00832914)
(-0.278723 -3.79864 -2.97907)
(0.268045 8.13222 9.12662)
(-7.94208 1.80829 7.06814)
(2.94705 -19.4988 -0.959794)
(0 0 0)
(9.55567 8.79939 -1.82758)
(-10.0162 -6.61225 -7.95192)
(2.58234 0.657183 -16.3405)
(-2.91901 -14.8819 15.3187)
(-0.470588 -3.80071 -11.0142)
(1.11697 -0.245697 -0.308254)
(0.301448 -2.9933 1.95038)
(-5.09065 -10.9761 7.9171)
(0 0 0)
(0 0 0)
(-4.65246 -8.4811 12.2573)
(0.0977673 -3.329 3.88669)
(-1.14937 5.7926 3.34397)
(11.1311 -4.53953 -3.78879)
(-0.998068 -0.125618 -10.6027)
(-3.5798 15.3184 -5.56494)
(13.1506 2.62779 -9.96378)
(12.1978 -26.5646 -14.4582)
(0.582299 0.965539 -1.59834)
(-1.58721 -2.49308 2.10578)
(0 0 0)
(-0.213261 27.448 0.578063)
(4.78451 6.87911 -1.33326)
(0.715633 -0.655759 0.603766)
(-1.21442 -10.4995 -0.920478)
(0.558977 -13.3519 -6.33772)
(0 0 0)
(-8.77031 5.22421 -1.83687)
(0 0 0)
(0 0 0)
(2.00101 0.950288 -3.22757)
(-6.04937 -13.8625 2.4606)
(-5.49473 -11.2033 -5.25858)
(0.0367746 -0.34479 -0.222561)
(18.0696 30.9053 -7.58588)
(1.1042 22.8676 -11.3484)
(-11.8709 26.2724 -8.88091)
(-1.51033 -3.97387 -1.15634)
(-4.60467 10.8845 -5.65668)
(-2.18742 17.871 13.142)
(18.0501 30.8718 -7.57767)
(6.12181 11.5802 -4.47848)
(-37.4204 25.8114 2.17186)
(-23.5427 -7.05809 -21.8885)
(-0.247811 7.03905 0.0626142)
(-23.865 1.36747 4.20341)
(-3.55858 30.0159 -21.249)
(-1.18531 8.02825 4.90812)
(4.71168 -8.95399 -8.71588)
(-7.48701 6.78633 -0.765208)
(1.90992 4.50147 3.12695)
(-1.6565 -0.797816 -7.91256)
(-9.51291 0.978931 4.4813)
(-7.73043 3.16774 3.80725)
(0.155244 -0.718738 -1.07926)
(-2.46827 -8.12041 -0.723816)
(-25.6123 8.9553 -6.21581)
(1.31596 -7.16643 7.71206)
(-7.98649 0.100278 -21.276)
(7.41802 -3.69347 -14.8696)
(-0.0395357 -0.0222739 0.0213156)
(2.44454 0.888055 -4.20648)
(-2.68609 -7.36203 11.6986)
(-3.25127 5.96677 2.31862)
(15.2816 -3.52445 -9.75158)
(1.24187 -19.7172 0.0317281)
(-4.36773 19.2909 1.48798)
(-0.0466624 -0.0178892 -0.0151418)
(0.361857 1.21624 -1.49975)
(-4.08006 20.4422 -3.74851)
(-10.8054 -5.55694 0.912084)
(1.10093 5.61657 7.76034)
(4.08424 10.5072 -19.361)
(1.04949 -0.821682 2.70697)
(10.7732 8.88005 9.65682)
(-15.942 -3.78114 9.53898)
(-0.0716419 -2.03428 -1.13773)
(-6.54099 -5.19046 2.86855)
(-6.73941 -8.47136 -1.39537)
(-0.359991 -0.0467483 -1.84171)
(1.1476 6.85757 0.547361)
(-7.03995 -1.68201 -5.90566)
(19.9763 -8.14682 -6.79951)
(-0.394519 0.842264 -0.537354)
(4.78588 -7.18029 41.8766)
(-7.16631 4.15349 2.16128)
(3.91173 6.4593 1.72708)
(0.216862 -0.11059 -0.208041)
(-0.0563595 -6.12297 -3.6896)
(1.0646 -1.15009 2.20742)
(-17.164 -1.11541 -13.8254)
(1.06572 -9.80929 -11.6628)
(4.96418 -2.74078 13.3207)
(-19.723 -13.0202 -15.6581)
(0.664267 2.0443 -1.7956)
(-2.74018 -7.48371 6.16704)
(-10.2845 4.45664 -5.21775)
(7.30699 -5.07362 -4.79279)
(0.920828 0.070731 -0.702837)
(-1.52218 5.3011 0.596532)
(-7.42392 1.68161 6.17209)
(-0.571079 -0.325432 -6.97764)
(7.01678 1.02609 -2.23758)
(-0.567162 -0.0100391 -0.262864)
(-14.5937 3.79564 -1.70279)
(2.40252 7.18865 2.92321)
(17.8556 -3.82022 21.1397)
(6.80278 6.29635 -1.38722)
(-4.2851 0.253278 0.219414)
(-2.42829 2.9104 -2.87441)
(0.471654 -0.0299915 -0.203109)
(0.573515 -1.84644 3.165)
(-2.94124 -1.64793 20.1423)
(-0.817605 1.37616 -0.15283)
(-0.651584 -0.929297 0.475041)
(22.7611 -0.469586 12.3506)
(-5.40265 6.57405 -3.38904)
(1.70673 3.61164 4.75192)
(3.90463 -4.42387 -6.598)
(5.54559 0.100029 5.71875)
(6.74834 5.42887 -2.8169)
(0.590767 -0.394046 0.661648)
(4.93249 -4.51327 -0.236078)
(-0.489638 2.1673 -1.03909)
(29.0509 31.4384 -0.670603)
(-1.25818 4.04315 11.9272)
(2.56235 -5.76054 -5.98816)
(22.8428 21.2701 -5.19055)
(0.876897 -1.00064 0.544605)
(-3.6311 3.16593 -4.60576)
(-0.921991 -0.00910607 -0.491688)
(-20.2675 2.77732 8.51874)
(-44.8119 -16.8943 -5.43609)
(2.70418 -2.62204 -2.27998)
(-13.426 -2.3885 7.79804)
(1.08954 3.20625 -9.744)
(0.524805 -27.8878 8.98024)
(1.26426 1.78604 -0.706633)
(0.710248 3.33933 -2.85347)
(6.30308 -3.21473 -2.60388)
(-3.57231 7.28227 -10.7871)
(1.46687 -0.868524 4.49354)
(-11.5407 9.69677 1.60891)
(1.60307 9.29577 -3.74292)
(-0.784994 0.714706 -3.21394)
(-1.77335 -1.52907 -2.02162)
(-0.61755 -2.1581 0.571291)
(2.21543 -3.8341 4.10603)
(-4.79705 -3.65604 -2.77992)
(-2.48237 -0.486194 -1.52413)
(7.49577 -7.27555 1.73309)
(5.69869 1.279 -9.62836)
(1.42234 10.0406 -5.74417)
(-3.24438 -1.74782 0.42797)
(0.795291 -1.60371 1.08093)
(8.83897 19.9632 13.2726)
(0.252518 -0.537939 -1.4544)
(-0.829837 4.53009 -1.61629)
(-2.6146 2.8293 -25.8403)
(3.62948 4.45869 0.125921)
(0.447906 -0.509231 1.95563)
(-0.377494 0.358989 -0.527874)
(11.4725 24.0757 -0.576482)
(8.6858 -2.38041 6.17428)
(1.56169 -0.881055 3.77409)
(-5.37046 0.138967 -2.05137)
(-1.50458 2.08591 1.09554)
(-0.869923 8.86334 1.63855)
(-8.31682 0.485833 5.84939)
(-23.1791 20.3172 13.7302)
(-12.7282 2.40413 -10.8974)
(-2.91977 -3.86049 1.46589)
(-2.14084 -3.75701 -0.692404)
(-0.208381 -8.89733 -3.07268)
(-1.01246 -4.5783 -1.50529)
(-1.1605 0.0328064 -1.11472)
(0.395949 -3.93167 2.56181)
(1.6756 5.7027 3.69749)
(0.265008 -0.967033 2.64021)
(8.93214 12.8071 8.72868)
(11.8998 4.55799 2.90952)
(4.37623 8.30727 -7.29702)
(-1.69983 -4.36409 -3.48771)
(-2.71949 3.78368 -5.4066)
(0.198491 -4.40784 -1.91132)
(0.776616 -4.3384 3.66582)
(-7.95375 -3.23963 0.980403)
(20.7136 2.59997 16.0864)
(-0.933946 2.96898 -1.28473)
(-7.12369 -1.08942 -0.896942)
(8.92066 -3.8338 3.04513)
(-0.415649 -0.742522 1.21086)
(-0.664961 1.10701 -1.32743)
(5.58207 4.29501 5.93349)
(-15.8049 -7.10251 9.55354)
(2.70252 -1.93618 3.87857)
(12.7667 -7.17711 -11.7474)
(27.5443 -5.51163 7.7817)
(1.29123 -1.95026 -1.37422)
(14.396 11.6388 5.36248)
(10.2638 3.40189 -18.6561)
(6.83172 9.82256 -1.90373)
(3.61236 -0.873271 -1.38611)
(-2.87047 26.7841 -3.84285)
(17.1846 2.57054 7.67188)
(1.57068 0.52604 -4.16197)
(11.4564 7.93004 1.09156)
(2.52296 -9.74846 -5.56316)
(3.05508 3.51786 1.13423)
(-1.01874 -0.548191 -0.341342)
(-11.4064 11.0534 -19.0739)
(-5.06858 -0.378302 -1.47351)
(17.6091 -13.0198 -9.56056)
(1.61628 7.40718 -7.88867)
(-0.33725 -0.64758 0.0348357)
(8.8107 -6.21471 5.28457)
(-0.881537 1.7908 0.218215)
(0.705836 -0.646781 0.5955)
(-0.655127 8.18613 -1.4222)
(13.9951 -14.9708 -14.4747)
(0.861307 15.9043 -1.15599)
(-2.29864 -2.61174 3.16823)
(1.31001 -1.69151 0.433251)
(3.22075 4.02757 1.42845)
(12.8328 11.8172 -2.45436)
(-0.769236 -0.0968167 -8.17174)
(-1.80841 -2.84053 2.39925)
(2.481 1.29856 1.4805)
(-2.52392 -5.59567 -12.1109)
(0.556587 -0.562437 -0.732777)
(-0.133831 -0.424625 -5.89175)
(-5.62475 -8.38435 -3.19891)
(3.9805 -3.76513 -6.31496)
(0.315549 -0.00162463 -0.160431)
(0.840249 0.474028 1.83196)
(9.34401 7.97461 -1.74376)
(-4.51989 -2.46974 1.27976)
(16.7968 24.0154 19.9231)
(0.570904 -1.86307 -2.63908)
(3.15068 -3.13012 -1.74949)
(15.2397 8.96593 -0.519894)
(8.18213 -5.54494 7.54049)
(13.6506 2.77763 10.7263)
(19.3552 -42.1523 -22.9419)
(1.96045 0.355373 0.751516)
(0.0201244 -0.188682 -0.121794)
(0.0257542 -0.0147697 -0.0179113)
(2.05882 4.19186 -1.15594)
(0.137158 -4.67026 5.45264)
(3.2838 1.85221 6.72811)
(1.65495 -0.333682 0.157911)
(3.89667 3.92339 7.85968)
(-5.77938 -2.01823 -6.71803)
(13.5981 2.71722 -10.3029)
(-1.72616 -6.43485 1.54774)
(7.83533 16.0606 3.74585)
(-0.0289377 0.0804925 0.0443071)
(-9.32066 -1.39413 8.31654)
(-0.131958 -3.36354 1.46376)
(9.34397 -2.42956 28.5546)
(-0.291615 0.19777 -0.599714)
(1.11101 0.282742 -7.0302)
(16.8017 26.4113 -3.76356)
(10.7961 -2.95876 7.67439)
(-2.8106 0.0194273 -5.5519)
(-1.35388 4.63276 -4.3118)
(-7.8305 0.895403 -0.182321)
(0.777678 1.28951 -2.13463)
(4.16374 -6.03775 -1.39704)
(5.09591 6.31403 -5.90381)
(-7.97108 3.25482 -13.9243)
(-0.376337 -5.12899 -4.02239)
(0.582582 -0.535758 0.156585)
(-4.81097 2.43449 2.28102)
(-28.9371 8.09911 -20.2979)
(1.71652 5.13607 2.08854)
(-15.3256 -8.98605 -3.58522)
(-1.13296 1.22599 -11.1971)
(7.30232 -15.6445 3.46599)
(-2.12188 -0.0256446 1.25335)
(0.0731261 0.159832 -0.0215535)
(-0.978591 -1.5879 4.36383)
(0.424692 -10.1444 -4.81519)
(3.69083 -3.76315 2.23472)
(2.2934 3.83581 -0.713318)
(-0.265621 3.70937 -0.79682)
(2.17559 -0.478559 -0.600406)
(3.86203 -0.59896 -2.42638)
(-6.87914 11.281 -6.66372)
(8.14767 -12.1286 2.66346)
(11.4389 13.5618 4.70086)
(5.08775 2.96305 2.32518)
(1.58013 -7.22735 -0.327905)
(2.30235 3.15697 -1.20715)
(-5.08338 3.02801 -1.06467)
(2.18238 -6.4949 -9.42118)
(16.6897 -4.48328 -3.29789)
(-7.21236 -5.53125 -0.0490244)
(2.79238 -0.795503 -0.163721)
(1.53651 -2.34498 -2.8244)
(0.268959 8.15996 9.15775)
(0.00213771 -2.65919 14.0003)
(-0.740521 3.64184 -0.444092)
(-3.76616 -2.60962 -1.21733)
(-3.99295 -7.6879 10.2364)
(2.80047 0.511118 -0.418032)
(1.26715 1.83629 3.13045)
(0.661543 -16.6457 -6.12967)
(-0.769505 -2.75331 -11.9157)
(2.29845 4.32303 5.56317)
(-0.923509 -7.76669 5.64046)
(-7.97396 15.8907 6.31769)
(2.19775 0.201874 0.098013)
(-0.359439 -0.00355001 -0.191685)
(9.068 5.63839 10.6039)
(-10.0725 -20.537 -9.63962)
(2.03234 0.965165 -3.27809)
(-6.15635 -0.400073 -4.95885)
(6.39159 -3.52887 17.1509)
(5.53236 -7.99286 -7.28779)
(0.639282 -2.93072 -1.3488)
(-4.83028 8.03312 0.656382)
(0.276405 -1.85125 -7.52612)
(-0.62813 -1.07455 7.6394)
(-18.2979 0.250333 2.10962)
(-0.39078 -0.222688 -4.77469)
(-0.0810219 -0.0305065 -0.0454265)
(-0.604958 -1.34823 1.40067)
(-1.16692 -0.12188 -0.539271)
(0.799148 0.688277 1.9017)
(-0.742685 -2.77981 2.15761)
(0.533179 -0.80531 -0.567448)
(-4.61136 -0.898817 3.57736)
(7.16106 -6.78059 1.77188)
(11.7007 -2.87214 -13.5735)
(-25.1394 4.10474 13.1902)
(7.49436 -15.6301 4.14939)
(12.1706 8.69933 -11.5846)
(-0.852969 0.834124 -4.56572)
(-13.7338 5.12155 4.95711)
(-1.3317 2.70528 0.329648)
(2.14126 12.6589 -31.2912)
(-19.9677 3.77154 -17.0955)
(3.97588 13.8776 5.43827)
(-1.96669 1.32245 -2.22103)
(2.50128 1.41111 0.675901)
(0.164511 0.51304 2.38906)
(-3.83687 -0.980595 2.61227)
(-0.876238 -9.23963 -31.1531)
(-11.0932 0.253911 -17.0562)
(-4.08241 -1.28363 0.128812)
(-0.478271 1.14596 0.191053)
(-9.2912 7.98883 2.8946)
(-1.32385 1.20762 -1.35005)
(0.478503 -1.7312 -2.04152)
(0.172331 19.3164 -12.3821)
(-1.56664 -0.343561 -0.284701)
(26.374 -7.08471 -5.21149)
(-0.563072 -1.00588 1.64033)
(-7.30827 13.8318 7.94581)
(7.21673 8.9418 -8.36087)
(0.584586 -0.664624 2.5524)
(-9.46082 13.163 -18.809)
(-6.61909 4.67337 17.4092)
(4.83939 16.0482 -11.5922)
(-4.41181 2.75522 1.95551)
(0.148464 -0.68735 -1.03213)
(-0.953386 14.8663 0.90163)
(-5.72036 -41.3552 32.8941)
(8.20457 0.322443 -12.6544)
(-2.06987 -0.399032 -1.33328)
(-21.3347 17.5125 17.183)
(0.580124 2.49695 3.12108)
(-9.48906 1.08506 -0.220938)
(-7.1366 -2.49219 -8.29568)
(-0.0129501 -0.477224 -0.194085)
(6.02852 5.61809 -5.45433)
(1.57581 4.6372 -14.0928)
(2.44108 2.2579 -2.96514)
(-0.0100703 -0.0111751 -0.0190682)
(-7.66941 -17.0329 -7.67243)
(15.2084 14.7785 -2.75465)
(4.41079 8.96568 -9.93603)
(0.0556433 -0.521698 -0.336755)
(-0.342833 4.78763 -1.02844)
(-2.73623 1.28576 -0.500355)
(-6.7656 3.23421 -1.34674)
(2.13973 -1.96775 0.575111)
(6.40357 -4.52879 1.2851)
(14.6944 17.4215 6.0387)
(-1.89327 -3.20325 2.86369)
(3.58509 0.912374 -22.6856)
(-8.20819 -14.4729 11.477)
(1.05144 -0.012486 -1.11704)
(-28.0841 7.56044 30.0617)
(19.3947 16.8428 13.3168)
(-4.21675 0.0291468 -8.32952)
(-6.98837 8.72364 -3.42507)
(0.381264 11.5672 12.9816)
(5.54856 7.91453 8.79197)
(-1.53948 -1.21084 -3.36294)
(2.63493 9.47817 0.872704)
(5.85864 0.923823 -14.1251)
(-0.91199 0.743048 3.84216)
(1.95819 7.13533 0.046551)
(3.06654 3.42711 1.17475)
(3.63045 -2.60098 5.2103)
(-2.04223 1.9068 4.63718)
(7.20717 -1.2923 4.50006)
(28.0806 16.5206 -0.957954)
(2.0951 0.379782 0.803134)
(-0.388911 -2.77402 -1.67646)
(-14.0961 -4.09151 -1.67106)
(6.22194 8.94583 -1.73381)
(-3.48432 -20.412 18.7242)
(7.50032 -1.15323 2.25534)
(-0.0352112 0.0979428 0.0539126)
(2.79484 3.72343 -4.21048)
(-9.21195 8.66624 -7.18884)
(2.87662 6.08725 8.00915)
(21.2355 21.1702 7.75853)
(-17.7821 2.68307 1.05121)
(-2.41947 -4.69459 -22.1122)
(-2.14579 -1.28523 -2.11541)
(-1.21458 7.71243 4.4103)
(3.16091 -6.23551 0.19684)
(-0.661419 -1.00678 -0.36392)
(-3.45377 14.7792 -5.36903)
(-0.00938737 0.624203 -1.7489)
(-19.4004 -27.2441 37.7224)
(-18.7888 -3.27429 -12.5736)
(-17.9749 12.0086 -2.45934)
(1.55992 -2.0142 0.515903)
(3.33093 -0.346237 1.61827)
(13.2957 14.3148 41.8224)
(-2.18864 -3.06 0.226915)
(10.148 17.4838 14.6561)
(6.85483 17.3487 -13.4331)
(1.57318 -2.40095 -2.89181)
(-13.7646 1.28533 -14.0921)
(-37.246 -12.5295 14.5866)
(2.17873 3.64403 -0.677653)
(1.68578 7.72515 1.50746)
(-1.62017 -0.317324 -0.994753)
(0.362895 3.0803 2.41074)
(13.0265 -2.02028 -8.1841)
(-5.88893 -2.90218 4.62348)
(0.890935 -4.08439 -1.87975)
(0.189651 -2.54424 -0.591999)
(4.43572 -5.10122 4.01926)
(-3.53764 4.71752 -7.08712)
(3.16411 4.4606 -11.3065)
(-25.5509 -12.3973 -10.0483)
(-2.79661 6.67146 -6.54719)
(-0.0924497 6.45957 -2.94947)
(5.41325 -2.00336 -1.81637)
(-59.2688 -3.623 -4.02141)
(14.5081 2.89906 -10.9923)
(-0.0286254 0.0656577 -0.00712454)
(3.03321 5.705 7.34158)
(4.67489 -1.35151 5.7771)
(1.35158 -2.39574 -7.06455)
(-12.3611 -5.49337 -3.48639)
(6.5208 -19.4063 -28.1498)
(-11.2942 12.3827 3.06438)
(-1.74115 6.24016 -7.90918)
(-6.40832 -1.29248 -11.2787)
(5.39426 6.58563 -12.8563)
(-5.31574 8.71724 -5.14928)
(-8.27122 -7.68466 -27.2938)
(2.13768 -3.21383 -3.339)
(-22.5472 -21.6742 7.2003)
(1.81351 -1.83257 -2.38758)
(1.64337 -0.264104 0.586098)
(-5.68569 0.104371 -2.81673)
(3.76309 -3.05429 -4.44793)
(-4.20573 3.46877 3.44565)
(2.95236 0.271188 0.131666)
(0.183439 -6.21063 -3.26768)
(-16.6836 0.228248 1.9235)
(-0.0102119 0.00780936 -0.0118815)
(-71.2187 -8.76576 -14.1266)
(-18.14 -1.17387 -6.34652)
(12.3744 -0.697563 1.76411)
(4.74682 2.42389 -6.67979)
(-0.809619 -1.94645 1.07583)
(-1.04056 -1.7801 12.6555)
(-6.56193 3.90982 -1.17537)
(-1.71077 1.71259 7.8362)
(-0.0901699 -0.0339509 -0.0505555)
(-5.09263 -14.6051 -1.6826)
(-2.42803 -1.38876 1.04674)
(-1.20604 -0.660423 0.296533)
(17.6414 -1.69517 -0.589207)
(3.48849 5.05534 8.61822)
(-0.707175 1.48431 0.168928)
(3.00148 -11.5974 -6.61829)
(-0.452796 8.59994 2.3432)
(-35.0353 24.2334 -32.5737)
(-3.50557 7.35742 -8.00185)
(0.910363 5.5085 -13.1455)
(-4.60114 6.40895 -2.61827)
(0.516218 -0.473028 0.435523)
(-0.406729 -2.4742 3.38038)
(-4.41046 -1.42013 10.1912)
(5.1513 2.04838 7.1821)
(-2.41976 -17.7855 -5.81604)
(-8.85986 -4.96304 5.97975)
(-0.528981 20.7507 -24.1818)
(-2.45607 -0.08759 0.984248)
(1.63923 1.68747 1.07417)
(-17.0288 -1.27097 -4.95053)
(-3.30664 0.207224 -5.03902)
(0.796953 1.60218 8.53488)
(-6.31425 -4.91495 -3.64648)
(2.92717 31.5201 4.48556)
(12.5097 -7.14687 -36.0852)
(-2.13857 -5.62684 -1.63734)
(3.09199 13.9796 -18.709)
(2.2743 1.14482 -1.23105)
(-0.445038 0.468829 0.510629)
(0.578158 0.497946 1.37582)
(-6.27794 -4.35007 -2.02921)
(2.43095 2.74658 -3.11985)
(-0.0874 -8.99507 5.84713)
(-3.69866 -4.95042 15.7213)
(-0.274061 0.185865 -0.563615)
(-12.7136 3.9269 9.88775)
(-1.54066 -2.91548 0.103977)
(2.1682 2.78123 -2.57409)
(6.63324 1.21064 -0.990156)
(-7.86692 7.09338 -1.14146)
(-2.36488 -1.41993 -1.16214)
(3.56658 7.61997 4.52103)
(-4.87708 2.46795 2.31237)
(1.48724 2.20598 6.39276)
(4.52438 12.7982 32.1318)
(6.49197 8.90179 -3.40384)
(-7.14815 -0.0863912 4.22225)
(-3.62018 1.05636 4.28388)
(1.34985 27.9548 -13.873)
(22.5315 5.39583 12.3261)
(3.20344 1.86565 1.46402)
(-3.19718 -0.333933 -1.47752)
(-7.06248 -8.02446 9.73427)
(0.617751 -0.00291074 0.208624)
(0.261171 -0.00134466 -0.132784)
(2.10036 7.12948 -5.65623)
(-6.24567 8.83813 10.4934)
(-1.25556 -15.4532 7.75348)
(-4.87305 -1.91202 -2.84468)
(-7.72385 12.8454 1.04959)
(-0.0618519 5.27664 -8.9145)
(-6.02402 1.58101 17.8687)
(18.4202 -5.9629 15.8594)
(0.960651 10.1144 12.8204)
(-3.11097 2.99771 -2.47106)
(-1.02409 1.87218 9.79714)
(-2.29873 -8.60397 6.67814)
(6.9019 8.91361 3.66086)
(-7.73611 -6.29333 -9.9331)
(2.05374 -0.0300354 -0.511872)
(0.114633 11.7551 2.78058)
(-0.870433 4.28073 -0.522001)
(-2.90316 -5.85417 -2.46071)
(-5.56526 2.3303 1.37401)
(-3.41304 -2.15882 -8.1451)
(7.82425 -7.74094 -9.05779)
(-1.3072 7.7049 -1.92014)
(-0.40795 -2.82559 0.389184)
(9.42464 -16.1792 -39.3989)
(8.28482 1.61823 12.6194)
(0.0114849 -1.322 0.792121)
(5.08233 6.1706 -6.14795)
(12.9432 8.04792 15.1354)
(-6.18775 -2.03476 -3.20254)
(-1.63798 -1.33061 -1.56945)
(-1.1037 -6.10044 -3.77792)
(-0.17701 0.346488 -0.252791)
(13.2965 5.83497 7.28015)
(-0.294945 -1.89624 3.1418)
(4.27305 3.02024 0.349718)
(-9.19389 4.41712 0.895186)
(-2.46574 2.82002 1.62156)
(0.57574 0.429789 -0.856964)
(8.13135 -3.06997 -5.83673)
(8.43022 0.302884 -3.09778)
(-9.03569 27.1514 -1.28378)
(0.952827 1.60629 -2.407)
(-10.753 -1.23564 -2.22524)
(10.1868 5.0777 -0.581627)
(-1.6888 1.57944 4.92989)
(3.26686 -0.857049 3.75947)
(-0.906688 -0.553555 1.17269)
(0.0417225 -4.04772 -1.91066)
(-6.51334 0.716392 -4.20925)
(0.00666536 0.00485222 0.00639345)
(0.850802 -5.60728 5.91594)
(3.43394 0.130078 4.16231)
(4.02446 7.62781 -22.709)
(-2.76882 16.531 -6.43058)
(13.6452 -3.34944 -15.8292)
(-2.29253 -5.4914 6.92663)
(3.8351 0.538112 -0.134237)
(10.2168 15.4832 -2.30571)
(0.334155 0.0614575 0.647812)
(-0.687337 0.575537 2.51061)
(-3.05122 8.32531 3.37037)
(-17.7595 4.04357 15.8052)
(-0.816432 1.04996 1.73127)
(2.39005 0.263072 7.54541)
(-4.35103 -1.24792 2.86524)
(7.53766 2.27924 -11.6788)
(0.0125385 -0.035647 0.00953101)
(11.163 -1.05174 -1.62401)
(-5.06787 1.70714 0.821418)
(17.0421 10.1493 -5.49169)
(2.18732 0.630943 0.478581)
(-5.08146 0.845417 -3.77995)
(3.21927 0.346465 16.238)
(-0.750668 -3.25085 -2.08363)
(-4.11839 -5.33391 5.57033)
(-13.8454 -5.77128 -5.68215)
(-26.2136 0.648369 22.0107)
(5.58706 11.3914 -26.6928)
(-0.39 -9.94094 4.32614)
(0.0619076 -0.156515 -1.03406)
(-12.1455 3.63666 -17.3925)
(-0.64941 -0.393257 -1.67843)
(-18.7115 11.5842 9.63376)
(-2.29032 11.5427 6.66341)
(-11.9875 -2.49725 1.08984)
(2.94501 -0.441693 -0.533296)
(9.6859 5.65378 -8.5589)
(0.480369 0.415396 -1.4911)
(4.0304 4.88829 -1.05989)
(-4.24096 16.0268 11.3561)
(-2.94176 -9.19944 34.8635)
(0.441948 -0.0439834 -0.886241)
(-1.5741 6.9378 2.5883)
(-1.53764 -3.42684 3.56015)
(-0.547002 0.66954 -8.56691)
(0.627436 -0.661387 -0.785095)
(0.0803217 -0.628501 -0.440839)
(0.870632 -3.46767 2.66532)
(-10.4901 3.84559 -1.64967)
(19.3313 3.59653 -4.74598)
(-0.0226647 -0.811669 2.26981)
(-1.94434 2.83338 2.29479)
(6.62862 0.894327 7.76219)
(-15.0858 16.6779 -16.3044)